 Entering Gaussian System, Link 0=/usr/local/Gaussian/G16C/g16/g16
 Input=arbr32_xtbopt_red.com
 Output=arbr32_xtbopt_red.log
 Initial command:
 /usr/local/Gaussian/G16C/g16/l1.exe "/home/rpaton/arbr500/xtb/fukui/Gau-2129497.inp" -scrdir="/home/rpaton/arbr500/xtb/fukui/"
 Entering Link 1 = /usr/local/Gaussian/G16C/g16/l1.exe PID=   2129498.
  
 Copyright (c) 1988-2019, Gaussian, Inc.  All Rights Reserved.
  
 This is part of the Gaussian(R) 16 program.  It is based on
 the Gaussian(R) 09 system (copyright 2009, Gaussian, Inc.),
 the Gaussian(R) 03 system (copyright 2003, Gaussian, Inc.),
 the Gaussian(R) 98 system (copyright 1998, Gaussian, Inc.),
 the Gaussian(R) 94 system (copyright 1995, Gaussian, Inc.),
 the Gaussian 92(TM) system (copyright 1992, Gaussian, Inc.),
 the Gaussian 90(TM) system (copyright 1990, Gaussian, Inc.),
 the Gaussian 88(TM) system (copyright 1988, Gaussian, Inc.),
 the Gaussian 86(TM) system (copyright 1986, Carnegie Mellon
 University), and the Gaussian 82(TM) system (copyright 1983,
 Carnegie Mellon University). Gaussian is a federally registered
 trademark of Gaussian, Inc.
  
 This software contains proprietary and confidential information,
 including trade secrets, belonging to Gaussian, Inc.
  
 This software is provided under written license and may be
 used, copied, transmitted, or stored only in accord with that
 written license.
  
 The following legend is applicable only to US Government
 contracts under FAR:
  
                    RESTRICTED RIGHTS LEGEND
  
 Use, reproduction and disclosure by the US Government is
 subject to restrictions as set forth in subparagraphs (a)
 and (c) of the Commercial Computer Software - Restricted
 Rights clause in FAR 52.227-19.
  
 Gaussian, Inc.
 340 Quinnipiac St., Bldg. 40, Wallingford CT 06492
  
  
 ---------------------------------------------------------------
 Warning -- This program may not be used in any manner that
 competes with the business of Gaussian, Inc. or will provide
 assistance to any competitor of Gaussian, Inc.  The licensee
 of this program is prohibited from giving any competitor of
 Gaussian, Inc. access to this program.  By using this program,
 the user acknowledges that Gaussian, Inc. is engaged in the
 business of creating and licensing software in the field of
 computational chemistry and represents and warrants to the
 licensee that it is not a competitor of Gaussian, Inc. and that
 it will not use this program in any manner prohibited above.
 ---------------------------------------------------------------
  

 Cite this work as:
 Gaussian 16, Revision C.01,
 M. J. Frisch, G. W. Trucks, H. B. Schlegel, G. E. Scuseria, 
 M. A. Robb, J. R. Cheeseman, G. Scalmani, V. Barone, 
 G. A. Petersson, H. Nakatsuji, X. Li, M. Caricato, A. V. Marenich, 
 J. Bloino, B. G. Janesko, R. Gomperts, B. Mennucci, H. P. Hratchian, 
 J. V. Ortiz, A. F. Izmaylov, J. L. Sonnenberg, D. Williams-Young, 
 F. Ding, F. Lipparini, F. Egidi, J. Goings, B. Peng, A. Petrone, 
 T. Henderson, D. Ranasinghe, V. G. Zakrzewski, J. Gao, N. Rega, 
 G. Zheng, W. Liang, M. Hada, M. Ehara, K. Toyota, R. Fukuda, 
 J. Hasegawa, M. Ishida, T. Nakajima, Y. Honda, O. Kitao, H. Nakai, 
 T. Vreven, K. Throssell, J. A. Montgomery, Jr., J. E. Peralta, 
 F. Ogliaro, M. J. Bearpark, J. J. Heyd, E. N. Brothers, K. N. Kudin, 
 V. N. Staroverov, T. A. Keith, R. Kobayashi, J. Normand, 
 K. Raghavachari, A. P. Rendell, J. C. Burant, S. S. Iyengar, 
 J. Tomasi, M. Cossi, J. M. Millam, M. Klene, C. Adamo, R. Cammi, 
 J. W. Ochterski, R. L. Martin, K. Morokuma, O. Farkas, 
 J. B. Foresman, and D. J. Fox, Gaussian, Inc., Wallingford CT, 2019.
 
 ******************************************
 Gaussian 16:  ES64L-G16RevC.01  3-Jul-2019
                28-Sep-2024 
 ******************************************
 %nprocshared=24
 Will use up to   24 processors via shared memory.
 ----------------------------------
 # wb97xd midix pop(nbo6,hirshfeld)
 ----------------------------------
 1/38=1,172=1/1;
 2/12=2,17=6,18=5,40=1/2;
 3/5=20,11=2,25=1,30=1,74=-58/1,2,3;
 4//1;
 5/5=2,38=5/2;
 6/7=2,8=2,9=2,10=2,28=1,40=1,79=1,113=1,114=1,124=3103,126=1/1,12;
 99/5=1,9=1/99;
 -------------------------------------------------------------------
 energy: -35.070055548508 gnorm: 0.000457512137 xtb: 6.7.0 (08769fc)
 -------------------------------------------------------------------
 Symbolic Z-matrix:
 Charge = -1 Multiplicity = 2
 O                    -3.33889   1.85455  -0.33796 
 C                    -2.85947   0.77816  -0.09683 
 O                    -3.66348  -0.28242   0.09138 
 C                    -3.10018  -1.52289   0.4877 
 C                    -1.85316  -1.87059  -0.31733 
 C                    -0.87546  -0.74557  -0.15666 
 C                     0.49606  -0.93657  -0.14091 
 C                     1.33237   0.15731   0.01155 
 Br                    3.214    -0.11756   0.03938 
 C                     0.83095   1.44322   0.14733 
 C                    -0.53656   1.63232   0.12371 
 C                    -1.39205   0.54475  -0.02317 
 H                    -3.89463  -2.25732   0.33918 
 H                    -2.85292  -1.47691   1.55712 
 H                    -1.43314  -2.81418   0.03055 
 H                    -2.11605  -1.97998  -1.37409 
 H                     0.90922  -1.9283   -0.24618 
 H                     1.50261   2.27914   0.26412 
 H                    -0.96315   2.61914   0.21545 
 
                          Input orientation:                          
 ---------------------------------------------------------------------
 Center     Atomic      Atomic             Coordinates (Angstroms)
 Number     Number       Type             X           Y           Z
 ---------------------------------------------------------------------
      1          8           0       -3.338890    1.854550   -0.337960
      2          6           0       -2.859470    0.778160   -0.096830
      3          8           0       -3.663480   -0.282420    0.091380
      4          6           0       -3.100180   -1.522890    0.487700
      5          6           0       -1.853160   -1.870590   -0.317330
      6          6           0       -0.875460   -0.745570   -0.156660
      7          6           0        0.496060   -0.936570   -0.140910
      8          6           0        1.332370    0.157310    0.011550
      9         35           0        3.214000   -0.117560    0.039380
     10          6           0        0.830950    1.443220    0.147330
     11          6           0       -0.536560    1.632320    0.123710
     12          6           0       -1.392050    0.544750   -0.023170
     13          1           0       -3.894630   -2.257320    0.339180
     14          1           0       -2.852920   -1.476910    1.557120
     15          1           0       -1.433140   -2.814180    0.030550
     16          1           0       -2.116050   -1.979980   -1.374090
     17          1           0        0.909220   -1.928300   -0.246180
     18          1           0        1.502610    2.279140    0.264120
     19          1           0       -0.963150    2.619140    0.215450
 ---------------------------------------------------------------------
                    Distance matrix (angstroms):
                    1          2          3          4          5
     1  O    0.000000
     2  C    1.202748   0.000000
     3  O    2.203709   1.344130   0.000000
     4  C    3.485082   2.386304   1.418852   0.000000
     5  C    4.010547   2.842034   2.442660   1.524476   0.000000
     6  C    3.586360   2.502325   2.837091   2.443114   1.499127
     7  C    4.747212   3.768531   4.217066   3.697548   2.534236
     8  C    4.982314   4.238953   5.015800   4.764167   3.790533
     9  Br   6.853610   6.140676   6.879652   6.484197   5.373683
    10  C    4.218088   3.757808   4.814651   4.936339   4.289719
    11  C    2.848785   2.484781   3.666729   4.081665   3.768067
    12  C    2.367457   1.487692   2.420067   2.730171   2.476493
    13  H    4.204146   3.236634   2.003763   1.092061   2.179029
    14  H    3.863434   2.796593   2.057233   1.098595   2.160571
    15  H    5.056157   3.867241   3.374600   2.157646   1.089862
    16  H    4.156023   3.129122   2.724675   2.154926   1.094449
    17  H    5.689008   4.642225   4.871597   4.096123   2.763899
    18  H    4.897234   4.627199   5.768875   5.974203   5.368383
    19  H    2.556365   2.661345   3.965631   4.668772   4.607998
                    6          7          8          9         10
     6  C    0.000000
     7  C    1.384845   0.000000
     8  C    2.391234   1.385363   0.000000
     9  Br   4.142042   2.844377   1.901804   0.000000
    10  C    2.791961   2.420462   1.386875   2.850722   0.000000
    11  C    2.418227   2.781281   2.383513   4.139552   1.380725
    12  C    1.396285   2.402734   2.752050   4.653844   2.403757
    13  H    3.412716   4.610100   5.767088   7.429742   6.005157
    14  H    2.717029   3.793539   4.751433   6.399913   4.907705
    15  H    2.150628   2.697523   4.059330   5.372871   4.823401
    16  H    2.131893   3.071247   4.287144   5.820304   4.766322
    17  H    2.142883   1.079496   2.143653   2.944883   3.395309
    18  H    3.870548   3.393815   2.143580   2.953563   1.078670
    19  H    3.386359   3.859969   3.372179   4.996910   2.146211
                   11         12         13         14         15
    11  C    0.000000
    12  C    1.391490   0.000000
    13  H    5.143186   3.774361   0.000000
    14  H    4.133703   2.952722   1.782576   0.000000
    15  H    4.536948   3.359611   2.542495   2.476789   0.000000
    16  H    4.217452   2.953544   2.485067   3.063992   1.770669
    17  H    3.860714   3.385492   4.850554   4.196349   2.519526
    18  H    2.143900   3.386695   7.050908   5.894947   5.883459
    19  H    1.078985   2.131663   5.691111   4.706265   5.456743
                   16         17         18         19
    16  H    0.000000
    17  H    3.229104   0.000000
    18  H    5.823962   4.279611   0.000000
    19  H    5.000772   4.939441   2.489566   0.000000
 Stoichiometry    C9H7BrO2(1-,2)
 Framework group  C1[X(C9H7BrO2)]
 Deg. of freedom    51
 Full point group                 C1      NOp   1
 Largest Abelian subgroup         C1      NOp   1
 Largest concise Abelian subgroup C1      NOp   1
                         Standard orientation:                         
 ---------------------------------------------------------------------
 Center     Atomic      Atomic             Coordinates (Angstroms)
 Number     Number       Type             X           Y           Z
 ---------------------------------------------------------------------
      1          8           0       -3.335655    1.868021   -0.296592
      2          6           0       -2.857154    0.787700   -0.071765
      3          8           0       -3.662368   -0.273269    0.108958
      4          6           0       -3.099335   -1.519732    0.486406
      5          6           0       -1.858545   -1.860443   -0.331141
      6          6           0       -0.877161   -0.739670   -0.163403
      7          6           0        0.493982   -0.933945   -0.159184
      8          6           0        1.333852    0.156109    0.000916
      9         35           0        3.214977   -0.123330    0.012771
     10          6           0        0.836363    1.441404    0.155654
     11          6           0       -0.530828    1.633867    0.143515
     12          6           0       -1.389825    0.550097   -0.010800
     13          1           0       -3.896478   -2.250506    0.334325
     14          1           0       -2.844821   -1.487306    1.554620
     15          1           0       -1.438418   -2.809136    0.002435
     16          1           0       -2.128753   -1.956392   -1.387361
     17          1           0        0.904106   -1.925254   -0.279252
     18          1           0        1.510744    2.274324    0.278064
     19          1           0       -0.954484    2.620461    0.250085
 ---------------------------------------------------------------------
 Rotational constants (GHZ):           1.9513622           0.3216028           0.2796685
 Standard basis: MIDIx (5D, 7F)
 There are   154 symmetry adapted cartesian basis functions of A   symmetry.
 There are   150 symmetry adapted basis functions of A   symmetry.
   150 basis functions,   261 primitive gaussians,   154 cartesian basis functions
    57 alpha electrons       56 beta electrons
       nuclear repulsion energy       915.0720541040 Hartrees.
 NAtoms=   19 NActive=   19 NUniq=   19 SFac= 1.00D+00 NAtFMM=   60 NAOKFM=F Big=F
 Integral buffers will be    131072 words long.
 Raffenetti 2 integral format.
 Two-electron integral symmetry is turned on.
 Nuclear repulsion after empirical dispersion term =      915.0606069246 Hartrees.
 One-electron integrals computed using PRISM.
 NBasis=   150 RedAO= T EigKep=  1.12D-03  NBF=   150
 NBsUse=   150 1.00D-06 EigRej= -1.00D+00 NBFU=   150
 ExpMin= 1.47D-01 ExpMax= 6.10D+03 ExpMxC= 6.10D+03 IAcc=3 IRadAn=         5 AccDes= 0.00D+00
 Harris functional with IExCor= 4639 and IRadAn=       5 diagonalized for initial guess.
 HarFok:  IExCor= 4639 AccDes= 0.00D+00 IRadAn=         5 IDoV= 1 UseB2=F ITyADJ=14
 ICtDFT=  3500011 ScaDFX=  1.000000  1.000000  1.000000  1.000000
 FoFCou: FMM=F IPFlag=           0 FMFlag=      100000 FMFlg1=           0
         NFxFlg=           0 DoJE=T BraDBF=F KetDBF=T FulRan=T
         wScrn=  0.000000 ICntrl=       500 IOpCl=  0 I1Cent=   200000004 NGrid=           0
         NMat0=    1 NMatS0=      1 NMatT0=    0 NMatD0=    1 NMtDS0=    0 NMtDT0=    0
 Petite list used in FoFCou.
 Initial guess <Sx>= 0.0000 <Sy>= 0.0000 <Sz>= 0.5000 <S**2>= 0.7500 S= 0.5000
 Requested convergence on RMS density matrix=1.00D-08 within 128 cycles.
 Requested convergence on MAX density matrix=1.00D-06.
 Requested convergence on             energy=1.00D-06.
 No special actions if energy rises.
 Integral accuracy reduced to 1.0D-05 until final iterations.
 Initial convergence to 1.0D-05 achieved.  Increase integral accuracy.
 SCF Done:  E(UwB97XD) =  -3056.62251218     A.U. after   28 cycles
            NFock= 28  Conv=0.94D-08     -V/T= 2.0022
 <Sx>= 0.0000 <Sy>= 0.0000 <Sz>= 0.5000 <S**2>= 0.7638 S= 0.5069
 <L.S>= 0.000000000000E+00
 Annihilation of the first spin contaminant:
 S**2 before annihilation     0.7638,   after     0.7501

 **********************************************************************

            Population analysis using the SCF Density.

 **********************************************************************

 Orbital symmetries:
 Alpha Orbitals:
       Occupied  (A) (A) (A) (A) (A) (A) (A) (A) (A) (A) (A) (A)
                 (A) (A) (A) (A) (A) (A) (A) (A) (A) (A) (A) (A)
                 (A) (A) (A) (A) (A) (A) (A) (A) (A) (A) (A) (A)
                 (A) (A) (A) (A) (A) (A) (A) (A) (A) (A) (A) (A)
                 (A) (A) (A) (A) (A) (A) (A) (A) (A)
       Virtual   (A) (A) (A) (A) (A) (A) (A) (A) (A) (A) (A) (A)
                 (A) (A) (A) (A) (A) (A) (A) (A) (A) (A) (A) (A)
                 (A) (A) (A) (A) (A) (A) (A) (A) (A) (A) (A) (A)
                 (A) (A) (A) (A) (A) (A) (A) (A) (A) (A) (A) (A)
                 (A) (A) (A) (A) (A) (A) (A) (A) (A) (A) (A) (A)
                 (A) (A) (A) (A) (A) (A) (A) (A) (A) (A) (A) (A)
                 (A) (A) (A) (A) (A) (A) (A) (A) (A) (A) (A) (A)
                 (A) (A) (A) (A) (A) (A) (A) (A) (A)
 Beta  Orbitals:
       Occupied  (A) (A) (A) (A) (A) (A) (A) (A) (A) (A) (A) (A)
                 (A) (A) (A) (A) (A) (A) (A) (A) (A) (A) (A) (A)
                 (A) (A) (A) (A) (A) (A) (A) (A) (A) (A) (A) (A)
                 (A) (A) (A) (A) (A) (A) (A) (A) (A) (A) (A) (A)
                 (A) (A) (A) (A) (A) (A) (A) (A)
       Virtual   (A) (A) (A) (A) (A) (A) (A) (A) (A) (A) (A) (A)
                 (A) (A) (A) (A) (A) (A) (A) (A) (A) (A) (A) (A)
                 (A) (A) (A) (A) (A) (A) (A) (A) (A) (A) (A) (A)
                 (A) (A) (A) (A) (A) (A) (A) (A) (A) (A) (A) (A)
                 (A) (A) (A) (A) (A) (A) (A) (A) (A) (A) (A) (A)
                 (A) (A) (A) (A) (A) (A) (A) (A) (A) (A) (A) (A)
                 (A) (A) (A) (A) (A) (A) (A) (A) (A) (A) (A) (A)
                 (A) (A) (A) (A) (A) (A) (A) (A) (A) (A)
 The electronic state is 2-A.
 Alpha  occ. eigenvalues -- -479.99333 -62.42724 -56.01581 -56.01224 -56.01201
 Alpha  occ. eigenvalues --  -19.01678 -18.92219 -10.15559 -10.15303 -10.10125
 Alpha  occ. eigenvalues --  -10.09448 -10.07228 -10.06969 -10.06631 -10.05455
 Alpha  occ. eigenvalues --  -10.04046  -8.73545  -6.51888  -6.50687  -6.50652
 Alpha  occ. eigenvalues --   -2.62226  -2.61805  -2.61750  -2.60762  -2.60758
 Alpha  occ. eigenvalues --   -1.03153  -0.93556  -0.81679  -0.76389  -0.73206
 Alpha  occ. eigenvalues --   -0.68569  -0.66922  -0.60742  -0.55233  -0.52899
 Alpha  occ. eigenvalues --   -0.48276  -0.46353  -0.42735  -0.42265  -0.38126
 Alpha  occ. eigenvalues --   -0.36381  -0.36313  -0.34723  -0.34403  -0.32924
 Alpha  occ. eigenvalues --   -0.32030  -0.29689  -0.29174  -0.25979  -0.24071
 Alpha  occ. eigenvalues --   -0.23245  -0.21483  -0.19972  -0.17006  -0.15981
 Alpha  occ. eigenvalues --   -0.14989   0.02540
 Alpha virt. eigenvalues --    0.23746   0.24797   0.29533   0.30945   0.34846
 Alpha virt. eigenvalues --    0.35197   0.36752   0.37319   0.39218   0.39888
 Alpha virt. eigenvalues --    0.42533   0.43935   0.46450   0.50016   0.52747
 Alpha virt. eigenvalues --    0.56039   0.57028   0.57307   0.61503   0.65747
 Alpha virt. eigenvalues --    0.69585   0.71095   0.73457   0.75366   0.76622
 Alpha virt. eigenvalues --    0.77336   0.78933   0.79288   0.79563   0.80324
 Alpha virt. eigenvalues --    0.82249   0.83078   0.86385   0.88518   0.90629
 Alpha virt. eigenvalues --    0.92069   0.94815   0.97943   0.98786   1.01251
 Alpha virt. eigenvalues --    1.02875   1.04979   1.06306   1.07766   1.09012
 Alpha virt. eigenvalues --    1.10462   1.11955   1.12489   1.13278   1.14529
 Alpha virt. eigenvalues --    1.15051   1.15866   1.16248   1.18511   1.18939
 Alpha virt. eigenvalues --    1.20063   1.20968   1.23496   1.25748   1.27207
 Alpha virt. eigenvalues --    1.28678   1.30336   1.32994   1.34585   1.39343
 Alpha virt. eigenvalues --    1.47029   1.49337   1.55493   1.56211   1.62814
 Alpha virt. eigenvalues --    1.67847   1.74576   1.76433   1.79107   1.83352
 Alpha virt. eigenvalues --    1.87335   1.90675   1.91732   1.94523   2.01204
 Alpha virt. eigenvalues --    2.07318   2.08801   2.11562   2.12988   2.17954
 Alpha virt. eigenvalues --    2.22056   2.23000   2.30379   2.42606   2.51494
 Alpha virt. eigenvalues --    2.69834   3.02769   3.36438
  Beta  occ. eigenvalues -- -479.99333 -62.42722 -56.01588 -56.01224 -56.01189
  Beta  occ. eigenvalues --  -19.01633 -18.91883 -10.15456 -10.15294 -10.10137
  Beta  occ. eigenvalues --  -10.08961 -10.07078 -10.07019 -10.06684 -10.05294
  Beta  occ. eigenvalues --  -10.03763  -8.73543  -6.51901  -6.50686  -6.50633
  Beta  occ. eigenvalues --   -2.62232  -2.61811  -2.61740  -2.60754  -2.60750
  Beta  occ. eigenvalues --   -1.02919  -0.92911  -0.81114  -0.76038  -0.72883
  Beta  occ. eigenvalues --   -0.68282  -0.66367  -0.60606  -0.54370  -0.52535
  Beta  occ. eigenvalues --   -0.48024  -0.46204  -0.42452  -0.41993  -0.37797
  Beta  occ. eigenvalues --   -0.36057  -0.35998  -0.34534  -0.33994  -0.32119
  Beta  occ. eigenvalues --   -0.31361  -0.28959  -0.28491  -0.25730  -0.23867
  Beta  occ. eigenvalues --   -0.22427  -0.21454  -0.18575  -0.15703  -0.15059
  Beta  occ. eigenvalues --   -0.12685
  Beta virt. eigenvalues --    0.22620   0.24080   0.25445   0.30639   0.33100
  Beta virt. eigenvalues --    0.35011   0.35466   0.36874   0.37543   0.39466
  Beta virt. eigenvalues --    0.40082   0.42737   0.45530   0.47083   0.50278
  Beta virt. eigenvalues --    0.53206   0.56518   0.57187   0.57767   0.62064
  Beta virt. eigenvalues --    0.66108   0.69873   0.71255   0.73618   0.75555
  Beta virt. eigenvalues --    0.76776   0.77513   0.79033   0.79687   0.79846
  Beta virt. eigenvalues --    0.80463   0.82409   0.83260   0.86778   0.88742
  Beta virt. eigenvalues --    0.90838   0.92191   0.95202   0.98363   0.98953
  Beta virt. eigenvalues --    1.01345   1.03313   1.05323   1.06678   1.08247
  Beta virt. eigenvalues --    1.09336   1.10525   1.12013   1.12618   1.13404
  Beta virt. eigenvalues --    1.14649   1.15368   1.16182   1.16637   1.18678
  Beta virt. eigenvalues --    1.19196   1.20299   1.21306   1.24148   1.26324
  Beta virt. eigenvalues --    1.27736   1.29108   1.30552   1.33411   1.35067
  Beta virt. eigenvalues --    1.39534   1.47169   1.49630   1.55726   1.56534
  Beta virt. eigenvalues --    1.63170   1.68101   1.74766   1.76736   1.79290
  Beta virt. eigenvalues --    1.84356   1.87591   1.91280   1.92064   1.94868
  Beta virt. eigenvalues --    2.01535   2.07596   2.09444   2.11825   2.13277
  Beta virt. eigenvalues --    2.18420   2.22211   2.23351   2.31020   2.42841
  Beta virt. eigenvalues --    2.51692   2.69920   3.02929   3.36841
          Condensed to atoms (all electrons):
               1          2          3          4          5          6
     1  O    8.292271   0.543114  -0.073905   0.002515  -0.000428   0.001536
     2  C    0.543114   4.149921   0.149764  -0.022714  -0.017028  -0.016627
     3  O   -0.073905   0.149764   8.652939   0.170349  -0.026953  -0.011358
     4  C    0.002515  -0.022714   0.170349   4.903051   0.292241  -0.077476
     5  C   -0.000428  -0.017028  -0.026953   0.292241   5.221510   0.301341
     6  C    0.001536  -0.016627  -0.011358  -0.077476   0.301341   5.196823
     7  C    0.000025  -0.000687   0.000249   0.000661  -0.009795   0.524992
     8  C   -0.000023   0.000338  -0.000022   0.000034   0.001337  -0.022792
     9  Br  -0.000000   0.000001   0.000000   0.000001  -0.000051   0.002518
    10  C    0.000642   0.003289   0.000050  -0.000087   0.000696  -0.040606
    11  C    0.000474  -0.011941   0.001997  -0.000229   0.000860  -0.008383
    12  C   -0.116542   0.373293  -0.110157   0.001647  -0.033104   0.318381
    13  H   -0.000019   0.003008  -0.027395   0.388150  -0.042706   0.007105
    14  H    0.000033  -0.002311  -0.028160   0.382918  -0.049834  -0.002135
    15  H    0.000004   0.000453   0.002366  -0.029226   0.380213  -0.037334
    16  H   -0.000056   0.002207   0.000692  -0.043661   0.384846  -0.037722
    17  H    0.000000  -0.000026   0.000004   0.000146  -0.008254  -0.022872
    18  H   -0.000001  -0.000040   0.000000   0.000000   0.000005   0.000012
    19  H    0.014718   0.000329   0.000367  -0.000062  -0.000071   0.002850
               7          8          9         10         11         12
     1  O    0.000025  -0.000023  -0.000000   0.000642   0.000474  -0.116542
     2  C   -0.000687   0.000338   0.000001   0.003289  -0.011941   0.373293
     3  O    0.000249  -0.000022   0.000000   0.000050   0.001997  -0.110157
     4  C    0.000661   0.000034   0.000001  -0.000087  -0.000229   0.001647
     5  C   -0.009795   0.001337  -0.000051   0.000696   0.000860  -0.033104
     6  C    0.524992  -0.022792   0.002518  -0.040606  -0.008383   0.318381
     7  C    4.910335   0.426173  -0.038694  -0.023457  -0.028740  -0.010237
     8  C    0.426173   5.270107   0.178550   0.408867  -0.036407  -0.047169
     9  Br  -0.038694   0.178550  35.117945  -0.036304   0.001886   0.000390
    10  C   -0.023457   0.408867  -0.036304   5.004962   0.512924  -0.036196
    11  C   -0.028740  -0.036407   0.001886   0.512924   5.007663   0.344307
    12  C   -0.010237  -0.047169   0.000390  -0.036196   0.344307   5.624546
    13  H    0.000011  -0.000003  -0.000000   0.000002   0.000000  -0.000609
    14  H   -0.000128   0.000039   0.000000  -0.000033  -0.000074   0.002462
    15  H   -0.004633   0.000201  -0.000010  -0.000004  -0.000019   0.003560
    16  H   -0.003650   0.000075   0.000001  -0.000016   0.000021  -0.002453
    17  H    0.395896  -0.026599  -0.000378   0.003126   0.000030   0.003379
    18  H    0.003194  -0.029827  -0.000504   0.400597  -0.022839   0.003695
    19  H    0.000256   0.002904  -0.000069  -0.019362   0.394376  -0.038526
              13         14         15         16         17         18
     1  O   -0.000019   0.000033   0.000004  -0.000056   0.000000  -0.000001
     2  C    0.003008  -0.002311   0.000453   0.002207  -0.000026  -0.000040
     3  O   -0.027395  -0.028160   0.002366   0.000692   0.000004   0.000000
     4  C    0.388150   0.382918  -0.029226  -0.043661   0.000146   0.000000
     5  C   -0.042706  -0.049834   0.380213   0.384846  -0.008254   0.000005
     6  C    0.007105  -0.002135  -0.037334  -0.037722  -0.022872   0.000012
     7  C    0.000011  -0.000128  -0.004633  -0.003650   0.395896   0.003194
     8  C   -0.000003   0.000039   0.000201   0.000075  -0.026599  -0.029827
     9  Br  -0.000000   0.000000  -0.000010   0.000001  -0.000378  -0.000504
    10  C    0.000002  -0.000033  -0.000004  -0.000016   0.003126   0.400597
    11  C    0.000000  -0.000074  -0.000019   0.000021   0.000030  -0.022839
    12  C   -0.000609   0.002462   0.003560  -0.002453   0.003379   0.003695
    13  H    0.567935  -0.037963  -0.000070  -0.003845   0.000001   0.000000
    14  H   -0.037963   0.571257  -0.000959   0.005569  -0.000013  -0.000000
    15  H   -0.000070  -0.000959   0.552181  -0.027123   0.004272  -0.000000
    16  H   -0.003845   0.005569  -0.027123   0.545747   0.000269  -0.000000
    17  H    0.000001  -0.000013   0.004272   0.000269   0.516356  -0.000093
    18  H    0.000000  -0.000000  -0.000000  -0.000000  -0.000093   0.509044
    19  H    0.000001   0.000012   0.000003   0.000005   0.000009  -0.005044
              19
     1  O    0.014718
     2  C    0.000329
     3  O    0.000367
     4  C   -0.000062
     5  C   -0.000071
     6  C    0.002850
     7  C    0.000256
     8  C    0.002904
     9  Br  -0.000069
    10  C   -0.019362
    11  C    0.394376
    12  C   -0.038526
    13  H    0.000001
    14  H    0.000012
    15  H    0.000003
    16  H    0.000005
    17  H    0.000009
    18  H   -0.005044
    19  H    0.495422
          Atomic-Atomic Spin Densities.
               1          2          3          4          5          6
     1  O    0.201441  -0.053900   0.001465   0.000232  -0.000155   0.000562
     2  C   -0.053900   0.084993  -0.007768  -0.001466   0.002350  -0.012068
     3  O    0.001465  -0.007768   0.023660   0.001935  -0.000166   0.001193
     4  C    0.000232  -0.001466   0.001935   0.060734  -0.048387  -0.001262
     5  C   -0.000155   0.002350  -0.000166  -0.048387   0.030902   0.001609
     6  C    0.000562  -0.012068   0.001193  -0.001262   0.001609   0.194176
     7  C    0.000002  -0.000242   0.000006  -0.000348  -0.000921   0.055846
     8  C   -0.000001   0.000123  -0.000001   0.000074  -0.000025  -0.022008
     9  Br   0.000000  -0.000000   0.000000  -0.000000   0.000001   0.000186
    10  C    0.000007  -0.000221  -0.000000  -0.000002  -0.000059   0.006780
    11  C    0.001818  -0.010367   0.000340  -0.000736   0.001041   0.001968
    12  C   -0.010369   0.072125  -0.006341   0.002386  -0.000646  -0.099001
    13  H   -0.000002   0.000058   0.000119  -0.002163   0.002135  -0.000004
    14  H   -0.000010   0.000433  -0.000610   0.003347  -0.002631  -0.000961
    15  H    0.000000  -0.000010  -0.000020   0.002680  -0.001378  -0.000316
    16  H   -0.000040   0.000980  -0.000451  -0.010399   0.010065  -0.008651
    17  H    0.000000  -0.000002  -0.000000   0.000049   0.000164  -0.000766
    18  H   -0.000000  -0.000001   0.000000  -0.000000   0.000000  -0.000012
    19  H   -0.000173   0.000157  -0.000003  -0.000006   0.000009   0.000074
               7          8          9         10         11         12
     1  O    0.000002  -0.000001   0.000000   0.000007   0.001818  -0.010369
     2  C   -0.000242   0.000123  -0.000000  -0.000221  -0.010367   0.072125
     3  O    0.000006  -0.000001   0.000000  -0.000000   0.000340  -0.006341
     4  C   -0.000348   0.000074  -0.000000  -0.000002  -0.000736   0.002386
     5  C   -0.000921  -0.000025   0.000001  -0.000059   0.001041  -0.000646
     6  C    0.055846  -0.022008   0.000186   0.006780   0.001968  -0.099001
     7  C   -0.042009  -0.073619   0.001113   0.000406   0.006898  -0.013905
     8  C   -0.073619   0.596835  -0.022607  -0.072296  -0.022690   0.014015
     9  Br   0.001113  -0.022607   0.016057   0.000917   0.000199  -0.000071
    10  C    0.000406  -0.072296   0.000917  -0.040093   0.053878  -0.013778
    11  C    0.006898  -0.022690   0.000199   0.053878   0.213799  -0.110301
    12  C   -0.013905   0.014015  -0.000071  -0.013778  -0.110301   0.416078
    13  H    0.000001  -0.000000   0.000000  -0.000000   0.000004  -0.000080
    14  H   -0.000071   0.000015  -0.000000  -0.000002  -0.000129   0.001383
    15  H   -0.000014   0.000019  -0.000000  -0.000000  -0.000014   0.000115
    16  H   -0.000903   0.000075  -0.000000  -0.000015   0.000031   0.002849
    17  H    0.001689  -0.000487   0.000141   0.000058  -0.000029   0.000022
    18  H    0.000044  -0.000548   0.000157   0.001655  -0.000748   0.000037
    19  H   -0.000037   0.000118  -0.000000  -0.001227   0.001987  -0.001493
              13         14         15         16         17         18
     1  O   -0.000002  -0.000010   0.000000  -0.000040   0.000000  -0.000000
     2  C    0.000058   0.000433  -0.000010   0.000980  -0.000002  -0.000001
     3  O    0.000119  -0.000610  -0.000020  -0.000451  -0.000000   0.000000
     4  C   -0.002163   0.003347   0.002680  -0.010399   0.000049  -0.000000
     5  C    0.002135  -0.002631  -0.001378   0.010065   0.000164   0.000000
     6  C   -0.000004  -0.000961  -0.000316  -0.008651  -0.000766  -0.000012
     7  C    0.000001  -0.000071  -0.000014  -0.000903   0.001689   0.000044
     8  C   -0.000000   0.000015   0.000019   0.000075  -0.000487  -0.000548
     9  Br   0.000000  -0.000000  -0.000000  -0.000000   0.000141   0.000157
    10  C   -0.000000  -0.000002  -0.000000  -0.000015   0.000058   0.001655
    11  C    0.000004  -0.000129  -0.000014   0.000031  -0.000029  -0.000748
    12  C   -0.000080   0.001383   0.000115   0.002849   0.000022   0.000037
    13  H   -0.001009  -0.000095  -0.000013   0.000356  -0.000000   0.000000
    14  H   -0.000095  -0.000865   0.000067  -0.000217   0.000003  -0.000000
    15  H   -0.000013   0.000067   0.000329  -0.001082   0.000045   0.000000
    16  H    0.000356  -0.000217  -0.001082   0.014777  -0.000076   0.000000
    17  H   -0.000000   0.000003   0.000045  -0.000076   0.000393   0.000000
    18  H    0.000000  -0.000000   0.000000   0.000000   0.000000   0.000256
    19  H    0.000000  -0.000001  -0.000000   0.000001  -0.000000   0.000137
              19
     1  O   -0.000173
     2  C    0.000157
     3  O   -0.000003
     4  C   -0.000006
     5  C    0.000009
     6  C    0.000074
     7  C   -0.000037
     8  C    0.000118
     9  Br  -0.000000
    10  C   -0.001227
    11  C    0.001987
    12  C   -0.001493
    13  H    0.000000
    14  H   -0.000001
    15  H   -0.000000
    16  H    0.000001
    17  H   -0.000000
    18  H    0.000137
    19  H   -0.008736
 Mulliken charges and spin densities:
               1          2
     1  O   -0.664357   0.140877
     2  C    0.845655   0.075174
     3  O   -0.700826   0.013360
     4  C    0.031742   0.006669
     5  C   -0.394826  -0.006090
     6  C   -0.078253   0.117345
     7  C   -0.141771  -0.066066
     8  C   -0.125782   0.396992
     9  Br  -0.225283  -0.003906
    10  C   -0.179091  -0.063992
    11  C   -0.155905   0.136951
    12  C   -0.280669   0.253025
    13  H    0.146396  -0.000694
    14  H    0.159320  -0.000345
    15  H    0.156126   0.000410
    16  H    0.179094   0.007300
    17  H    0.134748   0.001205
    18  H    0.141802   0.000979
    19  H    0.151882  -0.009193
 Sum of Mulliken charges =  -1.00000   1.00000
 Mulliken charges and spin densities with hydrogens summed into heavy atoms:
               1          2
     1  O   -0.664357   0.140877
     2  C    0.845655   0.075174
     3  O   -0.700826   0.013360
     4  C    0.337457   0.005629
     5  C   -0.059606   0.001620
     6  C   -0.078253   0.117345
     7  C   -0.007024  -0.064861
     8  C   -0.125782   0.396992
     9  Br  -0.225283  -0.003906
    10  C   -0.037289  -0.063013
    11  C   -0.004023   0.127758
    12  C   -0.280669   0.253025
 Electronic spatial extent (au):  <R**2>=           3444.6983
 Charge=             -1.0000 electrons
 Dipole moment (field-independent basis, Debye):
    X=              3.5962    Y=             -4.2647    Z=              0.6990  Tot=              5.6221
 Quadrupole moment (field-independent basis, Debye-Ang):
   XX=           -122.6803   YY=            -88.3534   ZZ=            -85.8634
   XY=             13.5084   XZ=             -2.2707   YZ=              1.2162
 Traceless Quadrupole moment (field-independent basis, Debye-Ang):
   XX=            -23.7146   YY=             10.6123   ZZ=             13.1023
   XY=             13.5084   XZ=             -2.2707   YZ=              1.2162
 Octapole moment (field-independent basis, Debye-Ang**2):
  XXX=            157.2834  YYY=            -14.4397  ZZZ=             -0.3647  XYY=             46.0278
  XXY=            -43.9569  XXZ=              7.1472  XZZ=             22.4642  YZZ=             -2.0329
  YYZ=              4.3227  XYZ=             -2.8078
 Hexadecapole moment (field-independent basis, Debye-Ang**3):
 XXXX=          -3480.2766 YYYY=           -771.4034 ZZZZ=           -122.6189 XXXY=            118.6571
 XXXZ=            -18.3360 YYYX=             22.1218 YYYZ=              2.8749 ZZZX=              3.3751
 ZZZY=             -4.1071 XXYY=           -694.2163 XXZZ=           -526.2887 YYZZ=           -153.1291
 XXYZ=             11.8444 YYXZ=             -9.8669 ZZXY=             -8.7766
 N-N= 9.150606069246D+02 E-N=-9.125638101491D+03  KE= 3.049816247624D+03
 There are a total of      433466 grid points.
 ElSum from          density=      112.9999944426
 ElSum from atomic densities=      111.9999912635
 Hirshfeld populations at iteration   1 (CA, CB, DipXYZ):
               1          2          3          4          5
     1  O    4.248846   4.114677   0.045543  -0.080897   0.015638
     2  C    2.983906   2.886718  -0.057564  -0.067247   0.014586
     3  O    4.101221   4.078752   0.124396  -0.019572   0.019092
     4  C    2.987994   2.980821  -0.004663   0.030156  -0.030094
     5  C    3.032802   3.022823  -0.019646   0.012747   0.022775
     6  C    3.075511   2.974085  -0.052970  -0.037816  -0.014552
     7  C    3.058268   3.040461   0.011569  -0.020126  -0.007868
     8  C    3.156439   2.917639   0.047218  -0.005376  -0.001554
     9  Br  17.607795  17.572229  -0.101528   0.017811  -0.000910
    10  C    3.057853   3.037306   0.017947   0.018292   0.001297
    11  C    3.098430   2.985813  -0.030648   0.019870  -0.006046
    12  C    3.145170   2.963423  -0.011581   0.007024  -0.015273
    13  H    0.489887   0.489760  -0.092644  -0.092162  -0.017754
    14  H    0.490912   0.489153   0.024753  -0.008980   0.127747
    15  H    0.491217   0.489695   0.046942  -0.117265   0.042211
    16  H    0.494561   0.487232  -0.034998  -0.012775  -0.130480
    17  H    0.493552   0.492470   0.043483  -0.133630  -0.016601
    18  H    0.492775   0.491498   0.078038   0.122115   0.016611
    19  H    0.492861   0.485443  -0.046450   0.137288   0.016722
       Tot  56.999997  55.999998  -0.012805  -0.230541   0.035548

 Dip from Atomic Chgs              1.427603  -1.447311   0.239455
         Total Dipole              1.414797  -1.677852   0.275003

 Hirshfeld charges, spin densities, dipoles, and CM5 charges using IRadAn=      5:
              Q-H        S-H        Dx         Dy         Dz        Q-CM5   
     1  O   -0.363523   0.134169   0.045543  -0.080897   0.015638  -0.407210
     2  C    0.129376   0.097187  -0.057564  -0.067247   0.014586   0.190488
     3  O   -0.179972   0.022469   0.124396  -0.019572   0.019092  -0.258658
     4  C    0.031185   0.007173  -0.004663   0.030156  -0.030094  -0.048069
     5  C   -0.055625   0.009979  -0.019646   0.012747   0.022775  -0.156287
     6  C   -0.049596   0.101426  -0.052970  -0.037816  -0.014552  -0.060738
     7  C   -0.098729   0.017806   0.011569  -0.020126  -0.007868  -0.150615
     8  C   -0.074078   0.238801   0.047218  -0.005376  -0.001554  -0.095257
     9  Br  -0.180024   0.035566  -0.101528   0.017811  -0.000910  -0.165308
    10  C   -0.095159   0.020548   0.017947   0.018292   0.001297  -0.149273
    11  C   -0.084243   0.112616  -0.030648   0.019870  -0.006046  -0.136308
    12  C   -0.108592   0.181747  -0.011581   0.007024  -0.015273  -0.109838
    13  H    0.020353   0.000126  -0.092644  -0.092162  -0.017754   0.084265
    14  H    0.019936   0.001759   0.024753  -0.008980   0.127747   0.083407
    15  H    0.019088   0.001522   0.046942  -0.117265   0.042211   0.075348
    16  H    0.018208   0.007329  -0.034998  -0.012775  -0.130480   0.075885
    17  H    0.013979   0.001082   0.043483  -0.133630  -0.016601   0.072258
    18  H    0.015726   0.001277   0.078038   0.122115   0.016611   0.073288
    19  H    0.021696   0.007418  -0.046450   0.137288   0.016722   0.082626
       Tot  -0.999994   0.999999  -0.012805  -0.230541   0.035548  -0.999994
 Hirshfeld charges and spin densities with hydrogens summed into heavy atoms:
              Q-H        S-H       Q-CM5   
     1  O   -0.363523   0.134169  -0.407210
     2  C    0.129376   0.097187   0.190488
     3  O   -0.179972   0.022469  -0.258658
     4  C    0.071474   0.009058   0.119603
     5  C   -0.018330   0.018829  -0.005053
     6  C   -0.049596   0.101426  -0.060738
     7  C   -0.084750   0.018888  -0.078357
     8  C   -0.074078   0.238801  -0.095257
     9  Br  -0.180024   0.035566  -0.165308
    10  C   -0.079433   0.021825  -0.075985
    11  C   -0.062547   0.120034  -0.053682
    12  C   -0.108592   0.181747  -0.109838
 
 EQQ= 0.940949638142E-01 EQD=-0.217405760032E-01 EDD= 0.927208116514E-05
 EQQ+QD+DD= 0.723636598922E-01
 
                          Isotropic Fermi Contact Couplings
        Atom                 a.u.       MegaHertz       Gauss      10(-4) cm-1
     1  O(17)              0.02675     -16.21774      -5.78689      -5.40965
     2  C(13)             -0.00089      -0.99879      -0.35639      -0.33316
     3  O(17)              0.00144      -0.87482      -0.31216      -0.29181
     4  C(13)              0.00144       1.62176       0.57868       0.54096
     5  C(13)             -0.00345      -3.88407      -1.38593      -1.29559
     6  C(13)              0.00920      10.34247       3.69045       3.44988
     7  C(13)             -0.01171     -13.15924      -4.69554      -4.38945
     8  C(13)              0.04377      49.20991      17.55932      16.41466
     9  Br(79)            -0.00208      -2.34183      -0.83562      -0.78115
    10  C(13)             -0.01182     -13.29326      -4.74336      -4.43415
    11  C(13)              0.00952      10.69749       3.81713       3.56830
    12  C(13)              0.01724      19.38643       6.91756       6.46662
    13  H(1)              -0.00022      -0.98919      -0.35297      -0.32996
    14  H(1)              -0.00018      -0.81365      -0.29033      -0.27140
    15  H(1)               0.00040       1.78667       0.63753       0.59597
    16  H(1)               0.00273      12.18289       4.34716       4.06378
    17  H(1)               0.00020       0.89618       0.31978       0.29893
    18  H(1)               0.00019       0.84900       0.30294       0.28319
    19  H(1)              -0.00196      -8.76147      -3.12631      -2.92251
 --------------------------------------------------------
       Center         ----  Spin Dipole Couplings  ----
                      3XX-RR        3YY-RR        3ZZ-RR
 --------------------------------------------------------
     1   Atom       -0.260232     -0.238713      0.498945
     2   Atom       -0.049713     -0.046668      0.096380
     3   Atom       -0.040884     -0.035101      0.075986
     4   Atom        0.002269      0.000845     -0.003113
     5   Atom        0.000041      0.004325     -0.004366
     6   Atom       -0.067917     -0.059966      0.127883
     7   Atom        0.015042      0.009584     -0.024626
     8   Atom       -0.189070     -0.198075      0.387145
     9   Atom       -0.265716     -0.017739      0.283456
    10   Atom        0.011363      0.011028     -0.022391
    11   Atom       -0.067364     -0.063556      0.130920
    12   Atom       -0.122524     -0.122720      0.245244
    13   Atom        0.000172      0.001990     -0.002162
    14   Atom       -0.000369      0.001196     -0.000827
    15   Atom       -0.002260      0.004859     -0.002599
    16   Atom       -0.000252      0.002821     -0.002569
    17   Atom        0.000953      0.003060     -0.004013
    18   Atom        0.001790      0.002415     -0.004205
    19   Atom       -0.005658      0.010528     -0.004870
 --------------------------------------------------------
                        XY            XZ            YZ
 --------------------------------------------------------
     1   Atom       -0.019387     -0.093287      0.173930
     2   Atom       -0.009833     -0.009295      0.032140
     3   Atom        0.007872      0.029067      0.029604
     4   Atom        0.000981     -0.004864      0.001129
     5   Atom        0.001223     -0.000524      0.001167
     6   Atom       -0.003084      0.001282     -0.031841
     7   Atom        0.005173     -0.003467      0.002986
     8   Atom       -0.001163     -0.013938     -0.078972
     9   Atom        0.039587     -0.020051     -0.040647
    10   Atom       -0.005618      0.002780      0.003218
    11   Atom        0.004446     -0.012443     -0.035179
    12   Atom        0.000015     -0.012055     -0.059573
    13   Atom        0.002632     -0.000441     -0.000247
    14   Atom        0.002298     -0.001828     -0.003553
    15   Atom        0.002199     -0.000131     -0.000215
    16   Atom        0.002399      0.001435      0.003656
    17   Atom       -0.000938     -0.000158      0.001402
    18   Atom        0.001505      0.000408      0.000845
    19   Atom       -0.006861     -0.001042      0.001482
 --------------------------------------------------------


 ---------------------------------------------------------------------------------
              Anisotropic Spin Dipole Couplings in Principal Axis System
 ---------------------------------------------------------------------------------

       Atom             a.u.   MegaHertz   Gauss  10(-4) cm-1        Axes

              Baa    -0.2780    20.115     7.178     6.710 -0.2162  0.9469 -0.2379
     1 O(17)  Bbb    -0.2711    19.618     7.000     6.544  0.9693  0.2373  0.0638
              Bcc     0.5491   -39.733   -14.178   -13.254 -0.1169  0.2168  0.9692
 
              Baa    -0.0598    -8.029    -2.865    -2.678  0.6330  0.7648 -0.1197
     2 C(13)  Bbb    -0.0442    -5.937    -2.119    -1.980  0.7707 -0.6082  0.1899
              Bcc     0.1041    13.967     4.984     4.659 -0.0725  0.2125  0.9745
 
              Baa    -0.0479     3.463     1.236     1.155  0.9691 -0.1576 -0.1898
     3 O(17)  Bbb    -0.0424     3.071     1.096     1.024  0.1040  0.9586 -0.2652
              Bcc     0.0903    -6.534    -2.331    -2.179  0.2237  0.2372  0.9453
 
              Baa    -0.0063    -0.843    -0.301    -0.281  0.5015 -0.2023  0.8412
     4 C(13)  Bbb     0.0011     0.152     0.054     0.051  0.0456  0.9771  0.2078
              Bcc     0.0052     0.692     0.247     0.231  0.8639  0.0659 -0.4993
 
              Baa    -0.0046    -0.620    -0.221    -0.207  0.1487 -0.1479  0.9778
     5 C(13)  Bbb    -0.0001    -0.018    -0.007    -0.006  0.9598 -0.2164 -0.1787
              Bcc     0.0048     0.639     0.228     0.213  0.2380  0.9650  0.1097
 
              Baa    -0.0697    -9.355    -3.338    -3.121  0.8461  0.5270  0.0794
     6 C(13)  Bbb    -0.0634    -8.512    -3.037    -2.839 -0.5329  0.8341  0.1424
              Bcc     0.1331    17.867     6.376     5.960  0.0088 -0.1628  0.9866
 
              Baa    -0.0253    -3.391    -1.210    -1.131  0.0979 -0.0994  0.9902
     7 C(13)  Bbb     0.0071     0.947     0.338     0.316 -0.4967  0.8573  0.1351
              Bcc     0.0182     2.444     0.872     0.815  0.8624  0.5051 -0.0346
 
              Baa    -0.2090   -28.046   -10.007    -9.355  0.1504  0.9796  0.1333
     8 C(13)  Bbb    -0.1889   -25.353    -9.047    -8.457  0.9884 -0.1521  0.0031
              Bcc     0.3979    53.399    19.054    17.812 -0.0233 -0.1313  0.9911
 
              Baa    -0.2722   -36.515   -13.029   -12.180  0.9884 -0.1498  0.0247
     9 Br(79) Bbb    -0.0178    -2.383    -0.850    -0.795  0.1449  0.9792  0.1418
              Bcc     0.2900    38.898    13.880    12.975 -0.0454 -0.1366  0.9896
 
              Baa    -0.0230    -3.089    -1.102    -1.031 -0.0979 -0.1096  0.9891
    10 C(13)  Bbb     0.0062     0.833     0.297     0.278  0.6914  0.7074  0.1468
              Bcc     0.0168     2.257     0.805     0.753  0.7158 -0.6983 -0.0065
 
              Baa    -0.0713    -9.569    -3.415    -3.192 -0.5795  0.8082  0.1049
    11 C(13)  Bbb    -0.0666    -8.937    -3.189    -2.981  0.8125  0.5630  0.1514
              Bcc     0.1379    18.507     6.604     6.173 -0.0633 -0.1730  0.9829
 
              Baa    -0.1325   -17.778    -6.344    -5.930  0.1907  0.9687  0.1589
    12 C(13)  Bbb    -0.1225   -16.443    -5.867    -5.485  0.9811 -0.1933  0.0008
              Bcc     0.2550    34.222    12.211    11.415 -0.0315 -0.1557  0.9873
 
              Baa    -0.0023    -1.215    -0.434    -0.405  0.3261 -0.1471  0.9338
    13 H(1)   Bbb    -0.0016    -0.866    -0.309    -0.289  0.7457 -0.5671 -0.3497
              Bcc     0.0039     2.081     0.743     0.694  0.5810  0.8104 -0.0753
 
              Baa    -0.0035    -1.874    -0.669    -0.625  0.0377  0.5901  0.8064
    14 H(1)   Bbb    -0.0019    -0.995    -0.355    -0.332  0.8897 -0.3872  0.2418
              Bcc     0.0054     2.869     1.024     0.957  0.4549  0.7084 -0.5396
 
              Baa    -0.0029    -1.547    -0.552    -0.516  0.9393 -0.2599  0.2238
    15 H(1)   Bbb    -0.0026    -1.383    -0.493    -0.461 -0.2074  0.0893  0.9742
              Bcc     0.0055     2.930     1.045     0.977  0.2732  0.9615 -0.0300
 
              Baa    -0.0044    -2.362    -0.843    -0.788 -0.0599 -0.4336  0.8991
    16 H(1)   Bbb    -0.0015    -0.800    -0.285    -0.267  0.9094 -0.3950 -0.1300
              Bcc     0.0059     3.163     1.128     1.055  0.4115  0.8099  0.4180
 
              Baa    -0.0043    -2.284    -0.815    -0.762 -0.0041 -0.1881  0.9821
    17 H(1)   Bbb     0.0006     0.330     0.118     0.110  0.9435  0.3246  0.0661
              Bcc     0.0037     1.954     0.697     0.652 -0.3312  0.9270  0.1761
 
              Baa    -0.0043    -2.305    -0.822    -0.769 -0.0377 -0.1162  0.9925
    18 H(1)   Bbb     0.0006     0.307     0.109     0.102  0.7829 -0.6207 -0.0429
              Bcc     0.0037     1.998     0.713     0.666  0.6210  0.7754  0.1144
 
              Baa    -0.0082    -4.398    -1.569    -1.467  0.9331  0.3297  0.1434
    19 H(1)   Bbb    -0.0050    -2.652    -0.946    -0.885 -0.1021 -0.1394  0.9850
              Bcc     0.0132     7.050     2.516     2.352 -0.3448  0.9337  0.0964
 

 ---------------------------------------------------------------------------------

 Running external command "gaunbo6 R"
         input file       "/home/rpaton/arbr500/xtb/fukui/Gau-2129498.EIn"
         output file      "/home/rpaton/arbr500/xtb/fukui/Gau-2129498.EOu"
         message file     "/home/rpaton/arbr500/xtb/fukui/Gau-2129498.EMs"
         fchk file        "/home/rpaton/arbr500/xtb/fukui/Gau-2129498.EFC"
         mat. el file     "/home/rpaton/arbr500/xtb/fukui/Gau-2129498.EUF"

 Writing WrtUnf unformatted file "/home/rpaton/arbr500/xtb/fukui/Gau-2129498.EUF"
 Gaussian matrix elements                                         Version   2 NLab=11 Len12L=8 Len4L=8
 Write SHELL TO ATOM MAP                   from file      0 offset           0 length                  82 to matrix element file.
 Write SHELL TYPES                         from file      0 offset           0 length                  82 to matrix element file.
 Write NUMBER OF PRIMITIVES PER SHELL      from file      0 offset           0 length                  82 to matrix element file.
 Write PRIMITIVE EXPONENTS                 from file      0 offset           0 length                 147 to matrix element file.
 Write CONTRACTION COEFFICIENTS            from file      0 offset           0 length                 147 to matrix element file.
 Write P(S=P) CONTRACTION COEFFICIENTS     from file      0 offset           0 length                 147 to matrix element file.
 Write COORDINATES OF EACH SHELL           from file      0 offset           0 length                 246 to matrix element file.
 Write BONDS PER ATOM                      from file      0 offset           0 length                  19 to matrix element file.
 Write BONDED ATOMS                        from file      0 offset           0 length                  40 to matrix element file.
 Write BOND TYPES                          from file      0 offset           0 length                  40 to matrix element file.
 Write ONIOM CHARGE/MULT                   from file      0 offset           0 length                  32 to matrix element file.
 Write ONIOM ATOM LAYERS                   from file      0 offset           0 length                  19 to matrix element file.
 Write ONIOM ATOM MODIFIERS                from file      0 offset           0 length                  19 to matrix element file.
 Write ONIOM ATOM TYPES                    from file      0 offset           0 length                  19 to matrix element file.
 Write ONIOM LINK ATOMS                    from file      0 offset           0 length                  19 to matrix element file.
 Write ONIOM LINK CHARGES                  from file      0 offset           0 length                  19 to matrix element file.
 Write ONIOM LINK DISTANCES                from file      0 offset           0 length                  76 to matrix element file.
 Write SYMINF INTS                         from file      0 offset           0 length                  26 to matrix element file.
 Write ROTTR TO SO                         from file      0 offset           0 length                  12 to matrix element file.
 Write GAUSSIAN SCALARS                    from file    501 offset           0 to matrix element file.
 Write OPTIMIZATION FLAGS                  from file      0 offset           0 length                  19 to matrix element file.
 Write INTEGER ISO                         from file      0 offset           0 length                  19 to matrix element file.
 Write INTEGER SPIN                        from file      0 offset           0 length                  19 to matrix element file.
 Write REAL ZEFFECTIVE                     from file      0 offset           0 length                  19 to matrix element file.
 Write REAL QUADRUPOLEMOMENT               from file      0 offset           0 length                  19 to matrix element file.
 Write REAL GFACTOR                        from file      0 offset           0 length                  19 to matrix element file.
 Write REAL ZNUCLEAR                       from file      0 offset           0 length                  19 to matrix element file.
 Write MULLIKEN CHARGES                    from file      0 offset           0 length                  19 to matrix element file.
 Write TYPE 6 CHARGES                      from file      0 offset           0 length                  19 to matrix element file.
 Write TYPE 7 CHARGES                      from file      0 offset           0 length                  19 to matrix element file.
 Write NUCLEAR GRADIENT                    from file  10584 offset           0 length                  57 to matrix element file.
 Array NUCLEAR FORCE CONSTANTS              on  file  10585 does not exist.
 Write ELECTRIC DIPOLE MOMENT              from file      0 offset           0 length                   3 to matrix element file.
 Write NON-ADIABATIC COUPLING              from file  10810 offset           0 length                  57 to matrix element file.
 Write FINITE EM FIELD                     from file  10521 offset           0 length                  35 to matrix element file.
 Write OVERLAP                             from file  10514 offset           0 length               11325 to matrix element file.
 Write CORE HAMILTONIAN ALPHA              from file  10515 offset           0 length               11325 to matrix element file.
 Write CORE HAMILTONIAN BETA               from file  10515 offset       11325 length               11325 to matrix element file.
 Write KINETIC ENERGY                      from file  10516 offset           0 length               11325 to matrix element file.
 Write ORTHOGONAL BASIS                    from file  10685 offset           0 length               22500 to matrix element file.
 Write DIPOLE INTEGRALS                    from file  10518 offset           0 length               33975 to matrix element file.
 Array DIP VEL INTEGRALS                    on  file  10572 does not exist.
 Array R X DEL INTEGRALS                    on  file  10572 does not exist.
 Write ALPHA ORBITAL ENERGIES              from file      0 offset           0 length                 150 to matrix element file.
 Write BETA ORBITAL ENERGIES               from file      0 offset           0 length                 150 to matrix element file.
 Write ALPHA MO COEFFICIENTS               from file  10524 offset           0 length               22500 to matrix element file.
 Write BETA MO COEFFICIENTS                from file  10526 offset           0 length               22500 to matrix element file.
 Write ALPHA DENSITY MATRIX                from file      0 offset           0 length               11325 to matrix element file.
 Write BETA DENSITY MATRIX                 from file      0 offset           0 length               11325 to matrix element file.
 Write ALPHA FOCK MATRIX                   from file  10536 offset           0 length               11325 to matrix element file.
 Write BETA FOCK MATRIX                    from file  10538 offset           0 length               11325 to matrix element file.
 Write ENERGY-WEIGHTED DENSITY             from file  10571 offset           0 length               11325 to matrix element file.
 Write ALPHA SCF DENSITY MATRIX            from file      0 offset           0 length               11325 to matrix element file.
 Write BETA SCF DENSITY MATRIX             from file      0 offset           0 length               11325 to matrix element file.
 No 2e integrals to process.
 Perform NBO analysis...

 *********************************** NBO 7.0 ***********************************
             N A T U R A L   A T O M I C   O R B I T A L   A N D
          N A T U R A L   B O N D   O R B I T A L   A N A L Y S I S
 **************************** Robert Paton (I101709) ***************************
  (c) Copyright 1996-2019 Board of Regents of the University of Wisconsin System
      on behalf of the Theoretical Chemistry Institute.  All rights reserved.

          Cite this program [NBO 7.0.5 (4-Jun-2019)] as:

          NBO 7.0.  E. D. Glendening, J. K. Badenhoop, A. E. Reed,
          J. E. Carpenter, J. A. Bohmann, C. M. Morales, P. Karafiloglou,
          C. R. Landis, and F. Weinhold, Theoretical Chemistry Institute,
          University of Wisconsin, Madison, WI (2018)

 Filename set to /home/rpaton/arbr500/xtb/fukui/Gau-2129498

 Job title:  energy: -35.070055548508 gnorm: 0.000457512137 xtb: 6.7.0 (08769fc)


 NATURAL POPULATIONS:  Natural atomic orbital occupancies

  NAO Atom No lang   Type(AO)    Occupancy     Spin
 -----------------------------------------------------
   1    O  1  s      Cor( 1s)     1.99989     0.00000
   2    O  1  s      Val( 2s)     1.68884     0.00248
   3    O  1  s      Ryd( 3s)     0.00093    -0.00001
   4    O  1  px     Val( 2p)     1.80767     0.00184
   5    O  1  px     Ryd( 3p)     0.00069     0.00000
   6    O  1  py     Val( 2p)     1.62430     0.00657
   7    O  1  py     Ryd( 3p)     0.00024     0.00001
   8    O  1  pz     Val( 2p)     1.50695     0.13310
   9    O  1  pz     Ryd( 3p)     0.00069     0.00036
  10    O  1  dxy    Ryd( 3d)     0.00411    -0.00001
  11    O  1  dxz    Ryd( 3d)     0.00084    -0.00004
  12    O  1  dyz    Ryd( 3d)     0.00358    -0.00011
  13    O  1  dx2y2  Ryd( 3d)     0.00442    -0.00001
  14    O  1  dz2    Ryd( 3d)     0.00181     0.00000

  15    C  2  s      Cor( 1s)     1.99983     0.00000
  16    C  2  s      Val( 2s)     0.76023     0.00011
  17    C  2  s      Ryd( 3s)     0.00511    -0.00002
  18    C  2  px     Val( 2p)     0.87893    -0.00284
  19    C  2  px     Ryd( 3p)     0.01422    -0.00009
  20    C  2  py     Val( 2p)     0.70220     0.00104
  21    C  2  py     Ryd( 3p)     0.01745    -0.00004
  22    C  2  pz     Val( 2p)     0.91046     0.08741
  23    C  2  pz     Ryd( 3p)     0.00324     0.00034

  24    O  3  s      Cor( 1s)     1.99985     0.00000
  25    O  3  s      Val( 2s)     1.59130     0.00014
  26    O  3  s      Ryd( 3s)     0.00165    -0.00002
  27    O  3  px     Val( 2p)     1.74756    -0.00086
  28    O  3  px     Ryd( 3p)     0.00140     0.00001
  29    O  3  py     Val( 2p)     1.39399     0.00072
  30    O  3  py     Ryd( 3p)     0.00022     0.00000
  31    O  3  pz     Val( 2p)     1.79777     0.01588
  32    O  3  pz     Ryd( 3p)     0.00088     0.00001
  33    O  3  dxy    Ryd( 3d)     0.00506    -0.00002
  34    O  3  dxz    Ryd( 3d)     0.00223    -0.00002
  35    O  3  dyz    Ryd( 3d)     0.00077     0.00004
  36    O  3  dx2y2  Ryd( 3d)     0.00170     0.00000
  37    O  3  dz2    Ryd( 3d)     0.00220    -0.00001

  38    C  4  s      Cor( 1s)     1.99977     0.00000
  39    C  4  s      Val( 2s)     1.02491     0.00069
  40    C  4  s      Ryd( 3s)     0.00169     0.00025
  41    C  4  px     Val( 2p)     1.08142     0.00292
  42    C  4  px     Ryd( 3p)     0.00414     0.00022
  43    C  4  py     Val( 2p)     0.86084    -0.00029
  44    C  4  py     Ryd( 3p)     0.00304    -0.00001
  45    C  4  pz     Val( 2p)     1.16046     0.00156
  46    C  4  pz     Ryd( 3p)     0.00123     0.00005

  47    C  5  s      Cor( 1s)     1.99976     0.00000
  48    C  5  s      Val( 2s)     1.02471    -0.00084
  49    C  5  s      Ryd( 3s)     0.00091     0.00011
  50    C  5  px     Val( 2p)     1.10123    -0.00032
  51    C  5  px     Ryd( 3p)     0.00262     0.00024
  52    C  5  py     Val( 2p)     1.18013    -0.00153
  53    C  5  py     Ryd( 3p)     0.00199     0.00005
  54    C  5  pz     Val( 2p)     1.21344    -0.00104
  55    C  5  pz     Ryd( 3p)     0.00072     0.00003

  56    C  6  s      Cor( 1s)     1.99989     0.00000
  57    C  6  s      Val( 2s)     0.82938     0.00322
  58    C  6  s      Ryd( 3s)     0.00106    -0.00001
  59    C  6  px     Val( 2p)     1.08419     0.00178
  60    C  6  px     Ryd( 3p)     0.00492     0.00002
  61    C  6  py     Val( 2p)     1.07397     0.00244
  62    C  6  py     Ryd( 3p)     0.00433    -0.00001
  63    C  6  pz     Val( 2p)     1.06320     0.10158
  64    C  6  pz     Ryd( 3p)     0.00199     0.00040

  65    C  7  s      Cor( 1s)     1.99985     0.00000
  66    C  7  s      Val( 2s)     0.91857    -0.00352
  67    C  7  s      Ryd( 3s)     0.00093     0.00003
  68    C  7  px     Val( 2p)     1.09680    -0.00538
  69    C  7  px     Ryd( 3p)     0.00564     0.00007
  70    C  7  py     Val( 2p)     1.18091    -0.00389
  71    C  7  py     Ryd( 3p)     0.00539     0.00003
  72    C  7  pz     Val( 2p)     1.06976    -0.01582
  73    C  7  pz     Ryd( 3p)     0.00143     0.00086

  74    C  8  s      Cor( 1s)     1.99989     0.00000
  75    C  8  s      Val( 2s)     0.90399     0.01469
  76    C  8  s      Ryd( 3s)     0.00056    -0.00001
  77    C  8  px     Val( 2p)     0.92882     0.01153
  78    C  8  px     Ryd( 3p)     0.00580    -0.00002
  79    C  8  py     Val( 2p)     1.11281     0.01197
  80    C  8  py     Ryd( 3p)     0.00653     0.00001
  81    C  8  pz     Val( 2p)     1.27149     0.29842
  82    C  8  pz     Ryd( 3p)     0.00167     0.00102

  83   Br  9  s      Cor( 3s)     2.00000     0.00000
  84   Br  9  s      Cor( 1s)     2.00000     0.00000
  85   Br  9  s      Cor( 2s)     1.99999     0.00000
  86   Br  9  s      Val( 4s)     1.86308     0.00041
  87   Br  9  s      Ryd( 5s)     0.00260     0.00011
  88   Br  9  px     Cor( 3p)     2.00000     0.00000
  89   Br  9  px     Cor( 2p)     1.99999     0.00000
  90   Br  9  px     Val( 4p)     1.22853    -0.01593
  91   Br  9  px     Ryd( 5p)     0.00302     0.00007
  92   Br  9  py     Cor( 3p)     2.00000     0.00000
  93   Br  9  py     Cor( 2p)     1.99999     0.00000
  94   Br  9  py     Val( 4p)     1.96795     0.00001
  95   Br  9  py     Ryd( 5p)     0.00122     0.00002
  96   Br  9  pz     Cor( 3p)     2.00000     0.00000
  97   Br  9  pz     Cor( 2p)     2.00000     0.00000
  98   Br  9  pz     Val( 4p)     1.97132     0.01621
  99   Br  9  pz     Ryd( 5p)     0.00094     0.00037
 100   Br  9  dxy    Cor( 3d)     1.99968     0.00000
 101   Br  9  dxy    Ryd( 4d)     0.00091     0.00000
 102   Br  9  dxz    Cor( 3d)     1.99988     0.00001
 103   Br  9  dxz    Ryd( 4d)     0.00415     0.00190
 104   Br  9  dyz    Cor( 3d)     1.99999     0.00000
 105   Br  9  dyz    Ryd( 4d)     0.00015     0.00004
 106   Br  9  dx2y2  Cor( 3d)     1.99944     0.00000
 107   Br  9  dx2y2  Ryd( 4d)     0.00425    -0.00006
 108   Br  9  dz2    Cor( 3d)     1.99980     0.00000
 109   Br  9  dz2    Ryd( 4d)     0.00150     0.00000

 110    C 10  s      Cor( 1s)     1.99986     0.00000
 111    C 10  s      Val( 2s)     0.93090    -0.00352
 112    C 10  s      Ryd( 3s)     0.00080     0.00003
 113    C 10  px     Val( 2p)     1.13709    -0.00413
 114    C 10  px     Ryd( 3p)     0.00599     0.00009
 115    C 10  py     Val( 2p)     1.14800    -0.00539
 116    C 10  py     Ryd( 3p)     0.00463     0.00003
 117    C 10  pz     Val( 2p)     1.06324    -0.01432
 118    C 10  pz     Ryd( 3p)     0.00141     0.00080

 119    C 11  s      Cor( 1s)     1.99984     0.00000
 120    C 11  s      Val( 2s)     0.92348     0.00359
 121    C 11  s      Ryd( 3s)     0.00083     0.00002
 122    C 11  px     Val( 2p)     1.08115     0.00126
 123    C 11  px     Ryd( 3p)     0.00663     0.00002
 124    C 11  py     Val( 2p)     1.18334     0.00415
 125    C 11  py     Ryd( 3p)     0.00512     0.00005
 126    C 11  pz     Val( 2p)     1.04470     0.11759
 127    C 11  pz     Ryd( 3p)     0.00174     0.00135

 128    C 12  s      Cor( 1s)     1.99988     0.00000
 129    C 12  s      Val( 2s)     0.85791     0.00596
 130    C 12  s      Ryd( 3s)     0.00182     0.00011
 131    C 12  px     Val( 2p)     1.11868     0.00083
 132    C 12  px     Ryd( 3p)     0.00436     0.00006
 133    C 12  py     Val( 2p)     1.10358     0.00494
 134    C 12  py     Ryd( 3p)     0.00331     0.00000
 135    C 12  pz     Val( 2p)     1.20311     0.20962
 136    C 12  pz     Ryd( 3p)     0.00206     0.00169

 137    H 13  s      Val( 1s)     0.78308    -0.00055
 138    H 13  s      Ryd( 2s)     0.00151    -0.00002

 139    H 14  s      Val( 1s)     0.78282     0.00023
 140    H 14  s      Ryd( 2s)     0.00268     0.00010

 141    H 15  s      Val( 1s)     0.75859     0.00031
 142    H 15  s      Ryd( 2s)     0.00162    -0.00003

 143    H 16  s      Val( 1s)     0.75182     0.00735
 144    H 16  s      Ryd( 2s)     0.00289     0.00044

 145    H 17  s      Val( 1s)     0.77379     0.00066
 146    H 17  s      Ryd( 2s)     0.00142     0.00001

 147    H 18  s      Val( 1s)     0.77047     0.00064
 148    H 18  s      Ryd( 2s)     0.00129     0.00000

 149    H 19  s      Val( 1s)     0.76266    -0.00456
 150    H 19  s      Ryd( 2s)     0.00358    -0.00003


 Summary of Natural Population Analysis:

                                     Natural Population                 Natural
             Natural    ---------------------------------------------    Spin
  Atom No    Charge        Core      Valence    Rydberg      Total      Density
 -------------------------------------------------------------------------------
    O  1   -0.64495      1.99989     6.62776    0.01730     8.64495     0.14419
    C  2    0.70833      1.99983     3.25182    0.04002     5.29167     0.08589
    O  3   -0.54656      1.99985     6.53061    0.01610     8.54656     0.01586
    C  4   -0.13750      1.99977     4.12763    0.01010     6.13750     0.00538
    C  5   -0.52550      1.99976     4.51951    0.00623     6.52550    -0.00330
    C  6   -0.06293      1.99989     4.05074    0.01230     6.06293     0.10943
    C  7   -0.27928      1.99985     4.26604    0.01338     6.27928    -0.02761
    C  8   -0.23156      1.99989     4.21711    0.01456     6.23156     0.33762
   Br  9   -0.04840     27.99877     7.03088    0.01875    35.04840     0.00316
    C 10   -0.29192      1.99986     4.27922    0.01283     6.29192    -0.02643
    C 11   -0.24682      1.99984     4.23266    0.01432     6.24682     0.12804
    C 12   -0.29471      1.99988     4.28328    0.01155     6.29471     0.22320
    H 13    0.21541      0.00000     0.78308    0.00151     0.78459    -0.00057
    H 14    0.21450      0.00000     0.78282    0.00268     0.78550     0.00033
    H 15    0.23979      0.00000     0.75859    0.00162     0.76021     0.00028
    H 16    0.24529      0.00000     0.75182    0.00289     0.75471     0.00779
    H 17    0.22480      0.00000     0.77379    0.00142     0.77520     0.00068
    H 18    0.22824      0.00000     0.77047    0.00129     0.77176     0.00065
    H 19    0.23376      0.00000     0.76266    0.00358     0.76624    -0.00459
 ===============================================================================
 * Total * -1.00000     49.99706    62.80050    0.20244   113.00000     1.00000

                                 Natural Population
 ---------------------------------------------------------
   Core                      49.99706 ( 99.9941% of   50)
   Valence                   62.80050 ( 99.6833% of   63)
   Natural Minimal Basis    112.79756 ( 99.8208% of  113)
   Natural Rydberg Basis      0.20244 (  0.1792% of  113)
 ---------------------------------------------------------

    Atom No         Natural Electron Configuration
 ----------------------------------------------------------------------------
      O  1      [core]2s( 1.69)2p( 4.94)3d( 0.01)
      C  2      [core]2s( 0.76)2p( 2.49)3s( 0.01)3p( 0.03)
      O  3      [core]2s( 1.59)2p( 4.94)3d( 0.01)
      C  4      [core]2s( 1.02)2p( 3.10)3p( 0.01)
      C  5      [core]2s( 1.02)2p( 3.49)3p( 0.01)
      C  6      [core]2s( 0.83)2p( 3.22)3p( 0.01)
      C  7      [core]2s( 0.92)2p( 3.35)3p( 0.01)
      C  8      [core]2s( 0.90)2p( 3.31)3p( 0.01)
     Br  9      [core]4s( 1.86)4p( 5.17)4d( 0.01)5p( 0.01)
      C 10      [core]2s( 0.93)2p( 3.35)3p( 0.01)
      C 11      [core]2s( 0.92)2p( 3.31)3p( 0.01)
      C 12      [core]2s( 0.86)2p( 3.43)3p( 0.01)
      H 13            1s( 0.78)
      H 14            1s( 0.78)
      H 15            1s( 0.76)
      H 16            1s( 0.75)
      H 17            1s( 0.77)
      H 18            1s( 0.77)
      H 19            1s( 0.76)


 ***************************************************
 *******         Alpha spin orbitals         *******
 ***************************************************


 NATURAL POPULATIONS:  Natural atomic orbital occupancies

  NAO Atom No lang   Type(AO)    Occupancy      Energy
 -------------------------------------------------------
   1    O  1  s      Cor( 1s)     0.99995     -18.91694
   2    O  1  s      Val( 2s)     0.84566      -0.53760
   3    O  1  s      Ryd( 3s)     0.00046       1.94242
   4    O  1  px     Val( 2p)     0.90475      -0.12195
   5    O  1  px     Ryd( 3p)     0.00035       2.07852
   6    O  1  py     Val( 2p)     0.81544      -0.13198
   7    O  1  py     Ryd( 3p)     0.00013       2.19767
   8    O  1  pz     Val( 2p)     0.82002      -0.11140
   9    O  1  pz     Ryd( 3p)     0.00052       1.89314
  10    O  1  dxy    Ryd( 3d)     0.00205       2.48417
  11    O  1  dxz    Ryd( 3d)     0.00040       2.10787
  12    O  1  dyz    Ryd( 3d)     0.00173       2.19448
  13    O  1  dx2y2  Ryd( 3d)     0.00221       2.46771
  14    O  1  dz2    Ryd( 3d)     0.00090       2.26390

  15    C  2  s      Cor( 1s)     0.99991     -10.15171
  16    C  2  s      Val( 2s)     0.38017       0.13932
  17    C  2  s      Ryd( 3s)     0.00255       0.92538
  18    C  2  px     Val( 2p)     0.43804       0.21530
  19    C  2  px     Ryd( 3p)     0.00706       1.21651
  20    C  2  py     Val( 2p)     0.35162       0.28522
  21    C  2  py     Ryd( 3p)     0.00871       1.28011
  22    C  2  pz     Val( 2p)     0.49893       0.05946
  23    C  2  pz     Ryd( 3p)     0.00179       1.09001

  24    O  3  s      Cor( 1s)     0.99992     -19.01447
  25    O  3  s      Val( 2s)     0.79572      -0.59727
  26    O  3  s      Ryd( 3s)     0.00081       2.06879
  27    O  3  px     Val( 2p)     0.87335      -0.21576
  28    O  3  px     Ryd( 3p)     0.00070       2.04204
  29    O  3  py     Val( 2p)     0.69735      -0.15378
  30    O  3  py     Ryd( 3p)     0.00011       2.35297
  31    O  3  pz     Val( 2p)     0.90682      -0.20817
  32    O  3  pz     Ryd( 3p)     0.00044       1.91965
  33    O  3  dxy    Ryd( 3d)     0.00252       2.48657
  34    O  3  dxz    Ryd( 3d)     0.00111       2.07521
  35    O  3  dyz    Ryd( 3d)     0.00041       2.16122
  36    O  3  dx2y2  Ryd( 3d)     0.00085       2.30551
  37    O  3  dz2    Ryd( 3d)     0.00109       2.21035

  38    C  4  s      Cor( 1s)     0.99988     -10.14975
  39    C  4  s      Val( 2s)     0.51280      -0.05396
  40    C  4  s      Ryd( 3s)     0.00097       1.21672
  41    C  4  px     Val( 2p)     0.54217       0.05045
  42    C  4  px     Ryd( 3p)     0.00218       1.16075
  43    C  4  py     Val( 2p)     0.43027       0.08069
  44    C  4  py     Ryd( 3p)     0.00151       1.13971
  45    C  4  pz     Val( 2p)     0.58101       0.02778
  46    C  4  pz     Ryd( 3p)     0.00064       1.13144

  47    C  5  s      Cor( 1s)     0.99988     -10.09754
  48    C  5  s      Val( 2s)     0.51194      -0.01632
  49    C  5  s      Ryd( 3s)     0.00051       1.32901
  50    C  5  px     Val( 2p)     0.55045       0.05355
  51    C  5  px     Ryd( 3p)     0.00143       1.15006
  52    C  5  py     Val( 2p)     0.58930       0.04113
  53    C  5  py     Ryd( 3p)     0.00102       1.13902
  54    C  5  pz     Val( 2p)     0.60620       0.02839
  55    C  5  pz     Ryd( 3p)     0.00038       1.19259

  56    C  6  s      Cor( 1s)     0.99994     -10.06940
  57    C  6  s      Val( 2s)     0.41630       0.15711
  58    C  6  s      Ryd( 3s)     0.00053       0.91567
  59    C  6  px     Val( 2p)     0.54299       0.14651
  60    C  6  px     Ryd( 3p)     0.00247       1.60898
  61    C  6  py     Val( 2p)     0.53820       0.14464
  62    C  6  py     Ryd( 3p)     0.00216       1.57996
  63    C  6  pz     Val( 2p)     0.58239       0.03897
  64    C  6  pz     Ryd( 3p)     0.00120       1.19701

  65    C  7  s      Cor( 1s)     0.99992     -10.06643
  66    C  7  s      Val( 2s)     0.45753       0.12359
  67    C  7  s      Ryd( 3s)     0.00048       0.88855
  68    C  7  px     Val( 2p)     0.54571       0.14762
  69    C  7  px     Ryd( 3p)     0.00286       1.21255
  70    C  7  py     Val( 2p)     0.58851       0.10320
  71    C  7  py     Ryd( 3p)     0.00271       1.49526
  72    C  7  pz     Val( 2p)     0.52697       0.04874
  73    C  7  pz     Ryd( 3p)     0.00114       1.11246

  74    C  8  s      Cor( 1s)     0.99995     -10.09274
  75    C  8  s      Val( 2s)     0.45934       0.04837
  76    C  8  s      Ryd( 3s)     0.00028       0.88139
  77    C  8  px     Val( 2p)     0.47018       0.06716
  78    C  8  px     Ryd( 3p)     0.00289       1.53677
  79    C  8  py     Val( 2p)     0.56239       0.11728
  80    C  8  py     Ryd( 3p)     0.00327       1.28104
  81    C  8  pz     Val( 2p)     0.78496      -0.04596
  82    C  8  pz     Ryd( 3p)     0.00135       1.12171

  83   Br  9  s      Cor( 3s)     1.00000     -21.71008
  84   Br  9  s      Cor( 1s)     1.00000    -449.73410
  85   Br  9  s      Cor( 2s)     1.00000     -79.71093
  86   Br  9  s      Val( 4s)     0.93174      -0.61789
  87   Br  9  s      Ryd( 5s)     0.00136       0.99180
  88   Br  9  px     Cor( 3p)     1.00000      -6.92115
  89   Br  9  px     Cor( 2p)     0.99999     -55.61267
  90   Br  9  px     Val( 4p)     0.60630      -0.09637
  91   Br  9  px     Ryd( 5p)     0.00154       0.87629
  92   Br  9  py     Cor( 3p)     1.00000      -6.90940
  93   Br  9  py     Cor( 2p)     1.00000     -55.60977
  94   Br  9  py     Val( 4p)     0.98398      -0.21351
  95   Br  9  py     Ryd( 5p)     0.00062       0.90590
  96   Br  9  pz     Cor( 3p)     1.00000      -6.90879
  97   Br  9  pz     Cor( 2p)     1.00000     -55.60961
  98   Br  9  pz     Val( 4p)     0.99376      -0.21544
  99   Br  9  pz     Ryd( 5p)     0.00066       0.87159
 100   Br  9  dxy    Cor( 3d)     0.99984      -2.61745
 101   Br  9  dxy    Ryd( 4d)     0.00046       1.07447
 102   Br  9  dxz    Cor( 3d)     0.99995      -2.61704
 103   Br  9  dxz    Ryd( 4d)     0.00302       0.87233
 104   Br  9  dyz    Cor( 3d)     1.00000      -2.60778
 105   Br  9  dyz    Ryd( 4d)     0.00009       0.79757
 106   Br  9  dx2y2  Cor( 3d)     0.99972      -2.61767
 107   Br  9  dx2y2  Ryd( 4d)     0.00210       1.14783
 108   Br  9  dz2    Cor( 3d)     0.99990      -2.61077
 109   Br  9  dz2    Ryd( 4d)     0.00075       0.91245

 110    C 10  s      Cor( 1s)     0.99993     -10.06318
 111    C 10  s      Val( 2s)     0.46369       0.11437
 112    C 10  s      Ryd( 3s)     0.00042       0.89642
 113    C 10  px     Val( 2p)     0.56648       0.13672
 114    C 10  px     Ryd( 3p)     0.00304       1.30950
 115    C 10  py     Val( 2p)     0.57130       0.11967
 116    C 10  py     Ryd( 3p)     0.00233       1.39940
 117    C 10  pz     Val( 2p)     0.52446       0.05209
 118    C 10  pz     Ryd( 3p)     0.00111       1.11092

 119    C 11  s      Cor( 1s)     0.99992     -10.05120
 120    C 11  s      Val( 2s)     0.46353       0.12988
 121    C 11  s      Ryd( 3s)     0.00042       0.90881
 122    C 11  px     Val( 2p)     0.54120       0.16809
 123    C 11  px     Ryd( 3p)     0.00332       1.29005
 124    C 11  py     Val( 2p)     0.59374       0.12423
 125    C 11  py     Ryd( 3p)     0.00259       1.50198
 126    C 11  pz     Val( 2p)     0.58115       0.04361
 127    C 11  pz     Ryd( 3p)     0.00155       1.11931

 128    C 12  s      Cor( 1s)     0.99994     -10.03745
 129    C 12  s      Val( 2s)     0.43193       0.16045
 130    C 12  s      Ryd( 3s)     0.00097       0.91570
 131    C 12  px     Val( 2p)     0.55975       0.13244
 132    C 12  px     Ryd( 3p)     0.00221       1.71906
 133    C 12  py     Val( 2p)     0.55426       0.16190
 134    C 12  py     Ryd( 3p)     0.00165       1.62082
 135    C 12  pz     Val( 2p)     0.70636       0.02056
 136    C 12  pz     Ryd( 3p)     0.00188       1.21154

 137    H 13  s      Val( 1s)     0.39127       0.22856
 138    H 13  s      Ryd( 2s)     0.00074       0.71254

 139    H 14  s      Val( 1s)     0.39152       0.22981
 140    H 14  s      Ryd( 2s)     0.00139       0.74753

 141    H 15  s      Val( 1s)     0.37945       0.23975
 142    H 15  s      Ryd( 2s)     0.00080       0.75464

 143    H 16  s      Val( 1s)     0.37959       0.24693
 144    H 16  s      Ryd( 2s)     0.00166       0.75784

 145    H 17  s      Val( 1s)     0.38722       0.27596
 146    H 17  s      Ryd( 2s)     0.00072       0.77743

 147    H 18  s      Val( 1s)     0.38556       0.28658
 148    H 18  s      Ryd( 2s)     0.00064       0.76642

 149    H 19  s      Val( 1s)     0.37905       0.31030
 150    H 19  s      Ryd( 2s)     0.00177       0.80058


 Summary of Natural Population Analysis:

                                     Natural Population
             Natural    ---------------------------------------------
  Atom No    Charge        Core      Valence    Rydberg      Total
 --------------------------------------------------------------------
    O  1   -0.39457      0.99995     3.38588    0.00875     4.39457
    C  2    0.31122      0.99991     1.66877    0.02010     2.68878
    O  3   -0.28121      0.99992     3.27324    0.00805     4.28121
    C  4   -0.07144      0.99988     2.06625    0.00530     3.07144
    C  5   -0.26110      0.99988     2.25789    0.00333     3.26110
    C  6   -0.08618      0.99994     2.07988    0.00636     3.08618
    C  7   -0.12583      0.99992     2.11872    0.00719     3.12583
    C  8   -0.28459      0.99995     2.27686    0.00779     3.28459
   Br  9   -0.02578     13.99939     3.51579    0.01060    17.52578
    C 10   -0.13274      0.99993     2.12592    0.00689     3.13274
    C 11   -0.18743      0.99992     2.17963    0.00788     3.18743
    C 12   -0.25895      0.99994     2.25231    0.00670     3.25895
    H 13    0.10799      0.00000     0.39127    0.00074     0.39201
    H 14    0.10708      0.00000     0.39152    0.00139     0.39292
    H 15    0.11976      0.00000     0.37945    0.00080     0.38024
    H 16    0.11875      0.00000     0.37959    0.00166     0.38125
    H 17    0.11206      0.00000     0.38722    0.00072     0.38794
    H 18    0.11380      0.00000     0.38556    0.00064     0.38620
    H 19    0.11918      0.00000     0.37905    0.00177     0.38082
 ====================================================================
 * Total * -1.00000     24.99854    31.89480    0.10667    57.00000

                                 Natural Population
 ---------------------------------------------------------
   Core                      24.99854 ( 99.9942% of   25)
   Valence                   31.89480 ( 99.6712% of   32)
   Natural Minimal Basis     56.89333 ( 99.8129% of   57)
   Natural Rydberg Basis      0.10667 (  0.1871% of   57)
 ---------------------------------------------------------

    Atom No         Natural Electron Configuration
 ----------------------------------------------------------------------------
      O  1      [core]2s( 0.85)2p( 2.54)3d( 0.01)
      C  2      [core]2s( 0.38)2p( 1.29)3p( 0.02)
      O  3      [core]2s( 0.80)2p( 2.48)3d( 0.01)
      C  4      [core]2s( 0.51)2p( 1.55)
      C  5      [core]2s( 0.51)2p( 1.75)
      C  6      [core]2s( 0.42)2p( 1.66)3p( 0.01)
      C  7      [core]2s( 0.46)2p( 1.66)3p( 0.01)
      C  8      [core]2s( 0.46)2p( 1.82)3p( 0.01)
     Br  9      [core]4s( 0.93)4p( 2.58)4d( 0.01)
      C 10      [core]2s( 0.46)2p( 1.66)3p( 0.01)
      C 11      [core]2s( 0.46)2p( 1.72)3p( 0.01)
      C 12      [core]2s( 0.43)2p( 1.82)3p( 0.01)
      H 13            1s( 0.39)
      H 14            1s( 0.39)
      H 15            1s( 0.38)
      H 16            1s( 0.38)
      H 17            1s( 0.39)
      H 18            1s( 0.39)
      H 19            1s( 0.38)


 NATURAL BOND ORBITAL ANALYSIS, alpha spin orbitals:

                            Occupancies       Lewis Structure    Low   High
         Max    Occ     -------------------  -----------------   occ   occ
  Cycle  Ctr   Thresh    Lewis   non-Lewis     CR  BD  nC  LP    (L)   (NL)
[...]
   46. BD ( 2) C  6- C 12      72. BD*( 2) C  7- C  8     16.98    0.35   0.097
   46. BD ( 2) C  6- C 12      77. BD*( 2) C 10- C 11     20.47    0.37   0.110
   46. BD ( 2) C  6- C 12     118. RY ( 4) C  7            0.55    1.22   0.033
   46. BD ( 2) C  6- C 12     139. RY ( 4) C 11            0.51    1.23   0.032
   47. BD ( 1) C  7- C  8      65. BD*( 1) C  5- C  6      1.29    1.21   0.050
   47. BD ( 1) C  7- C  8      68. BD*( 1) C  6- C  7      1.90    1.40   0.065
   47. BD ( 1) C  7- C  8      73. BD*( 1) C  7- H 17      1.07    1.26   0.046
   47. BD ( 1) C  7- C  8      75. BD*( 1) C  8- C 10      2.38    1.38   0.072
   47. BD ( 1) C  7- C  8      78. BD*( 1) C 10- H 18      0.89    1.27   0.042
   47. BD ( 1) C  7- C  8     112. RY ( 2) C  6            1.27    2.00   0.063
   47. BD ( 1) C  7- C  8     132. RY ( 1) C 10            0.62    2.03   0.045
   47. BD ( 1) C  7- C  8     133. RY ( 2) C 10            0.35    1.75   0.031
   48. BD ( 2) C  7- C  8      70. BD*( 2) C  6- C 12     18.47    0.42   0.111
   48. BD ( 2) C  7- C  8      77. BD*( 2) C 10- C 11     12.96    0.40   0.091
   48. BD ( 2) C  7- C  8     113. RY ( 3) C  6            0.31    1.31   0.026
   48. BD ( 2) C  7- C  8     123. RY ( 1)Br  9            0.77    0.98   0.035
   48. BD ( 2) C  7- C  8     135. RY ( 4) C 10            0.52    1.25   0.032
   49. BD ( 1) C  7- H 17      65. BD*( 1) C  5- C  6      0.29    1.09   0.023
   49. BD ( 1) C  7- H 17      68. BD*( 1) C  6- C  7      0.67    1.29   0.037
   49. BD ( 1) C  7- H 17      69. BD*( 1) C  6- C 12      1.33    1.28   0.052
   49. BD ( 1) C  7- H 17      71. BD*( 1) C  7- C  8      0.52    1.27   0.032
   49. BD ( 1) C  7- H 17      74. BD*( 1) C  8-Br  9      0.44    0.77   0.023
   49. BD ( 1) C  7- H 17      75. BD*( 1) C  8- C 10      1.23    1.27   0.050
   49. BD ( 1) C  7- H 17     111. RY ( 1) C  6            0.88    2.11   0.054
   49. BD ( 1) C  7- H 17     120. RY ( 2) C  8            0.85    1.97   0.052
   50. BD ( 1) C  8-Br  9      68. BD*( 1) C  6- C  7      1.01    1.34   0.046
   50. BD ( 1) C  8-Br  9      76. BD*( 1) C 10- C 11      0.93    1.34   0.045
   50. BD ( 1) C  8-Br  9     115. RY ( 1) C  7            1.09    2.01   0.059
   50. BD ( 1) C  8-Br  9     132. RY ( 1) C 10            1.04    1.96   0.057
   51. BD ( 1) C  8- C 10      71. BD*( 1) C  7- C  8      2.39    1.38   0.072
   51. BD ( 1) C  8- C 10      73. BD*( 1) C  7- H 17      0.94    1.26   0.043
   51. BD ( 1) C  8- C 10      76. BD*( 1) C 10- C 11      1.66    1.41   0.061
   51. BD ( 1) C  8- C 10      78. BD*( 1) C 10- H 18      1.00    1.27   0.045
   51. BD ( 1) C  8- C 10      80. BD*( 1) C 11- H 19      0.89    1.29   0.043
   51. BD ( 1) C  8- C 10     115. RY ( 1) C  7            0.31    2.08   0.032
   51. BD ( 1) C  8- C 10     116. RY ( 2) C  7            0.72    1.69   0.044
   51. BD ( 1) C  8- C 10     137. RY ( 2) C 11            1.36    1.85   0.063
   52. BD ( 1) C 10- C 11      60. BD*( 1) C  2- C 12      1.08    1.24   0.046
   52. BD ( 1) C 10- C 11      74. BD*( 1) C  8-Br  9      2.32    0.86   0.056
   52. BD ( 1) C 10- C 11      75. BD*( 1) C  8- C 10      1.90    1.36   0.064
   52. BD ( 1) C 10- C 11      78. BD*( 1) C 10- H 18      0.91    1.25   0.043
   52. BD ( 1) C 10- C 11      79. BD*( 1) C 11- C 12      1.75    1.39   0.062
   52. BD ( 1) C 10- C 11      80. BD*( 1) C 11- H 19      0.87    1.27   0.042
   52. BD ( 1) C 10- C 11     119. RY ( 1) C  8            0.76    1.78   0.046
   52. BD ( 1) C 10- C 11     120. RY ( 2) C  8            0.53    2.06   0.042
   52. BD ( 1) C 10- C 11     141. RY ( 2) C 12            1.18    2.08   0.063
   53. BD ( 2) C 10- C 11      70. BD*( 2) C  6- C 12     14.00    0.41   0.096
   53. BD ( 2) C 10- C 11      72. BD*( 2) C  7- C  8     21.82    0.37   0.114
   53. BD ( 2) C 10- C 11     121. RY ( 3) C  8            0.37    1.27   0.027
   53. BD ( 2) C 10- C 11     143. RY ( 4) C 12            0.29    1.35   0.025
   54. BD ( 1) C 10- H 18      71. BD*( 1) C  7- C  8      1.27    1.26   0.051
   54. BD ( 1) C 10- H 18      74. BD*( 1) C  8-Br  9      0.44    0.76   0.023
   54. BD ( 1) C 10- H 18      75. BD*( 1) C  8- C 10      0.48    1.26   0.031
   54. BD ( 1) C 10- H 18      76. BD*( 1) C 10- C 11      0.62    1.29   0.036
   54. BD ( 1) C 10- H 18      79. BD*( 1) C 11- C 12      1.18    1.29   0.049
   54. BD ( 1) C 10- H 18     120. RY ( 2) C  8            0.76    1.96   0.049
   54. BD ( 1) C 10- H 18     136. RY ( 1) C 11            0.55    1.88   0.041
   54. BD ( 1) C 10- H 18     137. RY ( 2) C 11            0.25    1.73   0.026
   55. BD ( 1) C 11- C 12      59. BD*( 1) C  2- O  3      1.02    1.14   0.043
   55. BD ( 1) C 11- C 12      60. BD*( 1) C  2- C 12      1.56    1.22   0.055
   55. BD ( 1) C 11- C 12      65. BD*( 1) C  5- C  6      1.13    1.17   0.046
   55. BD ( 1) C 11- C 12      69. BD*( 1) C  6- C 12      2.62    1.36   0.075
   55. BD ( 1) C 11- C 12      76. BD*( 1) C 10- C 11      1.61    1.37   0.059
   55. BD ( 1) C 11- C 12      78. BD*( 1) C 10- H 18      1.06    1.23   0.046
   55. BD ( 1) C 11- C 12      80. BD*( 1) C 11- H 19      0.93    1.25   0.043
   55. BD ( 1) C 11- C 12      90. RY ( 1) C  2            1.04    1.61   0.052
   55. BD ( 1) C 11- C 12     111. RY ( 1) C  6            0.65    2.18   0.047
   55. BD ( 1) C 11- C 12     112. RY ( 2) C  6            0.40    1.96   0.035
   55. BD ( 1) C 11- C 12     133. RY ( 2) C 10            1.12    1.71   0.055
   56. BD ( 1) C 11- H 19      60. BD*( 1) C  2- C 12      0.33    1.13   0.024
   56. BD ( 1) C 11- H 19      69. BD*( 1) C  6- C 12      1.53    1.26   0.055
   56. BD ( 1) C 11- H 19      75. BD*( 1) C  8- C 10      1.34    1.24   0.051
   56. BD ( 1) C 11- H 19      76. BD*( 1) C 10- C 11      0.56    1.27   0.034
   56. BD ( 1) C 11- H 19      79. BD*( 1) C 11- C 12      0.63    1.27   0.036
   56. BD ( 1) C 11- H 19     132. RY ( 1) C 10            0.64    1.89   0.044
   56. BD ( 1) C 11- H 19     140. RY ( 1) C 12            0.78    2.11   0.051


 NATURAL BOND ORBITALS (Summary):

                                                     Principal Delocalizations
           NBO                 Occupancy    Energy   (geminal,vicinal,remote)
 ===============================================================================
 Molecular unit  1  (C9H7O2Br)
 ------ Lewis --------------------------------------
    1. CR ( 1) O  1             0.99995   -18.91352  82(g)
    2. CR ( 1) C  2             0.99991   -10.15065
    3. CR ( 1) O  3             0.99992   -19.01402  94(g)
    4. CR ( 1) C  4             0.99988   -10.14967
    5. CR ( 1) C  5             0.99988   -10.09766
    6. CR ( 1) C  6             0.99994   -10.06782
    7. CR ( 1) C  7             0.99992   -10.06698
    8. CR ( 1) C  8             0.99995   -10.08781
    9. CR ( 1)Br  9             1.00000   -21.71005
   10. CR ( 2)Br  9             1.00000  -449.73410
   11. CR ( 3)Br  9             1.00000   -79.71092
   12. CR ( 4)Br  9             1.00000    -6.92127
   13. CR ( 5)Br  9             0.99999   -55.61274
   14. CR ( 6)Br  9             1.00000    -6.90939
   15. CR ( 7)Br  9             1.00000   -55.60977
   16. CR ( 8)Br  9             1.00000    -6.90861
   17. CR ( 9)Br  9             1.00000   -55.60949
   18. CR (10)Br  9             0.99984    -2.61751
   19. CR (11)Br  9             0.99993    -2.61694
   20. CR (12)Br  9             1.00000    -2.60770
   21. CR (13)Br  9             0.99972    -2.61772  125(g)
   22. CR (14)Br  9             0.99990    -2.61069
   23. CR ( 1) C 10             0.99993   -10.06372
   24. CR ( 1) C 11             0.99992   -10.04956
   25. CR ( 1) C 12             0.99994   -10.03456
   26. LP ( 1) O  1             0.98964    -0.42729  90(v),60(v),59(v)
   27. LP ( 2) O  1             0.91818    -0.11631  59(v),60(v),91(v),61(r)
   28. LP ( 1) O  3             0.97932    -0.38908  60(v),57(v),62(v),91(v)
                                                     63(v),103(v)
   29. LP ( 2) O  3             0.90739    -0.20712  58(v),64(v),62(v),57(v)
                                                     63(v),66(r)
   30. LP ( 1)Br  9             0.99885    -0.60281  120(v)
   31. LP ( 2)Br  9             0.99271    -0.21603  75(v),71(v),119(v)
   32. LP ( 3)Br  9             0.97755    -0.21029  72(v)
   33. BD ( 1) O  1- C  2       0.99796    -0.81303  60(g),61(v),69(v)
   34. BD ( 2) O  1- C  2       0.99053    -0.26193  70(v),58(g)
   35. BD ( 1) C  2- O  3       0.99714    -0.73374  103(v),79(v),63(v)
   36. BD ( 1) C  2- C 12       0.99063    -0.47824  69(g),79(g),68(v),136(v)
                                                     111(v),76(v),81(v),57(g)
                                                     95(v)
   37. BD ( 1) O  3- C  4       0.99457    -0.66627  57(v),91(v),66(v),92(v)
   38. BD ( 1) C  4- C  5       0.99397    -0.50102  68(v),65(g),70(v),112(v)
                                                     66(g),63(g),67(g)
   39. BD ( 1) C  4- H 13       0.99498    -0.45429  65(v),59(v)
   40. BD ( 1) C  4- H 14       0.99527    -0.44607  67(v),107(v),96(v)
   41. BD ( 1) C  5- C  6       0.98735    -0.47395  68(g),69(g),115(v),79(v)
                                                     140(v),63(v),71(v),62(g)
                                                     67(g),66(g),104(v),61(v)
                                                     147(v)
   42. BD ( 1) C  5- H 15       0.99028    -0.43140  61(v),69(v),70(v),65(g)
   43. BD ( 1) C  5- H 16       0.98753    -0.42012  70(v),64(v),65(g),113(v)
                                                     61(v)
   44. BD ( 1) C  6- C  7       0.98288    -0.51025  69(g),74(v),71(g),65(g)
                                                     60(v),119(v),73(g),140(v)
                                                     107(v),120(v)
   45. BD ( 1) C  6- C 12       0.98162    -0.49419  79(g),68(g),60(g),65(g)
                                                     73(v),136(v),80(v),57(v)
                                                     91(v),116(v),107(v),66(v)
                                                     115(v)
   46. BD ( 2) C  6- C 12       0.80513    -0.10866  77(v),72(v),58(v),67(v)
                                                     66(v),118(v),139(v),70(g)
                                                     63(r),62(v),59(v)
   47. BD ( 1) C  7- C  8       0.98857    -0.53139  75(g),68(g),65(v),112(v)
                                                     73(g),78(v),132(v),133(v)
   48. BD ( 2) C  7- C  8       0.84151    -0.14132  70(v),77(v),123(v),135(v)
                                                     113(v)
   49. BD ( 1) C  7- H 17       0.99114    -0.41668  69(v),75(v),111(v),120(v)
                                                     68(g),71(g),74(v),65(v)
   50. BD ( 1) C  8-Br  9       0.99463    -0.46471  115(v),132(v),68(v),76(v)
   51. BD ( 1) C  8- C 10       0.98894    -0.53001  71(g),76(g),137(v),78(g)
                                                     73(v),80(v),116(v),115(v)
   52. BD ( 1) C 10- C 11       0.98531    -0.50768  74(v),75(g),79(g),141(v)
                                                     60(v),78(g),80(g),119(v)
                                                     120(v)
   53. BD ( 2) C 10- C 11       0.84021    -0.13207  72(v),70(v),121(v),143(v)
   54. BD ( 1) C 10- H 18       0.99147    -0.41350  71(v),79(v),120(v),76(g)
                                                     136(v),75(g),74(v),137(v)
   55. BD ( 1) C 11- C 12       0.98425    -0.48981  69(g),76(g),60(g),65(v)
                                                     133(v),78(v),90(v),59(v)
                                                     80(g),111(v),112(v)
   56. BD ( 1) C 11- H 19       0.99087    -0.39277  69(v),75(v),140(v),132(v)
                                                     79(g),76(g),60(v)
 ------ non-Lewis ----------------------------------
   57. BD*( 1) O  1- C  2       0.00912     0.90880
   58. BD*( 2) O  1- C  2       0.10567     0.29025
   59. BD*( 1) C  2- O  3       0.05318     0.64730
   60. BD*( 1) C  2- C 12       0.03381     0.73369
   61. BD*( 1) O  3- C  4       0.01257     0.51280
   62. BD*( 1) C  4- C  5       0.01116     0.59420
   63. BD*( 1) C  4- H 13       0.00711     0.66401
   64. BD*( 1) C  4- H 14       0.01240     0.65251
   65. BD*( 1) C  5- C  6       0.01105     0.67649
   66. BD*( 1) C  5- H 15       0.00561     0.66342
   67. BD*( 1) C  5- H 16       0.00760     0.66214
   68. BD*( 1) C  6- C  7       0.01177     0.87089
   69. BD*( 1) C  6- C 12       0.01470     0.86816
   70. BD*( 2) C  6- C 12       0.17027     0.27897
   71. BD*( 1) C  7- C  8       0.01091     0.85064
   72. BD*( 2) C  7- C  8       0.18601     0.24244
   73. BD*( 1) C  7- H 17       0.00655     0.72772
   74. BD*( 1) C  8-Br  9       0.01421     0.35142
   75. BD*( 1) C  8- C 10       0.01140     0.84875
   76. BD*( 1) C 10- C 11       0.00822     0.87903
   77. BD*( 2) C 10- C 11       0.15905     0.26011
   78. BD*( 1) C 10- H 18       0.00622     0.73903
   79. BD*( 1) C 11- C 12       0.01097     0.87818
   80. BD*( 1) C 11- H 19       0.00737     0.76003
   81. RY ( 1) O  1             0.00041     1.96805
   82. RY ( 2) O  1             0.00028     2.38116
   83. RY ( 3) O  1             0.00018     1.87142
   84. RY ( 4) O  1             0.00005     2.70955
   85. RY ( 5) O  1             0.00002     2.24980
   86. RY ( 6) O  1             0.00001     2.08461
   87. RY ( 7) O  1             0.00001     2.10094
   88. RY ( 8) O  1             0.00000     2.14599
   89. RY ( 9) O  1             0.00000     2.17539
   90. RY ( 1) C  2             0.00856     1.12362
   91. RY ( 2) C  2             0.00590     1.23225
   92. RY ( 3) C  2             0.00088     1.05107
   93. RY ( 4) C  2             0.00027     1.09592
   94. RY ( 1) O  3             0.00100     2.04737
   95. RY ( 2) O  3             0.00061     2.13078
   96. RY ( 3) O  3             0.00047     1.96661
   97. RY ( 4) O  3             0.00014     2.16260
   98. RY ( 5) O  3             0.00012     2.48573
   99. RY ( 6) O  3             0.00007     2.40522
  100. RY ( 7) O  3             0.00002     2.11925
  101. RY ( 8) O  3             0.00001     2.21898
  102. RY ( 9) O  3             0.00001     2.09741
  103. RY ( 1) C  4             0.00151     1.06268
  104. RY ( 2) C  4             0.00108     1.29051
  105. RY ( 3) C  4             0.00035     1.13496
  106. RY ( 4) C  4             0.00018     1.15403
  107. RY ( 1) C  5             0.00136     1.25879
  108. RY ( 2) C  5             0.00057     1.12433
  109. RY ( 3) C  5             0.00034     1.21104
  110. RY ( 4) C  5             0.00012     1.21137
  111. RY ( 1) C  6             0.00238     1.69329
  112. RY ( 2) C  6             0.00210     1.46537
  113. RY ( 3) C  6             0.00088     1.16782
  114. RY ( 4) C  6             0.00024     0.98953
  115. RY ( 1) C  7             0.00253     1.54759
  116. RY ( 2) C  7             0.00189     1.15927
  117. RY ( 3) C  7             0.00028     0.88501
  118. RY ( 4) C  7             0.00016     1.10648
  119. RY ( 1) C  8             0.00265     1.27493
  120. RY ( 2) C  8             0.00237     1.55103
  121. RY ( 3) C  8             0.00027     1.13972
  122. RY ( 4) C  8             0.00021     0.88779
  123. RY ( 1)Br  9             0.00119     0.84007
  124. RY ( 2)Br  9             0.00052     0.89793
  125. RY ( 3)Br  9             0.00030     1.24199
  126. RY ( 4)Br  9             0.00018     1.00570
  127. RY ( 5)Br  9             0.00005     1.07890
  128. RY ( 6)Br  9             0.00003     0.79580
  129. RY ( 7)Br  9             0.00002     0.82322
  130. RY ( 8)Br  9             0.00001     0.90502
  131. RY ( 9)Br  9             0.00000     0.85394
  132. RY ( 1) C 10             0.00238     1.49646
  133. RY ( 2) C 10             0.00169     1.21550
  134. RY ( 3) C 10             0.00022     0.88943
  135. RY ( 4) C 10             0.00014     1.10584
  136. RY ( 1) C 11             0.00291     1.46919
  137. RY ( 2) C 11             0.00191     1.31926
  138. RY ( 3) C 11             0.00021     0.91783
  139. RY ( 4) C 11             0.00011     1.11765
  140. RY ( 1) C 12             0.00218     1.71653
  141. RY ( 2) C 12             0.00155     1.56967
  142. RY ( 3) C 12             0.00065     0.98679
  143. RY ( 4) C 12             0.00015     1.21979
  144. RY ( 1) H 13             0.00077     0.71142
  145. RY ( 1) H 14             0.00130     0.74398
  146. RY ( 1) H 15             0.00083     0.75371
  147. RY ( 1) H 16             0.00123     0.75479
  148. RY ( 1) H 17             0.00070     0.77605
  149. RY ( 1) H 18             0.00064     0.76509
  150. RY ( 1) H 19             0.00182     0.79825
          -------------------------------
                 Total Lewis   55.04892  ( 98.3016%)
           Valence non-Lewis    0.88692  (  1.5838%)
           Rydberg non-Lewis    0.06416  (  0.1146%)
          -------------------------------
               Total unit  1   56.00000  (100.0000%)
              Charge unit  1    0.00000

 $CHOOSE
  ALPHA
   LONE 1 3 3 2 8 1 9 3 END
   BOND S 1 2 S 2 3 D 2 12 S 3 4 S 4 5 S 4 13 S 4 14 S 5 6 S 5 15 S 5 16 D 6 7
        S 6 12 S 7 8 S 7 17 S 8 9 S 8 10 D 10 11 S 10 18 S 11 12 S 11 19 END
  END
  BETA
   LONE 1 2 3 2 9 3 END
   BOND D 1 2 S 2 3 S 2 12 S 3 4 S 4 5 S 4 13 S 4 14 S 5 6 S 5 15 S 5 16 S 6 7
        D 6 12 D 7 8 S 7 17 S 8 9 S 8 10 D 10 11 S 10 18 S 11 12 S 11 19 END
  END
 $END

 NBO analysis completed in 1.24 CPU seconds (2 wall seconds)
 Maximum scratch memory used by NBO was 645272 words (4.92 MB)
 Maximum scratch memory used by G16NBO was 54153 words (0.41 MB)

 Opening RunExU unformatted file "/home/rpaton/arbr500/xtb/fukui/Gau-2129498.EUF"
 Read unf file /home/rpaton/arbr500/xtb/fukui/Gau-2129498.EUF:
 Label Gaussian matrix elements                                         IVers= 2 NLab= 2 Version=ES64L-G16RevC.01
 Title energy: -35.070055548508 gnorm: 0.000457512137 xtb: 6.7.0 (08769
 NAtoms=    19 NBasis=   150 NBsUse=   150 ICharg=    -1 Multip=     2 NE=   113 Len12L=8 Len4L=8 IOpCl= 1 ICGU=112
 GAUSSIAN SCALARS                    NI= 1 NR= 1 NTot=       1 LenBuf=    2 NRI=1 N=    1000
 NPA CHARGES                         NI= 0 NR= 1 NTot=      19 LenBuf= 2048 NRI=1 N=      19
 Recovered energy= -3056.62251218     dipole=      1.414838957281     -1.677843389581      0.274991418953
 Unable to Open any file for archive entry.
 1\1\GINC-DYNAMO\SP\UwB97XD\MIDIx\C9H7Br1O2(1-,2)\RPATON\28-Sep-2024\0\
 \# wb97xd midix pop(nbo6,hirshfeld)\\energy: -35.070055548508 gnorm: 0
 .000457512137 xtb: 6.7.0 (08769fc)\\-1,2\O,0,-3.33889,1.85455,-0.33796
 \C,0,-2.85947,0.77816,-0.09683\O,0,-3.66348,-0.28242,0.09138\C,0,-3.10
 018,-1.52289,0.4877\C,0,-1.85316,-1.87059,-0.31733\C,0,-0.87546,-0.745
 57,-0.15666\C,0,0.49606,-0.93657,-0.14091\C,0,1.33237,0.15731,0.01155\
 Br,0,3.214,-0.11756,0.03938\C,0,0.83095,1.44322,0.14733\C,0,-0.53656,1
 .63232,0.12371\C,0,-1.39205,0.54475,-0.02317\H,0,-3.89463,-2.25732,0.3
 3918\H,0,-2.85292,-1.47691,1.55712\H,0,-1.43314,-2.81418,0.03055\H,0,-
 2.11605,-1.97998,-1.37409\H,0,0.90922,-1.9283,-0.24618\H,0,1.50261,2.2
 7914,0.26412\H,0,-0.96315,2.61914,0.21545\\Version=ES64L-G16RevC.01\St
 ate=2-A\HF=-3056.6225122\S2=0.76375\S2-1=0.\S2A=0.750105\RMSD=9.428e-0
 9\Dipole=1.4167477,-1.6710666,0.304812\Quadrupole=-17.6525365,7.958981
 8,9.6935547,9.9556604,-1.9951705,0.9887736\PG=C01 [X(C9H7Br1O2)]\\@
 The archive entry for this job was punched.


 EDUCATION WITHOUT COMMON SENSE IS A LOAD OF BOOKS ON THE BACK OF AN ASS.
 Job cpu time:       0 days  0 hours  9 minutes 25.2 seconds.
 Elapsed time:       0 days  0 hours  0 minutes 23.8 seconds.
 File lengths (MBytes):  RWF=     27 Int=      0 D2E=      0 Chk=      3 Scr=      1
 Normal termination of Gaussian 16 at Sat Sep 28 18:59:16 2024.
