 Entering Gaussian System, Link 0=/usr/local/Gaussian/G16C/g16/g16
 Input=arbr37_xtbopt_oxd.com
 Output=arbr37_xtbopt_oxd.log
 Initial command:
 /usr/local/Gaussian/G16C/g16/l1.exe "/home/rpaton/arbr500/xtb/fukui/Gau-2142226.inp" -scrdir="/home/rpaton/arbr500/xtb/fukui/"
 Entering Link 1 = /usr/local/Gaussian/G16C/g16/l1.exe PID=   2142227.
  
 Copyright (c) 1988-2019, Gaussian, Inc.  All Rights Reserved.
  
 This is part of the Gaussian(R) 16 program.  It is based on
 the Gaussian(R) 09 system (copyright 2009, Gaussian, Inc.),
 the Gaussian(R) 03 system (copyright 2003, Gaussian, Inc.),
 the Gaussian(R) 98 system (copyright 1998, Gaussian, Inc.),
 the Gaussian(R) 94 system (copyright 1995, Gaussian, Inc.),
 the Gaussian 92(TM) system (copyright 1992, Gaussian, Inc.),
 the Gaussian 90(TM) system (copyright 1990, Gaussian, Inc.),
 the Gaussian 88(TM) system (copyright 1988, Gaussian, Inc.),
 the Gaussian 86(TM) system (copyright 1986, Carnegie Mellon
 University), and the Gaussian 82(TM) system (copyright 1983,
 Carnegie Mellon University). Gaussian is a federally registered
 trademark of Gaussian, Inc.
  
 This software contains proprietary and confidential information,
 including trade secrets, belonging to Gaussian, Inc.
  
 This software is provided under written license and may be
 used, copied, transmitted, or stored only in accord with that
 written license.
  
 The following legend is applicable only to US Government
 contracts under FAR:
  
                    RESTRICTED RIGHTS LEGEND
  
 Use, reproduction and disclosure by the US Government is
 subject to restrictions as set forth in subparagraphs (a)
 and (c) of the Commercial Computer Software - Restricted
 Rights clause in FAR 52.227-19.
  
 Gaussian, Inc.
 340 Quinnipiac St., Bldg. 40, Wallingford CT 06492
  
  
 ---------------------------------------------------------------
 Warning -- This program may not be used in any manner that
 competes with the business of Gaussian, Inc. or will provide
 assistance to any competitor of Gaussian, Inc.  The licensee
 of this program is prohibited from giving any competitor of
 Gaussian, Inc. access to this program.  By using this program,
 the user acknowledges that Gaussian, Inc. is engaged in the
 business of creating and licensing software in the field of
 computational chemistry and represents and warrants to the
 licensee that it is not a competitor of Gaussian, Inc. and that
 it will not use this program in any manner prohibited above.
 ---------------------------------------------------------------
  

 Cite this work as:
 Gaussian 16, Revision C.01,
 M. J. Frisch, G. W. Trucks, H. B. Schlegel, G. E. Scuseria, 
 M. A. Robb, J. R. Cheeseman, G. Scalmani, V. Barone, 
 G. A. Petersson, H. Nakatsuji, X. Li, M. Caricato, A. V. Marenich, 
 J. Bloino, B. G. Janesko, R. Gomperts, B. Mennucci, H. P. Hratchian, 
 J. V. Ortiz, A. F. Izmaylov, J. L. Sonnenberg, D. Williams-Young, 
 F. Ding, F. Lipparini, F. Egidi, J. Goings, B. Peng, A. Petrone, 
 T. Henderson, D. Ranasinghe, V. G. Zakrzewski, J. Gao, N. Rega, 
 G. Zheng, W. Liang, M. Hada, M. Ehara, K. Toyota, R. Fukuda, 
 J. Hasegawa, M. Ishida, T. Nakajima, Y. Honda, O. Kitao, H. Nakai, 
 T. Vreven, K. Throssell, J. A. Montgomery, Jr., J. E. Peralta, 
 F. Ogliaro, M. J. Bearpark, J. J. Heyd, E. N. Brothers, K. N. Kudin, 
 V. N. Staroverov, T. A. Keith, R. Kobayashi, J. Normand, 
 K. Raghavachari, A. P. Rendell, J. C. Burant, S. S. Iyengar, 
 J. Tomasi, M. Cossi, J. M. Millam, M. Klene, C. Adamo, R. Cammi, 
 J. W. Ochterski, R. L. Martin, K. Morokuma, O. Farkas, 
 J. B. Foresman, and D. J. Fox, Gaussian, Inc., Wallingford CT, 2019.
 
 ******************************************
 Gaussian 16:  ES64L-G16RevC.01  3-Jul-2019
                28-Sep-2024 
 ******************************************
 %nprocshared=24
 Will use up to   24 processors via shared memory.
 ----------------------------------
 # wb97xd midix pop(nbo6,hirshfeld)
 ----------------------------------
 1/38=1,172=1/1;
 2/12=2,17=6,18=5,40=1/2;
 3/5=20,11=2,25=1,30=1,74=-58/1,2,3;
 4//1;
 5/5=2,38=5/2;
 6/7=2,8=2,9=2,10=2,28=1,40=1,79=1,113=1,114=1,124=3103,126=1/1,12;
 99/5=1,9=1/99;
 -------------------------------------------------------------------
 energy: -26.906191220599 gnorm: 0.000555879614 xtb: 6.7.0 (08769fc)
 -------------------------------------------------------------------
 Symbolic Z-matrix:
 Charge =  1 Multiplicity = 2
 Br                   -2.64822  -0.20666   0. 
 C                    -0.77531   0.16473  -0.00001 
 C                    -0.35488   1.48639   0. 
 C                     0.99834   1.77915   0.00001 
 C                     1.90759   0.73246   0.00001 
 C                     1.46155  -0.6007    0. 
 C                     0.11683  -0.89876   0. 
 C                     2.6502   -1.50914   0. 
 C                     3.7932   -0.54132   0.00001 
 C                     3.35613   0.72312   0.00001 
 H                    -1.08639   2.28009   0. 
 H                     1.33235   2.80574   0.00001 
 H                    -0.24034  -1.91759   0. 
 H                     2.66891  -2.15785  -0.87911 
 H                     2.66891  -2.15785   0.87911 
 H                     4.81771  -0.86782   0.00001 
 H                     3.95869   1.61368   0.00002 
 
                          Input orientation:                          
 ---------------------------------------------------------------------
 Center     Atomic      Atomic             Coordinates (Angstroms)
 Number     Number       Type             X           Y           Z
 ---------------------------------------------------------------------
      1         35           0       -2.648220   -0.206660    0.000000
      2          6           0       -0.775310    0.164730   -0.000010
      3          6           0       -0.354880    1.486390    0.000000
      4          6           0        0.998340    1.779150    0.000010
      5          6           0        1.907590    0.732460    0.000010
      6          6           0        1.461550   -0.600700    0.000000
      7          6           0        0.116830   -0.898760    0.000000
      8          6           0        2.650200   -1.509140    0.000000
      9          6           0        3.793200   -0.541320    0.000010
     10          6           0        3.356130    0.723120    0.000010
     11          1           0       -1.086390    2.280090    0.000000
     12          1           0        1.332350    2.805740    0.000010
     13          1           0       -0.240340   -1.917590    0.000000
     14          1           0        2.668910   -2.157850   -0.879110
     15          1           0        2.668910   -2.157850    0.879110
     16          1           0        4.817710   -0.867820    0.000010
     17          1           0        3.958690    1.613680    0.000020
 ---------------------------------------------------------------------
                    Distance matrix (angstroms):
                    1          2          3          4          5
     1  Br   0.000000
     2  C    1.909377   0.000000
     3  C    2.850584   1.386920   0.000000
     4  C    4.152209   2.398372   1.384526   0.000000
     5  C    4.651597   2.742311   2.384781   1.386469   0.000000
     6  C    4.128617   2.364197   2.766833   2.424510   1.405798
     7  C    2.850352   1.388137   2.431348   2.819266   2.422334
     8  C    5.456162   3.812605   4.243077   3.679877   2.361406
     9  C    6.450108   4.622747   4.617161   3.632606   2.275531
    10  C    6.075912   4.169004   3.788691   2.583481   1.448570
    11  H    2.936535   2.138111   1.079382   2.144071   3.370323
    12  H    4.991943   3.378929   2.141829   1.079560   2.151602
    13  H    2.953839   2.149942   3.405907   3.898745   3.411212
    14  H    5.731653   4.246157   4.816288   4.366191   3.115502
    15  H    5.731653   4.246161   4.816288   4.366187   3.115496
    16  H    7.495148   5.687533   5.683132   4.646938   3.321098
    17  H    6.853094   4.950779   4.315448   2.964971   2.232389
                    6          7          8          9         10
     6  C    0.000000
     7  C    1.377357   0.000000
     8  C    1.496045   2.605864   0.000000
     9  C    2.332406   3.693705   1.497706   0.000000
    10  C    2.311262   3.622645   2.341222   1.337849   0.000000
    11  H    3.845900   3.398945   5.321689   5.636555   4.707456
    12  H    3.408889   3.898822   4.511642   4.154346   2.903961
    13  H    2.151890   1.079623   2.919256   4.261873   4.461832
    14  H    2.157607   2.978465   1.092707   2.156397   3.089516
    15  H    2.157607   2.978465   1.092707   2.156389   3.089511
    16  H    3.366773   4.700982   2.260396   1.075278   2.160395
    17  H    3.337542   4.590451   3.385875   2.161345   1.075256
                   11         12         13         14         15
    11  H    0.000000
    12  H    2.475199   0.000000
    13  H    4.282093   4.978273   0.000000
    14  H    5.879662   5.215024   3.048655   0.000000
    15  H    5.879662   5.215020   3.048655   1.758220   0.000000
    16  H    6.690869   5.063870   5.165838   2.656007   2.656000
    17  H    5.088903   2.884210   5.486504   4.081769   4.081761
                   16         17
    16  H    0.000000
    17  H    2.625977   0.000000
 Stoichiometry    C9H7Br(1+,2)
 Framework group  C1[X(C9H7Br)]
 Deg. of freedom    45
 Full point group                 C1      NOp   1
 Largest Abelian subgroup         C1      NOp   1
 Largest concise Abelian subgroup C1      NOp   1
                         Standard orientation:                         
 ---------------------------------------------------------------------
 Center     Atomic      Atomic             Coordinates (Angstroms)
 Number     Number       Type             X           Y           Z
 ---------------------------------------------------------------------
      1         35           0        2.651444   -0.216393    0.000002
      2          6           0        0.779346    0.159068    0.000012
      3          6           0        0.361790    1.481639    0.000002
      4          6           0       -0.990790    1.777341   -0.000008
      5          6           0       -1.902314    0.732631   -0.000008
      6          6           0       -1.459173   -0.601496    0.000002
      7          6           0       -0.115105   -0.902479    0.000002
      8          6           0       -2.649796   -1.507349    0.000002
      9          6           0       -3.790689   -0.537046   -0.000008
     10          6           0       -3.350870    0.726440   -0.000008
     11          1           0        1.095025    2.273747    0.000002
     12          1           0       -1.322567    2.804655   -0.000008
     13          1           0        0.239849   -1.922084    0.000002
     14          1           0       -2.669916   -2.156017    0.879112
     15          1           0       -2.669916   -2.156017   -0.879108
     16          1           0       -4.815906   -0.861318   -0.000008
     17          1           0       -3.951493    1.618309   -0.000018
 ---------------------------------------------------------------------
 Rotational constants (GHZ):           3.2217622           0.4649554           0.4073372
 Standard basis: MIDIx (5D, 7F)
 There are   124 symmetry adapted cartesian basis functions of A   symmetry.
 There are   122 symmetry adapted basis functions of A   symmetry.
   122 basis functions,   219 primitive gaussians,   124 cartesian basis functions
    48 alpha electrons       47 beta electrons
       nuclear repulsion energy       683.6887850958 Hartrees.
 NAtoms=   17 NActive=   17 NUniq=   17 SFac= 1.00D+00 NAtFMM=   60 NAOKFM=F Big=F
 Integral buffers will be    131072 words long.
 Raffenetti 2 integral format.
 Two-electron integral symmetry is turned on.
 Nuclear repulsion after empirical dispersion term =      683.6794827105 Hartrees.
 One-electron integrals computed using PRISM.
 NBasis=   122 RedAO= T EigKep=  1.10D-03  NBF=   122
 NBsUse=   122 1.00D-06 EigRej= -1.00D+00 NBFU=   122
 ExpMin= 1.47D-01 ExpMax= 6.10D+03 ExpMxC= 6.10D+03 IAcc=3 IRadAn=         5 AccDes= 0.00D+00
 Harris functional with IExCor= 4639 and IRadAn=       5 diagonalized for initial guess.
 HarFok:  IExCor= 4639 AccDes= 0.00D+00 IRadAn=         5 IDoV= 1 UseB2=F ITyADJ=14
 ICtDFT=  3500011 ScaDFX=  1.000000  1.000000  1.000000  1.000000
 FoFCou: FMM=F IPFlag=           0 FMFlag=      100000 FMFlg1=           0
         NFxFlg=           0 DoJE=T BraDBF=F KetDBF=T FulRan=T
         wScrn=  0.000000 ICntrl=       500 IOpCl=  0 I1Cent=   200000004 NGrid=           0
         NMat0=    1 NMatS0=      1 NMatT0=    0 NMatD0=    1 NMtDS0=    0 NMtDT0=    0
 Petite list used in FoFCou.
 Initial guess <Sx>= 0.0000 <Sy>= 0.0000 <Sz>= 0.5000 <S**2>= 0.7500 S= 0.5000
 Requested convergence on RMS density matrix=1.00D-08 within 128 cycles.
 Requested convergence on MAX density matrix=1.00D-06.
 Requested convergence on             energy=1.00D-06.
 No special actions if energy rises.
 Integral accuracy reduced to 1.0D-05 until final iterations.
 Initial convergence to 1.0D-05 achieved.  Increase integral accuracy.
 SCF Done:  E(UwB97XD) =  -2906.75318711     A.U. after   21 cycles
            NFock= 21  Conv=0.92D-08     -V/T= 2.0017
 <Sx>= 0.0000 <Sy>= 0.0000 <Sz>= 0.5000 <S**2>= 0.7730 S= 0.5114
 <L.S>= 0.000000000000E+00
 Annihilation of the first spin contaminant:
 S**2 before annihilation     0.7730,   after     0.7502

 **********************************************************************

            Population analysis using the SCF Density.

 **********************************************************************

 Orbital symmetries:
 Alpha Orbitals:
       Occupied  (A) (A) (A) (A) (A) (A) (A) (A) (A) (A) (A) (A)
                 (A) (A) (A) (A) (A) (A) (A) (A) (A) (A) (A) (A)
                 (A) (A) (A) (A) (A) (A) (A) (A) (A) (A) (A) (A)
                 (A) (A) (A) (A) (A) (A) (A) (A) (A) (A) (A) (A)
       Virtual   (A) (A) (A) (A) (A) (A) (A) (A) (A) (A) (A) (A)
                 (A) (A) (A) (A) (A) (A) (A) (A) (A) (A) (A) (A)
                 (A) (A) (A) (A) (A) (A) (A) (A) (A) (A) (A) (A)
                 (A) (A) (A) (A) (A) (A) (A) (A) (A) (A) (A) (A)
                 (A) (A) (A) (A) (A) (A) (A) (A) (A) (A) (A) (A)
                 (A) (A) (A) (A) (A) (A) (A) (A) (A) (A) (A) (A)
                 (A) (A)
 Beta  Orbitals:
       Occupied  (A) (A) (A) (A) (A) (A) (A) (A) (A) (A) (A) (A)
                 (A) (A) (A) (A) (A) (A) (A) (A) (A) (A) (A) (A)
                 (A) (A) (A) (A) (A) (A) (A) (A) (A) (A) (A) (A)
                 (A) (A) (A) (A) (A) (A) (A) (A) (A) (A) (A)
       Virtual   (A) (A) (A) (A) (A) (A) (A) (A) (A) (A) (A) (A)
                 (A) (A) (A) (A) (A) (A) (A) (A) (A) (A) (A) (A)
                 (A) (A) (A) (A) (A) (A) (A) (A) (A) (A) (A) (A)
                 (A) (A) (A) (A) (A) (A) (A) (A) (A) (A) (A) (A)
                 (A) (A) (A) (A) (A) (A) (A) (A) (A) (A) (A) (A)
                 (A) (A) (A) (A) (A) (A) (A) (A) (A) (A) (A) (A)
                 (A) (A) (A)
 The electronic state is 2-A.
 Alpha  occ. eigenvalues -- -480.32780 -62.76096 -56.34994 -56.34645 -56.34525
 Alpha  occ. eigenvalues --  -10.50030 -10.46016 -10.45285 -10.45043 -10.43791
 Alpha  occ. eigenvalues --  -10.43763 -10.43559 -10.43390 -10.42215  -9.06928
 Alpha  occ. eigenvalues --   -6.85375  -6.84196  -6.83787  -2.95703  -2.95328
 Alpha  occ. eigenvalues --   -2.95056  -2.94028  -2.94015  -1.21325  -1.15650
 Alpha  occ. eigenvalues --   -1.08468  -1.06094  -1.01197  -0.99083  -0.91257
 Alpha  occ. eigenvalues --   -0.86570  -0.85148  -0.80131  -0.75542  -0.73030
 Alpha  occ. eigenvalues --   -0.72528  -0.71634  -0.70321  -0.66793  -0.66441
 Alpha  occ. eigenvalues --   -0.64285  -0.62325  -0.61184  -0.60298  -0.54793
 Alpha  occ. eigenvalues --   -0.53126  -0.52065  -0.49149
 Alpha virt. eigenvalues --   -0.16184  -0.12145  -0.08829  -0.06848   0.04315
 Alpha virt. eigenvalues --    0.05134   0.05487   0.06427   0.08484   0.09575
 Alpha virt. eigenvalues --    0.11346   0.11626   0.12965   0.15057   0.18766
 Alpha virt. eigenvalues --    0.21402   0.23886   0.25749   0.30333   0.35041
 Alpha virt. eigenvalues --    0.36237   0.39225   0.39529   0.42555   0.44200
 Alpha virt. eigenvalues --    0.44929   0.46815   0.47129   0.47868   0.49330
 Alpha virt. eigenvalues --    0.51824   0.52275   0.55091   0.57135   0.57889
 Alpha virt. eigenvalues --    0.60219   0.61310   0.65733   0.66991   0.70213
 Alpha virt. eigenvalues --    0.71575   0.75069   0.75387   0.76421   0.78177
 Alpha virt. eigenvalues --    0.78402   0.80378   0.80751   0.81460   0.82503
 Alpha virt. eigenvalues --    0.83446   0.84941   0.86564   0.87861   0.88106
 Alpha virt. eigenvalues --    0.88491   0.91008   0.92926   0.93161   0.96326
 Alpha virt. eigenvalues --    0.96844   1.00732   1.02158   1.05772   1.12422
 Alpha virt. eigenvalues --    1.19922   1.24524   1.34852   1.39327   1.43834
 Alpha virt. eigenvalues --    1.50048   1.53678   1.64355   1.80108
  Beta  occ. eigenvalues -- -480.32735 -62.76065 -56.34979 -56.34532 -56.34503
  Beta  occ. eigenvalues --  -10.49685 -10.45779 -10.44926 -10.44865 -10.43784
  Beta  occ. eigenvalues --  -10.43707 -10.43603 -10.43390 -10.42245  -9.06868
  Beta  occ. eigenvalues --   -6.85359  -6.84024  -6.83761  -2.95669  -2.95254
  Beta  occ. eigenvalues --   -2.95048  -2.93953  -2.93946  -1.20645  -1.14887
  Beta  occ. eigenvalues --   -1.07834  -1.05671  -1.00477  -0.98510  -0.90735
  Beta  occ. eigenvalues --   -0.86047  -0.84735  -0.79937  -0.75246  -0.72280
  Beta  occ. eigenvalues --   -0.71993  -0.71381  -0.70028  -0.66521  -0.64830
  Beta  occ. eigenvalues --   -0.64051  -0.62068  -0.60976  -0.57964  -0.52867
  Beta  occ. eigenvalues --   -0.51977  -0.50781
  Beta virt. eigenvalues --   -0.30125  -0.13252  -0.10965  -0.08232  -0.04971
  Beta virt. eigenvalues --    0.04441   0.05210   0.06567   0.06683   0.08555
  Beta virt. eigenvalues --    0.09846   0.11486   0.11890   0.13300   0.15259
  Beta virt. eigenvalues --    0.19259   0.21649   0.24206   0.26082   0.30644
  Beta virt. eigenvalues --    0.35375   0.36450   0.39469   0.39703   0.42748
  Beta virt. eigenvalues --    0.44553   0.45188   0.47890   0.47959   0.48134
  Beta virt. eigenvalues --    0.49851   0.52019   0.52431   0.55712   0.57239
  Beta virt. eigenvalues --    0.58028   0.60363   0.62185   0.66069   0.67668
  Beta virt. eigenvalues --    0.70587   0.71857   0.75213   0.75902   0.76646
  Beta virt. eigenvalues --    0.78353   0.79125   0.80620   0.81266   0.81593
  Beta virt. eigenvalues --    0.83194   0.83576   0.84992   0.86638   0.87938
  Beta virt. eigenvalues --    0.88759   0.88823   0.91166   0.93212   0.93653
  Beta virt. eigenvalues --    0.96688   0.97025   1.00936   1.02250   1.05916
  Beta virt. eigenvalues --    1.12577   1.20116   1.24670   1.35022   1.39637
  Beta virt. eigenvalues --    1.44128   1.50288   1.53987   1.64582   1.80206
          Condensed to atoms (all electrons):
               1          2          3          4          5          6
     1  Br  34.662227   0.249558  -0.036842   0.001548   0.000282   0.002134
     2  C    0.249558   5.101751   0.407364  -0.029115  -0.045393  -0.018081
     3  C   -0.036842   0.407364   4.969039   0.529871  -0.033784  -0.034158
     4  C    0.001548  -0.029115   0.529871   4.867377   0.386113  -0.026712
     5  C    0.000282  -0.045393  -0.033784   0.386113   5.151202   0.401651
     6  C    0.002134  -0.018081  -0.034158  -0.026712   0.401651   5.164831
     7  C   -0.038786   0.430001  -0.045206  -0.017439  -0.022655   0.470240
     8  C   -0.000011   0.000101   0.000662   0.000764  -0.058295   0.280314
     9  C    0.000000  -0.000193  -0.000113   0.001433  -0.077932  -0.097047
    10  C    0.000002   0.000777  -0.000335   0.011209   0.405467  -0.042986
    11  H    0.000775  -0.017480   0.384577  -0.011210   0.002383   0.000031
    12  H   -0.000036   0.002265  -0.013064   0.387826  -0.017126   0.002095
    13  H    0.000758  -0.013598   0.001806  -0.000036   0.001948  -0.008373
    14  H   -0.000000   0.000047  -0.000001  -0.000008   0.000963  -0.019612
    15  H   -0.000000   0.000047  -0.000001  -0.000008   0.000963  -0.019612
    16  H   -0.000000   0.000001   0.000001  -0.000005   0.002815   0.002507
    17  H   -0.000000  -0.000004   0.000032  -0.001404  -0.014141   0.001716
               7          8          9         10         11         12
     1  Br  -0.038786  -0.000011   0.000000   0.000002   0.000775  -0.000036
     2  C    0.430001   0.000101  -0.000193   0.000777  -0.017480   0.002265
     3  C   -0.045206   0.000662  -0.000113  -0.000335   0.384577  -0.013064
     4  C   -0.017439   0.000764   0.001433   0.011209  -0.011210   0.387826
     5  C   -0.022655  -0.058295  -0.077932   0.405467   0.002383  -0.017126
     6  C    0.470240   0.280314  -0.097047  -0.042986   0.000031   0.002095
     7  C    4.907674   0.008532   0.002635   0.000728   0.002004  -0.000127
     8  C    0.008532   5.190931   0.372006  -0.095730   0.000003  -0.000036
     9  C    0.002635   0.372006   5.023316   0.550743   0.000000   0.000083
    10  C    0.000728  -0.095730   0.550743   4.892375  -0.000005  -0.003000
    11  H    0.002004   0.000003   0.000000  -0.000005   0.366676  -0.003138
    12  H   -0.000127  -0.000036   0.000083  -0.003000  -0.003138   0.374530
    13  H    0.379692  -0.003457   0.000066  -0.000072  -0.000034   0.000004
    14  H   -0.003860   0.373112  -0.025223   0.000989  -0.000000   0.000001
    15  H   -0.003860   0.373113  -0.025224   0.000989  -0.000000   0.000001
    16  H   -0.000003  -0.015813   0.383289  -0.013591  -0.000000  -0.000001
    17  H   -0.000008   0.002754  -0.011019   0.383301  -0.000000   0.000993
              13         14         15         16         17
     1  Br   0.000758  -0.000000  -0.000000  -0.000000  -0.000000
     2  C   -0.013598   0.000047   0.000047   0.000001  -0.000004
     3  C    0.001806  -0.000001  -0.000001   0.000001   0.000032
     4  C   -0.000036  -0.000008  -0.000008  -0.000005  -0.001404
     5  C    0.001948   0.000963   0.000963   0.002815  -0.014141
     6  C   -0.008373  -0.019612  -0.019612   0.002507   0.001716
     7  C    0.379692  -0.003860  -0.003860  -0.000003  -0.000008
     8  C   -0.003457   0.373112   0.373113  -0.015813   0.002754
     9  C    0.000066  -0.025223  -0.025224   0.383289  -0.011019
    10  C   -0.000072   0.000989   0.000989  -0.013591   0.383301
    11  H   -0.000034  -0.000000  -0.000000  -0.000000  -0.000000
    12  H    0.000004   0.000001   0.000001  -0.000001   0.000993
    13  H    0.372444   0.000482   0.000482  -0.000001   0.000001
    14  H    0.000482   0.393081  -0.015673  -0.000753  -0.000065
    15  H    0.000482  -0.015673   0.393082  -0.000753  -0.000065
    16  H   -0.000001  -0.000753  -0.000753   0.355715  -0.001976
    17  H    0.000001  -0.000065  -0.000065  -0.001976   0.364225
          Atomic-Atomic Spin Densities.
               1          2          3          4          5          6
     1  Br   0.189825  -0.044495  -0.002465   0.000222   0.000033   0.000253
     2  C   -0.044495   0.290840   0.027850  -0.007221  -0.004964  -0.008183
     3  C   -0.002465   0.027850  -0.010465  -0.021376  -0.006211  -0.001120
     4  C    0.000222  -0.007221  -0.021376   0.055204   0.037138  -0.001523
     5  C    0.000033  -0.004964  -0.006211   0.037138   0.213448   0.037685
     6  C    0.000253  -0.008183  -0.001120  -0.001523   0.037685   0.096014
     7  C   -0.001597   0.025271  -0.001608  -0.000472  -0.004754  -0.020267
     8  C    0.000000   0.000024  -0.000023   0.000001  -0.000042   0.006592
     9  C   -0.000000   0.000021   0.000012  -0.000179  -0.018231  -0.009507
    10  C   -0.000000   0.000062   0.000252  -0.003759  -0.051930  -0.004889
    11  H   -0.000019  -0.000418   0.000500  -0.000063   0.000035  -0.000012
    12  H    0.000000   0.000031  -0.000122  -0.000095  -0.000535   0.000017
    13  H   -0.000048  -0.000280   0.000006  -0.000007   0.000035   0.000005
    14  H    0.000000  -0.000012  -0.000001   0.000006   0.000228   0.000405
    15  H    0.000000  -0.000012  -0.000001   0.000006   0.000228   0.000405
    16  H    0.000000  -0.000000  -0.000000  -0.000000  -0.000005   0.000014
    17  H   -0.000000   0.000000  -0.000001   0.000097  -0.000108   0.000017
               7          8          9         10         11         12
     1  Br  -0.001597   0.000000  -0.000000  -0.000000  -0.000019   0.000000
     2  C    0.025271   0.000024   0.000021   0.000062  -0.000418   0.000031
     3  C   -0.001608  -0.000023   0.000012   0.000252   0.000500  -0.000122
     4  C   -0.000472   0.000001  -0.000179  -0.003759  -0.000063  -0.000095
     5  C   -0.004754  -0.000042  -0.018231  -0.051930   0.000035  -0.000535
     6  C   -0.020267   0.006592  -0.009507  -0.004889  -0.000012   0.000017
     7  C   -0.054070  -0.000875   0.000331   0.000379   0.000007  -0.000015
     8  C   -0.000875  -0.027454  -0.019026  -0.004993  -0.000000   0.000001
     9  C    0.000331  -0.019026   0.389695   0.049412   0.000000  -0.000001
    10  C    0.000379  -0.004993   0.049412  -0.016247  -0.000000   0.000050
    11  H    0.000007  -0.000000   0.000000  -0.000000  -0.000735   0.000053
    12  H   -0.000015   0.000001  -0.000001   0.000050   0.000053  -0.003140
    13  H    0.000798   0.000058   0.000001  -0.000000   0.000000  -0.000000
    14  H   -0.000094   0.002857  -0.002590   0.000000   0.000000  -0.000000
    15  H   -0.000094   0.002857  -0.002590   0.000000   0.000000  -0.000000
    16  H    0.000000  -0.000631  -0.003165  -0.001135   0.000000   0.000000
    17  H   -0.000001  -0.000017  -0.000562   0.000707   0.000000  -0.000012
              13         14         15         16         17
     1  Br  -0.000048   0.000000   0.000000   0.000000  -0.000000
     2  C   -0.000280  -0.000012  -0.000012  -0.000000   0.000000
     3  C    0.000006  -0.000001  -0.000001  -0.000000  -0.000001
     4  C   -0.000007   0.000006   0.000006  -0.000000   0.000097
     5  C    0.000035   0.000228   0.000228  -0.000005  -0.000108
     6  C    0.000005   0.000405   0.000405   0.000014   0.000017
     7  C    0.000798  -0.000094  -0.000094   0.000000  -0.000001
     8  C    0.000058   0.002857   0.002857  -0.000631  -0.000017
     9  C    0.000001  -0.002590  -0.002590  -0.003165  -0.000562
    10  C   -0.000000   0.000000   0.000000  -0.001135   0.000707
    11  H    0.000000   0.000000   0.000000   0.000000   0.000000
    12  H   -0.000000  -0.000000  -0.000000   0.000000  -0.000012
    13  H    0.000694  -0.000007  -0.000007   0.000000  -0.000000
    14  H   -0.000007   0.003587  -0.000747   0.000065   0.000000
    15  H   -0.000007  -0.000747   0.003587   0.000065   0.000000
    16  H    0.000000   0.000065   0.000065  -0.014018   0.000061
    17  H   -0.000000   0.000000   0.000000   0.000061  -0.000852
 Mulliken charges and spin densities:
               1          2
     1  Br   0.158389   0.141711
     2  C   -0.068048   0.278516
     3  C   -0.129847  -0.014771
     4  C   -0.100204   0.057981
     5  C   -0.084461   0.202050
     6  C   -0.058937   0.095907
     7  C   -0.069563  -0.057060
     8  C   -0.428951  -0.040671
     9  C   -0.096821   0.383622
    10  C   -0.090862  -0.032092
    11  H    0.275416  -0.000652
    12  H    0.268731  -0.003769
    13  H    0.267888   0.001249
    14  H    0.296520   0.003698
    15  H    0.296521   0.003698
    16  H    0.288566  -0.018750
    17  H    0.275663  -0.000669
 Sum of Mulliken charges =   1.00000   1.00000
 Mulliken charges and spin densities with hydrogens summed into heavy atoms:
               1          2
     1  Br   0.158389   0.141711
     2  C   -0.068048   0.278516
     3  C    0.145569  -0.015423
     4  C    0.168526   0.054213
     5  C   -0.084461   0.202050
     6  C   -0.058937   0.095907
     7  C    0.198325  -0.055812
     8  C    0.164090  -0.033274
     9  C    0.191745   0.364872
    10  C    0.184800  -0.032761
 Electronic spatial extent (au):  <R**2>=           2382.6445
 Charge=              1.0000 electrons
 Dipole moment (field-independent basis, Debye):
    X=             -6.3713    Y=              0.0571    Z=             -0.0000  Tot=              6.3716
 Quadrupole moment (field-independent basis, Debye-Ang):
   XX=            -26.2051   YY=            -52.0863   ZZ=            -69.7652
   XY=              2.3593   XZ=              0.0001   YZ=             -0.0000
 Traceless Quadrupole moment (field-independent basis, Debye-Ang):
   XX=             23.1471   YY=             -2.7341   ZZ=            -20.4130
   XY=              2.3593   XZ=              0.0001   YZ=             -0.0000
 Octapole moment (field-independent basis, Debye-Ang**2):
  XXX=            -13.0067  YYY=              1.9365  ZZZ=              0.0001  XYY=              6.3908
  XXY=            -14.8797  XXZ=             -0.0004  XZZ=             30.3681  YZZ=             -6.7454
  YYZ=             -0.0000  XYZ=              0.0001
 Hexadecapole moment (field-independent basis, Debye-Ang**3):
 XXXX=          -1525.1148 YYYY=           -395.9134 ZZZZ=            -76.1350 XXXY=              9.7207
 XXXZ=             -0.0005 YYYX=            -16.0369 YYYZ=              0.0002 ZZZX=             -0.0018
 ZZZY=              0.0005 XXYY=           -368.5751 XXZZ=           -389.2215 YYZZ=            -93.5690
 XXYZ=             -0.0001 YYXZ=             -0.0004 ZZXY=              2.5982
 N-N= 6.836794827105D+02 E-N=-8.272802882437D+03  KE= 2.901842675278D+03
 There are a total of      386936 grid points.
 ElSum from          density=       94.9999902631
 ElSum from atomic densities=       96.0000581983
 Hirshfeld populations at iteration   1 (CA, CB, DipXYZ):
               1          2          3          4          5
     1  Br  17.504254  17.345852   0.182736  -0.033092  -0.000002
     2  C    3.051716   2.865095   0.028090  -0.001923   0.000002
     3  C    3.012484   2.984069   0.025057   0.029636   0.000000
     4  C    3.020614   2.957885  -0.037203   0.047720  -0.000001
     5  C    3.045958   2.899479  -0.008130   0.034040  -0.000001
     6  C    3.018134   2.939749  -0.036281  -0.034621   0.000001
     7  C    3.005815   3.001724   0.018117  -0.042452  -0.000001
     8  C    3.015764   3.000611  -0.015162  -0.019407   0.000000
     9  C    3.084578   2.831578  -0.057434  -0.068244  -0.000001
    10  C    3.010795   2.968584  -0.029984   0.064990   0.000000
    11  H    0.461777   0.461434   0.106443   0.145982  -0.000000
    12  H    0.460860   0.458660  -0.051602   0.172669   0.000000
    13  H    0.461908   0.462847   0.043341  -0.173463  -0.000000
    14  H    0.463155   0.458860  -0.006698  -0.112019   0.132617
    15  H    0.463155   0.458860  -0.006698  -0.112019  -0.132617
    16  H    0.460707   0.447430  -0.171707  -0.057728   0.000000
    17  H    0.458320   0.457278  -0.104090   0.150130  -0.000002
       Tot  47.999995  46.999995  -0.121205  -0.009802  -0.000003

 Dip from Atomic Chgs             -2.385496   0.032280  -0.000003
         Total Dipole             -2.506701   0.022478  -0.000007

 Hirshfeld charges, spin densities, dipoles, and CM5 charges using IRadAn=      5:
              Q-H        S-H        Dx         Dy         Dz        Q-CM5   
     1  Br   0.149894   0.158402   0.182736  -0.033092  -0.000002   0.164312
     2  C    0.083189   0.186620   0.028090  -0.001923   0.000002   0.062283
     3  C    0.003446   0.028415   0.025057   0.029636   0.000000  -0.050655
     4  C    0.021500   0.062729  -0.037203   0.047720  -0.000001  -0.031644
     5  C    0.054564   0.146479  -0.008130   0.034040  -0.000001   0.047112
     6  C    0.042117   0.078385  -0.036281  -0.034621   0.000001   0.031236
     7  C   -0.007539   0.004092   0.018117  -0.042452  -0.000001  -0.059001
     8  C   -0.016376   0.015153  -0.015162  -0.019407   0.000000  -0.114626
     9  C    0.083844   0.253000  -0.057434  -0.068244  -0.000001   0.024047
    10  C    0.020621   0.042211  -0.029984   0.064990   0.000000  -0.033547
    11  H    0.076789   0.000343   0.106443   0.145982  -0.000000   0.134349
    12  H    0.080481   0.002200  -0.051602   0.172669   0.000000   0.137448
    13  H    0.075245  -0.000939   0.043341  -0.173463  -0.000000   0.133076
    14  H    0.077985   0.004295  -0.006698  -0.112019   0.132617   0.133407
    15  H    0.077985   0.004295  -0.006698  -0.112019  -0.132617   0.133407
    16  H    0.091862   0.013277  -0.171707  -0.057728   0.000000   0.147810
    17  H    0.084402   0.001042  -0.104090   0.150130  -0.000002   0.140994
       Tot   1.000010   1.000000  -0.121205  -0.009802  -0.000003   1.000010
 Hirshfeld charges and spin densities with hydrogens summed into heavy atoms:
              Q-H        S-H       Q-CM5   
     1  Br   0.149894   0.158402   0.164312
     2  C    0.083189   0.186620   0.062283
     3  C    0.080235   0.028758   0.083695
     4  C    0.101981   0.064929   0.105804
     5  C    0.054564   0.146479   0.047112
     6  C    0.042117   0.078385   0.031236
     7  C    0.067706   0.003152   0.074075
     8  C    0.139594   0.023744   0.152189
     9  C    0.175706   0.266277   0.171857
    10  C    0.105022   0.043253   0.107447
 
 EQQ= 0.820411006204E-01 EQD=-0.599054240167E-01 EDD= 0.826311631566E-02
 EQQ+QD+DD= 0.303987929193E-01
 
                          Isotropic Fermi Contact Couplings
        Atom                 a.u.       MegaHertz       Gauss      10(-4) cm-1
     1  Br(79)             0.01611      18.10910       6.46178       6.04055
     2  C(13)              0.02797      31.43997      11.21856      10.48725
     3  C(13)             -0.00493      -5.54500      -1.97859      -1.84961
     4  C(13)              0.00233       2.61965       0.93476       0.87382
     5  C(13)              0.01557      17.50721       6.24701       5.83978
     6  C(13)              0.00692       7.77782       2.77532       2.59440
     7  C(13)             -0.00927     -10.41685      -3.71699      -3.47469
     8  C(13)             -0.00804      -9.03785      -3.22493      -3.01470
     9  C(13)              0.03530      39.68075      14.15908      13.23608
    10  C(13)             -0.00799      -8.97847      -3.20374      -2.99489
    11  H(1)              -0.00022      -0.98752      -0.35237      -0.32940
    12  H(1)              -0.00099      -4.42105      -1.57754      -1.47470
    13  H(1)               0.00024       1.08629       0.38762       0.36235
    14  H(1)               0.00178       7.94367       2.83450       2.64972
    15  H(1)               0.00178       7.94374       2.83452       2.64975
    16  H(1)              -0.00466     -20.81191      -7.42621      -6.94211
    17  H(1)              -0.00022      -0.97797      -0.34896      -0.32621
 --------------------------------------------------------
       Center         ----  Spin Dipole Couplings  ----
                      3XX-RR        3YY-RR        3ZZ-RR
 --------------------------------------------------------
     1   Atom       -1.013875     -0.847902      1.861777
     2   Atom       -0.137117     -0.146946      0.284063
     3   Atom       -0.008387     -0.003262      0.011649
     4   Atom       -0.036667     -0.030754      0.067421
     5   Atom       -0.101946     -0.102127      0.204073
     6   Atom       -0.050049     -0.049527      0.099576
     7   Atom        0.014153      0.012021     -0.026174
     8   Atom       -0.001703      0.003033     -0.001331
     9   Atom       -0.174654     -0.178869      0.353523
    10   Atom       -0.012866     -0.002665      0.015531
    11   Atom       -0.001981      0.006340     -0.004360
    12   Atom       -0.006645      0.010838     -0.004193
    13   Atom        0.000405      0.003964     -0.004369
    14   Atom       -0.000480      0.005248     -0.004767
    15   Atom       -0.000480      0.005248     -0.004768
    16   Atom        0.025616     -0.019883     -0.005733
    17   Atom       -0.002310      0.007565     -0.005255
 --------------------------------------------------------
                        XY            XZ            YZ
 --------------------------------------------------------
     1   Atom        0.035404      0.000002     -0.000005
     2   Atom       -0.002358     -0.000001     -0.000000
     3   Atom       -0.002068     -0.000001      0.000001
     4   Atom        0.003614     -0.000001     -0.000000
     5   Atom        0.004149     -0.000001      0.000002
     6   Atom        0.001004     -0.000000      0.000001
     7   Atom        0.003561     -0.000000     -0.000000
     8   Atom       -0.000745      0.000000     -0.000000
     9   Atom        0.001885     -0.000003      0.000001
    10   Atom        0.005520     -0.000000     -0.000000
    11   Atom        0.002886      0.000000     -0.000000
    12   Atom       -0.000958     -0.000000     -0.000000
    13   Atom        0.002160      0.000000      0.000000
    14   Atom       -0.001654      0.001033     -0.003171
    15   Atom       -0.001654     -0.001033      0.003171
    16   Atom        0.018282     -0.000000      0.000000
    17   Atom       -0.002908      0.000000     -0.000000
 --------------------------------------------------------


 ---------------------------------------------------------------------------------
              Anisotropic Spin Dipole Couplings in Principal Axis System
 ---------------------------------------------------------------------------------

       Atom             a.u.   MegaHertz   Gauss  10(-4) cm-1        Axes

              Baa    -1.0211  -136.969   -48.874   -45.688  0.9797 -0.2003 -0.0000
     1 Br(79) Bbb    -0.8407  -112.765   -40.237   -37.614  0.2003  0.9797  0.0000
              Bcc     1.8618   249.734    89.111    83.302  0.0000 -0.0000  1.0000
 
              Baa    -0.1475   -19.791    -7.062    -6.601  0.2218  0.9751  0.0000
     2 C(13)  Bbb    -0.1366   -18.328    -6.540    -6.114  0.9751 -0.2218  0.0000
              Bcc     0.2841    38.119    13.602    12.715 -0.0000 -0.0000  1.0000
 
              Baa    -0.0091    -1.224    -0.437    -0.408  0.9429  0.3330  0.0000
     3 C(13)  Bbb    -0.0025    -0.340    -0.121    -0.113 -0.3330  0.9429 -0.0001
              Bcc     0.0116     1.563     0.558     0.521 -0.0000  0.0000  1.0000
 
              Baa    -0.0384    -5.150    -1.838    -1.718  0.9036 -0.4283  0.0000
     4 C(13)  Bbb    -0.0290    -3.897    -1.391    -1.300  0.4283  0.9036  0.0000
              Bcc     0.0674     9.047     3.228     3.018 -0.0000 -0.0000  1.0000
 
              Baa    -0.1062   -14.249    -5.084    -4.753 -0.6993  0.7148 -0.0000
     5 C(13)  Bbb    -0.0979   -13.135    -4.687    -4.382  0.7148  0.6993 -0.0000
              Bcc     0.2041    27.385     9.772     9.135 -0.0000  0.0000  1.0000
 
              Baa    -0.0508    -6.820    -2.434    -2.275  0.7911 -0.6117  0.0000
     6 C(13)  Bbb    -0.0488    -6.542    -2.334    -2.182  0.6117  0.7911 -0.0000
              Bcc     0.0996    13.362     4.768     4.457 -0.0000  0.0000  1.0000
 
              Baa    -0.0262    -3.512    -1.253    -1.172  0.0000  0.0000  1.0000
     7 C(13)  Bbb     0.0094     1.257     0.449     0.419 -0.5972  0.8021  0.0000
              Bcc     0.0168     2.255     0.805     0.752  0.8021  0.5972 -0.0000
 
              Baa    -0.0018    -0.244    -0.087    -0.081  0.9884  0.1518 -0.0002
     8 C(13)  Bbb    -0.0013    -0.179    -0.064    -0.060  0.0002  0.0000  1.0000
              Bcc     0.0031     0.422     0.151     0.141 -0.1518  0.9884 -0.0000
 
              Baa    -0.1796   -24.099    -8.599    -8.039 -0.3568  0.9342 -0.0000
     9 C(13)  Bbb    -0.1739   -23.340    -8.328    -7.785  0.9342  0.3568  0.0000
              Bcc     0.3535    47.439    16.928    15.824 -0.0000  0.0000  1.0000
 
              Baa    -0.0153    -2.051    -0.732    -0.684  0.9161 -0.4008  0.0000
    10 C(13)  Bbb    -0.0002    -0.034    -0.012    -0.011  0.4008  0.9161  0.0000
              Bcc     0.0155     2.084     0.744     0.695 -0.0000 -0.0000  1.0000
 
              Baa    -0.0044    -2.326    -0.830    -0.776 -0.0000  0.0000  1.0000
    11 H(1)   Bbb    -0.0029    -1.538    -0.549    -0.513  0.9544 -0.2986  0.0000
              Bcc     0.0072     3.865     1.379     1.289  0.2986  0.9544  0.0000
 
              Baa    -0.0067    -3.573    -1.275    -1.192  0.9985  0.0546  0.0000
    12 H(1)   Bbb    -0.0042    -2.237    -0.798    -0.746 -0.0000  0.0000  1.0000
              Bcc     0.0109     5.810     2.073     1.938 -0.0546  0.9985 -0.0000
 
              Baa    -0.0044    -2.331    -0.832    -0.778 -0.0000 -0.0000  1.0000
    13 H(1)   Bbb    -0.0006    -0.327    -0.117    -0.109  0.9044 -0.4267  0.0000
              Bcc     0.0050     2.659     0.949     0.887  0.4267  0.9044  0.0000
 
              Baa    -0.0057    -3.065    -1.094    -1.022 -0.1064  0.2608  0.9595
    14 H(1)   Bbb    -0.0009    -0.490    -0.175    -0.163  0.9611  0.2743  0.0321
              Bcc     0.0067     3.554     1.268     1.186 -0.2548  0.9256 -0.2798
 
              Baa    -0.0057    -3.065    -1.094    -1.022  0.1064 -0.2608  0.9595
    15 H(1)   Bbb    -0.0009    -0.490    -0.175    -0.163  0.9611  0.2743 -0.0321
              Bcc     0.0067     3.554     1.268     1.186 -0.2548  0.9256  0.2798
 
              Baa    -0.0263   -14.042    -5.011    -4.684 -0.3320  0.9433 -0.0000
    16 H(1)   Bbb    -0.0057    -3.059    -1.091    -1.020 -0.0000  0.0000  1.0000
              Bcc     0.0321    17.101     6.102     5.704  0.9433  0.3320 -0.0000
 
              Baa    -0.0053    -2.804    -1.000    -0.935 -0.0000  0.0000  1.0000
    17 H(1)   Bbb    -0.0031    -1.656    -0.591    -0.552  0.9648  0.2630 -0.0000
              Bcc     0.0084     4.459     1.591     1.488 -0.2630  0.9648 -0.0000
 

 ---------------------------------------------------------------------------------

 Running external command "gaunbo6 R"
         input file       "/home/rpaton/arbr500/xtb/fukui/Gau-2142227.EIn"
         output file      "/home/rpaton/arbr500/xtb/fukui/Gau-2142227.EOu"
         message file     "/home/rpaton/arbr500/xtb/fukui/Gau-2142227.EMs"
         fchk file        "/home/rpaton/arbr500/xtb/fukui/Gau-2142227.EFC"
         mat. el file     "/home/rpaton/arbr500/xtb/fukui/Gau-2142227.EUF"

 Writing WrtUnf unformatted file "/home/rpaton/arbr500/xtb/fukui/Gau-2142227.EUF"
 Gaussian matrix elements                                         Version   2 NLab=11 Len12L=8 Len4L=8
 Write SHELL TO ATOM MAP                   from file      0 offset           0 length                  70 to matrix element file.
 Write SHELL TYPES                         from file      0 offset           0 length                  70 to matrix element file.
 Write NUMBER OF PRIMITIVES PER SHELL      from file      0 offset           0 length                  70 to matrix element file.
 Write PRIMITIVE EXPONENTS                 from file      0 offset           0 length                 127 to matrix element file.
 Write CONTRACTION COEFFICIENTS            from file      0 offset           0 length                 127 to matrix element file.
 Write P(S=P) CONTRACTION COEFFICIENTS     from file      0 offset           0 length                 127 to matrix element file.
 Write COORDINATES OF EACH SHELL           from file      0 offset           0 length                 210 to matrix element file.
 Write BONDS PER ATOM                      from file      0 offset           0 length                  17 to matrix element file.
 Write BONDED ATOMS                        from file      0 offset           0 length                  36 to matrix element file.
 Write BOND TYPES                          from file      0 offset           0 length                  36 to matrix element file.
 Write ONIOM CHARGE/MULT                   from file      0 offset           0 length                  32 to matrix element file.
 Write ONIOM ATOM LAYERS                   from file      0 offset           0 length                  17 to matrix element file.
 Write ONIOM ATOM MODIFIERS                from file      0 offset           0 length                  17 to matrix element file.
 Write ONIOM ATOM TYPES                    from file      0 offset           0 length                  17 to matrix element file.
 Write ONIOM LINK ATOMS                    from file      0 offset           0 length                  17 to matrix element file.
 Write ONIOM LINK CHARGES                  from file      0 offset           0 length                  17 to matrix element file.
 Write ONIOM LINK DISTANCES                from file      0 offset           0 length                  68 to matrix element file.
 Write SYMINF INTS                         from file      0 offset           0 length                  26 to matrix element file.
 Write ROTTR TO SO                         from file      0 offset           0 length                  12 to matrix element file.
 Write GAUSSIAN SCALARS                    from file    501 offset           0 to matrix element file.
 Write OPTIMIZATION FLAGS                  from file      0 offset           0 length                  17 to matrix element file.
 Write INTEGER ISO                         from file      0 offset           0 length                  17 to matrix element file.
 Write INTEGER SPIN                        from file      0 offset           0 length                  17 to matrix element file.
 Write REAL ZEFFECTIVE                     from file      0 offset           0 length                  17 to matrix element file.
 Write REAL QUADRUPOLEMOMENT               from file      0 offset           0 length                  17 to matrix element file.
 Write REAL GFACTOR                        from file      0 offset           0 length                  17 to matrix element file.
 Write REAL ZNUCLEAR                       from file      0 offset           0 length                  17 to matrix element file.
 Write MULLIKEN CHARGES                    from file      0 offset           0 length                  17 to matrix element file.
 Write TYPE 6 CHARGES                      from file      0 offset           0 length                  17 to matrix element file.
 Write TYPE 7 CHARGES                      from file      0 offset           0 length                  17 to matrix element file.
 Write NUCLEAR GRADIENT                    from file  10584 offset           0 length                  51 to matrix element file.
 Array NUCLEAR FORCE CONSTANTS              on  file  10585 does not exist.
 Write ELECTRIC DIPOLE MOMENT              from file      0 offset           0 length                   3 to matrix element file.
 Write NON-ADIABATIC COUPLING              from file  10810 offset           0 length                  51 to matrix element file.
 Write FINITE EM FIELD                     from file  10521 offset           0 length                  35 to matrix element file.
 Write OVERLAP                             from file  10514 offset           0 length                7503 to matrix element file.
 Write CORE HAMILTONIAN ALPHA              from file  10515 offset           0 length                7503 to matrix element file.
 Write CORE HAMILTONIAN BETA               from file  10515 offset        7503 length                7503 to matrix element file.
 Write KINETIC ENERGY                      from file  10516 offset           0 length                7503 to matrix element file.
 Write ORTHOGONAL BASIS                    from file  10685 offset           0 length               14884 to matrix element file.
 Write DIPOLE INTEGRALS                    from file  10518 offset           0 length               22509 to matrix element file.
 Array DIP VEL INTEGRALS                    on  file  10572 does not exist.
 Array R X DEL INTEGRALS                    on  file  10572 does not exist.
 Write ALPHA ORBITAL ENERGIES              from file      0 offset           0 length                 122 to matrix element file.
 Write BETA ORBITAL ENERGIES               from file      0 offset           0 length                 122 to matrix element file.
 Write ALPHA MO COEFFICIENTS               from file  10524 offset           0 length               14884 to matrix element file.
 Write BETA MO COEFFICIENTS                from file  10526 offset           0 length               14884 to matrix element file.
 Write ALPHA DENSITY MATRIX                from file      0 offset           0 length                7503 to matrix element file.
 Write BETA DENSITY MATRIX                 from file      0 offset           0 length                7503 to matrix element file.
 Write ALPHA FOCK MATRIX                   from file  10536 offset           0 length                7503 to matrix element file.
 Write BETA FOCK MATRIX                    from file  10538 offset           0 length                7503 to matrix element file.
 Write ENERGY-WEIGHTED DENSITY             from file  10571 offset           0 length                7503 to matrix element file.
 Write ALPHA SCF DENSITY MATRIX            from file      0 offset           0 length                7503 to matrix element file.
 Write BETA SCF DENSITY MATRIX             from file      0 offset           0 length                7503 to matrix element file.
 No 2e integrals to process.
 Perform NBO analysis...

 *********************************** NBO 7.0 ***********************************
             N A T U R A L   A T O M I C   O R B I T A L   A N D
          N A T U R A L   B O N D   O R B I T A L   A N A L Y S I S
 **************************** Robert Paton (I101709) ***************************
  (c) Copyright 1996-2019 Board of Regents of the University of Wisconsin System
      on behalf of the Theoretical Chemistry Institute.  All rights reserved.

          Cite this program [NBO 7.0.5 (4-Jun-2019)] as:

          NBO 7.0.  E. D. Glendening, J. K. Badenhoop, A. E. Reed,
          J. E. Carpenter, J. A. Bohmann, C. M. Morales, P. Karafiloglou,
          C. R. Landis, and F. Weinhold, Theoretical Chemistry Institute,
          University of Wisconsin, Madison, WI (2018)

 Filename set to /home/rpaton/arbr500/xtb/fukui/Gau-2142227

 Job title:  energy: -26.906191220599 gnorm: 0.000555879614 xtb: 6.7.0 (08769fc)


 NATURAL POPULATIONS:  Natural atomic orbital occupancies

  NAO Atom No lang   Type(AO)    Occupancy     Spin
 -----------------------------------------------------
   1   Br  1  s      Cor( 3s)     2.00000     0.00000
   2   Br  1  s      Cor( 1s)     2.00000     0.00000
   3   Br  1  s      Cor( 2s)     1.99999     0.00000
   4   Br  1  s      Val( 4s)     1.88246     0.00134
   5   Br  1  s      Ryd( 5s)     0.00287     0.00010
   6   Br  1  px     Cor( 3p)     2.00000     0.00000
   7   Br  1  px     Cor( 2p)     1.99999     0.00000
   8   Br  1  px     Val( 4p)     1.09650    -0.00920
   9   Br  1  px     Ryd( 5p)     0.00337     0.00010
  10   Br  1  py     Cor( 3p)     2.00000     0.00000
  11   Br  1  py     Cor( 2p)     1.99999     0.00000
  12   Br  1  py     Val( 4p)     1.94403    -0.00004
  13   Br  1  py     Ryd( 5p)     0.00151    -0.00002
  14   Br  1  pz     Cor( 3p)     2.00000     0.00000
  15   Br  1  pz     Cor( 2p)     2.00000     0.00000
  16   Br  1  pz     Val( 4p)     1.78482     0.15972
  17   Br  1  pz     Ryd( 5p)     0.00063     0.00011
  18   Br  1  dxy    Cor( 3d)     1.99966     0.00000
  19   Br  1  dxy    Ryd( 4d)     0.00149    -0.00005
  20   Br  1  dxz    Cor( 3d)     1.99987     0.00001
  21   Br  1  dxz    Ryd( 4d)     0.00249    -0.00053
  22   Br  1  dyz    Cor( 3d)     1.99999     0.00000
  23   Br  1  dyz    Ryd( 4d)     0.00013    -0.00002
  24   Br  1  dx2y2  Cor( 3d)     1.99947     0.00000
  25   Br  1  dx2y2  Ryd( 4d)     0.00449    -0.00009
  26   Br  1  dz2    Cor( 3d)     1.99980     0.00000
  27   Br  1  dz2    Ryd( 4d)     0.00161     0.00005

  28    C  2  s      Cor( 1s)     1.99989     0.00000
  29    C  2  s      Val( 2s)     0.95735     0.00970
  30    C  2  s      Ryd( 3s)     0.00061    -0.00003
  31    C  2  px     Val( 2p)     1.02993     0.00630
  32    C  2  px     Ryd( 3p)     0.00702    -0.00013
  33    C  2  py     Val( 2p)     1.10542     0.00428
  34    C  2  py     Ryd( 3p)     0.00858    -0.00006
  35    C  2  pz     Val( 2p)     0.92222     0.21550
  36    C  2  pz     Ryd( 3p)     0.00110    -0.00024

  37    C  3  s      Cor( 1s)     1.99986     0.00000
  38    C  3  s      Val( 2s)     0.95961    -0.00137
  39    C  3  s      Ryd( 3s)     0.00109     0.00002
  40    C  3  px     Val( 2p)     1.15163    -0.00117
  41    C  3  px     Ryd( 3p)     0.00700     0.00005
  42    C  3  py     Val( 2p)     1.15172    -0.00401
  43    C  3  py     Ryd( 3p)     0.00553     0.00002
  44    C  3  pz     Val( 2p)     0.94886     0.01073
  45    C  3  pz     Ryd( 3p)     0.00044    -0.00003

  46    C  4  s      Cor( 1s)     1.99984     0.00000
  47    C  4  s      Val( 2s)     0.95166     0.00118
  48    C  4  s      Ryd( 3s)     0.00091     0.00000
  49    C  4  px     Val( 2p)     1.07084    -0.00054
  50    C  4  px     Ryd( 3p)     0.00563     0.00001
  51    C  4  py     Val( 2p)     1.21279    -0.00039
  52    C  4  py     Ryd( 3p)     0.00596     0.00003
  53    C  4  pz     Val( 2p)     0.92099     0.06066
  54    C  4  pz     Ryd( 3p)     0.00040    -0.00003

  55    C  5  s      Cor( 1s)     1.99991     0.00000
  56    C  5  s      Val( 2s)     0.87037     0.00543
  57    C  5  s      Ryd( 3s)     0.00115     0.00002
  58    C  5  px     Val( 2p)     1.10568     0.00318
  59    C  5  px     Ryd( 3p)     0.00463    -0.00001
  60    C  5  py     Val( 2p)     1.09948     0.00096
  61    C  5  py     Ryd( 3p)     0.00528     0.00004
  62    C  5  pz     Val( 2p)     0.89266     0.16855
  63    C  5  pz     Ryd( 3p)     0.00014     0.00003

  64    C  6  s      Cor( 1s)     1.99991     0.00000
  65    C  6  s      Val( 2s)     0.85823     0.00263
  66    C  6  s      Ryd( 3s)     0.00113     0.00002
  67    C  6  px     Val( 2p)     1.10585     0.00224
  68    C  6  px     Ryd( 3p)     0.00506     0.00004
  69    C  6  py     Val( 2p)     1.06444    -0.00095
  70    C  6  py     Ryd( 3p)     0.00425     0.00002
  71    C  6  pz     Val( 2p)     0.91688     0.08485
  72    C  6  pz     Ryd( 3p)     0.00100     0.00001

  73    C  7  s      Cor( 1s)     1.99984     0.00000
  74    C  7  s      Val( 2s)     0.94492    -0.00277
  75    C  7  s      Ryd( 3s)     0.00139     0.00001
  76    C  7  px     Val( 2p)     1.07728    -0.00409
  77    C  7  px     Ryd( 3p)     0.00688     0.00005
  78    C  7  py     Val( 2p)     1.22373    -0.00303
  79    C  7  py     Ryd( 3p)     0.00636     0.00004
  80    C  7  pz     Val( 2p)     0.96610    -0.02072
  81    C  7  pz     Ryd( 3p)     0.00038    -0.00005

  82    C  8  s      Cor( 1s)     1.99976     0.00000
  83    C  8  s      Val( 2s)     1.04267    -0.00229
  84    C  8  s      Ryd( 3s)     0.00065     0.00001
  85    C  8  px     Val( 2p)     1.02648    -0.00763
  86    C  8  px     Ryd( 3p)     0.00282     0.00003
  87    C  8  py     Val( 2p)     1.19405    -0.00407
  88    C  8  py     Ryd( 3p)     0.00218     0.00001
  89    C  8  pz     Val( 2p)     1.30287    -0.00185
  90    C  8  pz     Ryd( 3p)     0.00087     0.00002

  91    C  9  s      Cor( 1s)     1.99989     0.00000
  92    C  9  s      Val( 2s)     0.99453     0.01262
  93    C  9  s      Ryd( 3s)     0.00077     0.00000
  94    C  9  px     Val( 2p)     1.19220     0.00767
  95    C  9  px     Ryd( 3p)     0.00447     0.00001
  96    C  9  py     Val( 2p)     1.05356     0.00614
  97    C  9  py     Ryd( 3p)     0.00409    -0.00001
  98    C  9  pz     Val( 2p)     0.77179     0.30500
  99    C  9  pz     Ryd( 3p)     0.00095     0.00027

 100    C 10  s      Cor( 1s)     1.99985     0.00000
 101    C 10  s      Val( 2s)     0.97591    -0.00234
 102    C 10  s      Ryd( 3s)     0.00063     0.00001
 103    C 10  px     Val( 2p)     1.07713    -0.00421
 104    C 10  px     Ryd( 3p)     0.00491     0.00006
 105    C 10  py     Val( 2p)     1.20189    -0.00428
 106    C 10  py     Ryd( 3p)     0.00578     0.00005
 107    C 10  pz     Val( 2p)     0.93633     0.01252
 108    C 10  pz     Ryd( 3p)     0.00041    -0.00002

 109    H 11  s      Val( 1s)     0.69922    -0.00038
 110    H 11  s      Ryd( 2s)     0.00109    -0.00001

 111    H 12  s      Val( 1s)     0.70851    -0.00213
 112    H 12  s      Ryd( 2s)     0.00075    -0.00001

 113    H 13  s      Val( 1s)     0.70170     0.00064
 114    H 13  s      Ryd( 2s)     0.00106    -0.00001

 115    H 14  s      Val( 1s)     0.67516     0.00313
 116    H 14  s      Ryd( 2s)     0.00075     0.00004

 117    H 15  s      Val( 1s)     0.67516     0.00313
 118    H 15  s      Ryd( 2s)     0.00075     0.00004

 119    H 16  s      Val( 1s)     0.71436    -0.01022
 120    H 16  s      Ryd( 2s)     0.00065     0.00000

 121    H 17  s      Val( 1s)     0.70777    -0.00036
 122    H 17  s      Ryd( 2s)     0.00064     0.00000


 Summary of Natural Population Analysis:

                                     Natural Population                 Natural
             Natural    ---------------------------------------------    Spin
  Atom No    Charge        Core      Valence    Rydberg      Total      Density
 -------------------------------------------------------------------------------
   Br  1    0.27483     27.99877     6.70781    0.01860    34.72517     0.15146
    C  2   -0.03212      1.99989     4.01492    0.01731     6.03212     0.23532
    C  3   -0.22575      1.99986     4.21182    0.01407     6.22575     0.00423
    C  4   -0.16901      1.99984     4.15628    0.01289     6.16901     0.06093
    C  5    0.02070      1.99991     3.96819    0.01120     5.97930     0.17819
    C  6    0.04325      1.99991     3.94540    0.01144     5.95675     0.08885
    C  7   -0.22688      1.99984     4.21203    0.01501     6.22688    -0.03057
    C  8   -0.57236      1.99976     4.56608    0.00653     6.57236    -0.01576
    C  9   -0.02224      1.99989     4.01208    0.01027     6.02224     0.33170
    C 10   -0.20284      1.99985     4.19127    0.01172     6.20284     0.00178
    H 11    0.29969      0.00000     0.69922    0.00109     0.70031    -0.00039
    H 12    0.29074      0.00000     0.70851    0.00075     0.70926    -0.00214
    H 13    0.29724      0.00000     0.70170    0.00106     0.70276     0.00063
    H 14    0.32409      0.00000     0.67516    0.00075     0.67591     0.00317
    H 15    0.32409      0.00000     0.67516    0.00075     0.67591     0.00317
    H 16    0.28499      0.00000     0.71436    0.00065     0.71501    -0.01022
    H 17    0.29159      0.00000     0.70777    0.00064     0.70841    -0.00036
 ===============================================================================
 * Total *  1.00000     45.99751    48.86778    0.13472    95.00000     1.00000

                                 Natural Population
 ---------------------------------------------------------
   Core                      45.99751 ( 99.9946% of   46)
   Valence                   48.86778 ( 99.7302% of   49)
   Natural Minimal Basis     94.86528 ( 99.8582% of   95)
   Natural Rydberg Basis      0.13472 (  0.1418% of   95)
 ---------------------------------------------------------

    Atom No         Natural Electron Configuration
 ----------------------------------------------------------------------------
     Br  1      [core]4s( 1.88)4p( 4.83)4d( 0.01)5p( 0.01)
      C  2      [core]2s( 0.96)2p( 3.06)3p( 0.02)
      C  3      [core]2s( 0.96)2p( 3.25)3p( 0.01)
      C  4      [core]2s( 0.95)2p( 3.20)3p( 0.01)
      C  5      [core]2s( 0.87)2p( 3.10)3p( 0.01)
      C  6      [core]2s( 0.86)2p( 3.09)3p( 0.01)
      C  7      [core]2s( 0.94)2p( 3.27)3p( 0.01)
      C  8      [core]2s( 1.04)2p( 3.52)3p( 0.01)
      C  9      [core]2s( 0.99)2p( 3.02)3p( 0.01)
      C 10      [core]2s( 0.98)2p( 3.22)3p( 0.01)
      H 11            1s( 0.70)
      H 12            1s( 0.71)
      H 13            1s( 0.70)
      H 14            1s( 0.68)
      H 15            1s( 0.68)
      H 16            1s( 0.71)
      H 17            1s( 0.71)


 ***************************************************
 *******         Alpha spin orbitals         *******
 ***************************************************


 NATURAL POPULATIONS:  Natural atomic orbital occupancies

  NAO Atom No lang   Type(AO)    Occupancy      Energy
 -------------------------------------------------------
   1   Br  1  s      Cor( 3s)     1.00000     -19.65546
   2   Br  1  s      Cor( 1s)     1.00000    -452.56912
   3   Br  1  s      Cor( 2s)     1.00000     -79.93284
   4   Br  1  s      Val( 4s)     0.94190      -0.94806
   5   Br  1  s      Ryd( 5s)     0.00149       0.70036
   6   Br  1  px     Cor( 3p)     1.00000      -7.41068
   7   Br  1  px     Cor( 2p)     0.99999     -55.79169
   8   Br  1  px     Val( 4p)     0.54365      -0.39565
   9   Br  1  px     Ryd( 5p)     0.00173       0.58135
  10   Br  1  py     Cor( 3p)     1.00000      -7.39569
  11   Br  1  py     Cor( 2p)     1.00000     -55.78795
  12   Br  1  py     Val( 4p)     0.97199      -0.52268
  13   Br  1  py     Ryd( 5p)     0.00075       0.60987
  14   Br  1  pz     Cor( 3p)     1.00000      -7.39921
  15   Br  1  pz     Cor( 2p)     1.00000     -55.78907
  16   Br  1  pz     Val( 4p)     0.97227      -0.53148
  17   Br  1  pz     Ryd( 5p)     0.00037       0.56869
  18   Br  1  dxy    Cor( 3d)     0.99983      -2.94999
  19   Br  1  dxy    Ryd( 4d)     0.00072       0.75591
  20   Br  1  dxz    Cor( 3d)     0.99994      -2.95254
  21   Br  1  dxz    Ryd( 4d)     0.00098       0.54182
  22   Br  1  dyz    Cor( 3d)     1.00000      -2.94077
  23   Br  1  dyz    Ryd( 4d)     0.00006       0.47898
  24   Br  1  dx2y2  Cor( 3d)     0.99973      -2.95013
  25   Br  1  dx2y2  Ryd( 4d)     0.00220       0.81400
  26   Br  1  dz2    Cor( 3d)     0.99990      -2.94560
  27   Br  1  dz2    Ryd( 4d)     0.00083       0.58619

  28    C  2  s      Cor( 1s)     0.99995     -10.49850
  29    C  2  s      Val( 2s)     0.48352      -0.35359
  30    C  2  s      Ryd( 3s)     0.00029       0.54424
  31    C  2  px     Val( 2p)     0.51812      -0.32300
  32    C  2  px     Ryd( 3p)     0.00345       1.16139
  33    C  2  py     Val( 2p)     0.55485      -0.25184
  34    C  2  py     Ryd( 3p)     0.00426       0.93614
  35    C  2  pz     Val( 2p)     0.56886      -0.37076
  36    C  2  pz     Ryd( 3p)     0.00043       0.75346

  37    C  3  s      Cor( 1s)     0.99993     -10.43057
  38    C  3  s      Val( 2s)     0.47912      -0.26849
  39    C  3  s      Ryd( 3s)     0.00056       0.56879
  40    C  3  px     Val( 2p)     0.57523      -0.22855
  41    C  3  px     Ryd( 3p)     0.00353       0.99897
  42    C  3  py     Val( 2p)     0.57386      -0.23970
  43    C  3  py     Ryd( 3p)     0.00278       1.03970
  44    C  3  pz     Val( 2p)     0.47979      -0.29896
  45    C  3  pz     Ryd( 3p)     0.00020       0.75675

  46    C  4  s      Cor( 1s)     0.99992     -10.43416
  47    C  4  s      Val( 2s)     0.47642      -0.25826
  48    C  4  s      Ryd( 3s)     0.00045       0.56923
  49    C  4  px     Val( 2p)     0.53515      -0.20011
  50    C  4  px     Ryd( 3p)     0.00282       0.87648
  51    C  4  py     Val( 2p)     0.60620      -0.24814
  52    C  4  py     Ryd( 3p)     0.00300       1.18137
  53    C  4  pz     Val( 2p)     0.49083      -0.30328
  54    C  4  pz     Ryd( 3p)     0.00018       0.75460

  55    C  5  s      Cor( 1s)     0.99995     -10.45693
  56    C  5  s      Val( 2s)     0.43790      -0.23763
  57    C  5  s      Ryd( 3s)     0.00058       0.56250
  58    C  5  px     Val( 2p)     0.55443      -0.24113
  59    C  5  px     Ryd( 3p)     0.00231       1.31852
  60    C  5  py     Val( 2p)     0.55022      -0.23258
  61    C  5  py     Ryd( 3p)     0.00266       1.23173
  62    C  5  pz     Val( 2p)     0.53060      -0.33257
  63    C  5  pz     Ryd( 3p)     0.00009       0.79987

  64    C  6  s      Cor( 1s)     0.99996     -10.44752
  65    C  6  s      Val( 2s)     0.43043      -0.23020
  66    C  6  s      Ryd( 3s)     0.00058       0.56982
  67    C  6  px     Val( 2p)     0.55404      -0.22272
  68    C  6  px     Ryd( 3p)     0.00255       1.30983
  69    C  6  py     Val( 2p)     0.53174      -0.22720
  70    C  6  py     Ryd( 3p)     0.00214       1.15467
  71    C  6  pz     Val( 2p)     0.50087      -0.31245
  72    C  6  pz     Ryd( 3p)     0.00050       0.81239

  73    C  7  s      Cor( 1s)     0.99992     -10.43207
  74    C  7  s      Val( 2s)     0.47108      -0.25074
  75    C  7  s      Ryd( 3s)     0.00070       0.55477
  76    C  7  px     Val( 2p)     0.53659      -0.20664
  77    C  7  px     Ryd( 3p)     0.00346       0.84447
  78    C  7  py     Val( 2p)     0.61035      -0.26246
  79    C  7  py     Ryd( 3p)     0.00320       1.16794
  80    C  7  pz     Val( 2p)     0.47269      -0.29597
  81    C  7  pz     Ryd( 3p)     0.00017       0.75854

  82    C  8  s      Cor( 1s)     0.99988     -10.41773
  83    C  8  s      Val( 2s)     0.52019      -0.33936
  84    C  8  s      Ryd( 3s)     0.00033       1.01032
  85    C  8  px     Val( 2p)     0.50943      -0.24968
  86    C  8  px     Ryd( 3p)     0.00143       0.78845
  87    C  8  py     Val( 2p)     0.59499      -0.27890
  88    C  8  py     Ryd( 3p)     0.00110       0.79543
  89    C  8  pz     Val( 2p)     0.65051      -0.31090
  90    C  8  pz     Ryd( 3p)     0.00044       0.90039

  91    C  9  s      Cor( 1s)     0.99994     -10.45007
  92    C  9  s      Val( 2s)     0.50358      -0.32118
  93    C  9  s      Ryd( 3s)     0.00038       0.56269
  94    C  9  px     Val( 2p)     0.59993      -0.25513
  95    C  9  px     Ryd( 3p)     0.00224       1.14568
  96    C  9  py     Val( 2p)     0.52985      -0.21601
  97    C  9  py     Ryd( 3p)     0.00204       0.79659
  98    C  9  pz     Val( 2p)     0.53839      -0.34186
  99    C  9  pz     Ryd( 3p)     0.00061       0.72846

 100    C 10  s      Cor( 1s)     0.99992     -10.43433
 101    C 10  s      Val( 2s)     0.48679      -0.27716
 102    C 10  s      Ryd( 3s)     0.00032       0.54959
 103    C 10  px     Val( 2p)     0.53646      -0.22021
 104    C 10  px     Ryd( 3p)     0.00248       0.91878
 105    C 10  py     Val( 2p)     0.59880      -0.24702
 106    C 10  py     Ryd( 3p)     0.00291       1.07292
 107    C 10  pz     Val( 2p)     0.47443      -0.30309
 108    C 10  pz     Ryd( 3p)     0.00019       0.74214

 109    H 11  s      Val( 1s)     0.34942       0.00995
 110    H 11  s      Ryd( 2s)     0.00054       0.45965

 111    H 12  s      Val( 1s)     0.35319       0.00343
 112    H 12  s      Ryd( 2s)     0.00037       0.45672

 113    H 13  s      Val( 1s)     0.35117       0.00106
 114    H 13  s      Ryd( 2s)     0.00052       0.45916

 115    H 14  s      Val( 1s)     0.33915      -0.01424
 116    H 14  s      Ryd( 2s)     0.00039       0.45729

 117    H 15  s      Val( 1s)     0.33915      -0.01424
 118    H 15  s      Ryd( 2s)     0.00039       0.45729

 119    H 16  s      Val( 1s)     0.35207       0.00316
 120    H 16  s      Ryd( 2s)     0.00033       0.43099

 121    H 17  s      Val( 1s)     0.35371       0.00800
 122    H 17  s      Ryd( 2s)     0.00032       0.44121


 Summary of Natural Population Analysis:

                                     Natural Population
             Natural    ---------------------------------------------
  Atom No    Charge        Core      Valence    Rydberg      Total
 --------------------------------------------------------------------
   Br  1    0.06168     13.99939     3.42981    0.00912    17.43832
    C  2   -0.13372      0.99995     2.12535    0.00843     3.13372
    C  3   -0.11499      0.99993     2.10800    0.00706     3.11499
    C  4   -0.11497      0.99992     2.10860    0.00645     3.11497
    C  5   -0.07875      0.99995     2.07315    0.00564     3.07875
    C  6   -0.02280      0.99996     2.01708    0.00576     3.02280
    C  7   -0.09815      0.99992     2.09071    0.00752     3.09815
    C  8   -0.27830      0.99988     2.27512    0.00330     3.27830
    C  9   -0.17697      0.99994     2.17175    0.00527     3.17697
    C 10   -0.10231      0.99992     2.09647    0.00591     3.10231
    H 11    0.15004      0.00000     0.34942    0.00054     0.34996
    H 12    0.14644      0.00000     0.35319    0.00037     0.35356
    H 13    0.14831      0.00000     0.35117    0.00052     0.35169
    H 14    0.16046      0.00000     0.33915    0.00039     0.33954
    H 15    0.16046      0.00000     0.33915    0.00039     0.33954
    H 16    0.14761      0.00000     0.35207    0.00033     0.35239
    H 17    0.14597      0.00000     0.35371    0.00032     0.35403
 ====================================================================
 * Total *  0.00000     22.99876    24.93391    0.06734    48.00000

                                 Natural Population
 ---------------------------------------------------------
   Core                      22.99876 ( 99.9946% of   23)
   Valence                   24.93391 ( 99.7356% of   25)
   Natural Minimal Basis     47.93266 ( 99.8597% of   48)
   Natural Rydberg Basis      0.06734 (  0.1403% of   48)
 ---------------------------------------------------------

    Atom No         Natural Electron Configuration
 ----------------------------------------------------------------------------
     Br  1      [core]4s( 0.94)4p( 2.49)
      C  2      [core]2s( 0.48)2p( 1.64)3p( 0.01)
      C  3      [core]2s( 0.48)2p( 1.63)3p( 0.01)
      C  4      [core]2s( 0.48)2p( 1.63)3p( 0.01)
      C  5      [core]2s( 0.44)2p( 1.64)3p( 0.01)
      C  6      [core]2s( 0.43)2p( 1.59)3p( 0.01)
      C  7      [core]2s( 0.47)2p( 1.62)3p( 0.01)
      C  8      [core]2s( 0.52)2p( 1.75)
      C  9      [core]2s( 0.50)2p( 1.67)
      C 10      [core]2s( 0.49)2p( 1.61)3p( 0.01)
      H 11            1s( 0.35)
      H 12            1s( 0.35)
      H 13            1s( 0.35)
      H 14            1s( 0.34)
      H 15            1s( 0.34)
      H 16            1s( 0.35)
      H 17            1s( 0.35)


 NATURAL BOND ORBITAL ANALYSIS, alpha spin orbitals:

                            Occupancies       Lewis Structure    Low   High
         Max    Occ     -------------------  -----------------   occ   occ
  Cycle  Ctr   Thresh    Lewis   non-Lewis     CR  BD  nC  LP    (L)   (NL)
 ============================================================================
    1     2     0.95    46.31737   1.68263     23  19   0   6     3      3
    2     2     0.84    46.59590   1.40410     23  20   0   5     2      3
    3     2     0.82    46.89005   1.10995     23  21   0   4     1      3
    4     2     0.81    47.20820   0.79180     23  22   0   3     0      3
 ----------------------------------------------------------------------------

 Structure accepted: No low occupancy Lewis orbitals

 -------------------------------------------------------
   Core                     22.99876 ( 99.995% of  23)
   Valence Lewis            24.20944 ( 96.838% of  25)
  ==================      =============================
   Total Lewis              47.20820 ( 98.350% of  48)
  -----------------------------------------------------
   Valence non-Lewis         0.74680 (  1.556% of  48)
   Rydberg non-Lewis         0.04500 (  0.094% of  48)
  ==================      =============================
   Total non-Lewis           0.79180 (  1.650% of  48)
 -------------------------------------------------------


     (Occupancy)   Bond orbital / Coefficients / Hybrids
 ------------------ Lewis ------------------------------------------------------
   1. (1.00000) CR ( 1)Br  1            s(100.00%)
                                         1.0000  0.0000  0.0000  0.0000  0.0000
                                         0.0000  0.0000  0.0000  0.0000  0.0000
                                         0.0000  0.0000  0.0000  0.0000  0.0000
                                         0.0000  0.0000  0.0000  0.0000  0.0000
                                         0.0000  0.0000  0.0000  0.0000  0.0000
                                         0.0000  0.0000
   2. (1.00000) CR ( 2)Br  1            s(100.00%)
                                         0.0000  1.0000  0.0000  0.0000  0.0000
                                         0.0000  0.0000  0.0000  0.0000  0.0000
                                         0.0000  0.0000  0.0000  0.0000  0.0000
                                         0.0000  0.0000  0.0000  0.0000  0.0000
                                         0.0000  0.0000  0.0000  0.0000  0.0000
                                         0.0000  0.0000
   3. (1.00000) CR ( 3)Br  1            s(100.00%)
                                         0.0000  0.0000  1.0000  0.0000  0.0000
                                         0.0000  0.0000  0.0000  0.0000  0.0000
                                         0.0000  0.0000  0.0000  0.0000  0.0000
                                         0.0000  0.0000  0.0000  0.0000  0.0000
                                         0.0000  0.0000  0.0000  0.0000  0.0000
                                         0.0000  0.0000
   4. (1.00000) CR ( 4)Br  1            s(  0.00%)p 1.00(100.00%)
                                         0.0000  0.0000  0.0000  0.0000  0.0000
                                         1.0000  0.0000  0.0000  0.0000  0.0000
                                         0.0000  0.0000  0.0000  0.0000  0.0000
                                         0.0000  0.0000  0.0000  0.0000  0.0000
                                         0.0000  0.0000  0.0000  0.0000  0.0000
                                         0.0000  0.0000
   5. (0.99999) CR ( 5)Br  1            s(  0.00%)p 1.00(100.00%)
                                         0.0000  0.0000  0.0000  0.0000  0.0000
                                         0.0000  1.0000  0.0000  0.0000  0.0000
                                         0.0000  0.0000  0.0000  0.0000  0.0000
                                         0.0000  0.0000  0.0000  0.0000  0.0000
                                         0.0000  0.0000  0.0000  0.0000  0.0000
                                         0.0000  0.0000
   6. (1.00000) CR ( 6)Br  1            s(  0.00%)p 1.00(100.00%)
                                         0.0000  0.0000  0.0000  0.0000  0.0000
                                         0.0000  0.0000  0.0000  0.0000  1.0000
                                         0.0000  0.0000  0.0000  0.0000  0.0000
                                         0.0000  0.0000  0.0000  0.0000  0.0000
                                         0.0000  0.0000  0.0000  0.0000  0.0000
                                         0.0000  0.0000
   7. (1.00000) CR ( 7)Br  1            s(  0.00%)p 1.00(100.00%)
                                         0.0000  0.0000  0.0000  0.0000  0.0000
                                         0.0000  0.0000  0.0000  0.0000  0.0000
                                         1.0000  0.0000  0.0000  0.0000  0.0000
                                         0.0000  0.0000  0.0000  0.0000  0.0000
                                         0.0000  0.0000  0.0000  0.0000  0.0000
                                         0.0000  0.0000
   8. (1.00000) CR ( 8)Br  1            s(  0.00%)p 1.00(100.00%)
                                         0.0000  0.0000  0.0000  0.0000  0.0000
                                         0.0000  0.0000  0.0000  0.0000  0.0000
                                         0.0000  0.0000  0.0000  1.0000  0.0000
                                         0.0000  0.0000  0.0000  0.0000  0.0000
                                         0.0000  0.0000  0.0000  0.0000  0.0000
                                         0.0000  0.0000
   9. (1.00000) CR ( 9)Br  1            s(  0.00%)p 1.00(100.00%)
                                         0.0000  0.0000  0.0000  0.0000  0.0000
                                         0.0000  0.0000  0.0000  0.0000  0.0000
                                         0.0000  0.0000  0.0000  0.0000  1.0000
                                         0.0000  0.0000  0.0000  0.0000  0.0000
                                         0.0000  0.0000  0.0000  0.0000  0.0000
                                         0.0000  0.0000
  10. (0.99983) CR (10)Br  1            s(  0.00%)p 0.00(  0.00%)d 1.00(100.00%)
                                         0.0000  0.0000  0.0000  0.0000  0.0000
                                         0.0000  0.0000  0.0000  0.0000  0.0000
                                         0.0000  0.0000  0.0000  0.0000  0.0000
                                         0.0000  0.0000  1.0000  0.0000  0.0000
                                         0.0000  0.0000  0.0000  0.0000  0.0000
                                         0.0000  0.0000
  11. (0.99994) CR (11)Br  1            s(  0.00%)p 0.00(  0.00%)d 1.00(100.00%)
                                         0.0000  0.0000  0.0000  0.0000  0.0000
                                         0.0000  0.0000  0.0000  0.0000  0.0000
                                         0.0000  0.0000  0.0000  0.0000  0.0000
                                         0.0000  0.0000  0.0000  0.0000  1.0000
                                         0.0000  0.0000  0.0000  0.0000  0.0000
                                         0.0000  0.0000
  12. (1.00000) CR (12)Br  1            s(  0.00%)p 0.00(  0.00%)d 1.00(100.00%)
                                         0.0000  0.0000  0.0000  0.0000  0.0000
                                         0.0000  0.0000  0.0000  0.0000  0.0000
                                         0.0000  0.0000  0.0000  0.0000  0.0000
                                         0.0000  0.0000  0.0000  0.0000  0.0000
                                         0.0000  1.0000  0.0000  0.0000  0.0000
                                         0.0000  0.0000
  13. (0.99973) CR (13)Br  1            s(  0.00%)p 0.00(  0.00%)d 1.00(100.00%)
                                         0.0000  0.0000  0.0000  0.0000  0.0000
                                         0.0000  0.0000  0.0000  0.0000  0.0000
                                         0.0000  0.0000  0.0000  0.0000  0.0000
                                         0.0000  0.0000  0.0000  0.0000  0.0000
                                         0.0000  0.0000  0.0000  1.0000  0.0000
                                         0.0000  0.0000
  14. (0.99990) CR (14)Br  1            s(  0.00%)p 0.00(  0.00%)d 1.00(100.00%)
                                         0.0000  0.0000  0.0000  0.0000  0.0000
                                         0.0000  0.0000  0.0000  0.0000  0.0000
                                         0.0000  0.0000  0.0000  0.0000  0.0000
                                         0.0000  0.0000  0.0000  0.0000  0.0000
                                         0.0000  0.0000  0.0000  0.0000  0.0000
                                         1.0000  0.0000
  15. (0.99995) CR ( 1) C  2            s(100.00%)
                                         1.0000  0.0000  0.0000  0.0000  0.0000
                                         0.0000  0.0000  0.0000  0.0000
  16. (0.99993) CR ( 1) C  3            s(100.00%)
                                         1.0000  0.0000  0.0000  0.0000  0.0000
                                         0.0000  0.0000  0.0000  0.0000
  17. (0.99992) CR ( 1) C  4            s(100.00%)
                                         1.0000  0.0000  0.0000  0.0000  0.0000
                                         0.0000  0.0000  0.0000  0.0000
  18. (0.99995) CR ( 1) C  5            s(100.00%)
                                         1.0000  0.0000  0.0000  0.0000  0.0000
[...]
   37. BD ( 1) C  6- C  7      51. BD*( 1) C  2- C  7      1.39    1.37   0.055
   37. BD ( 1) C  6- C  7      57. BD*( 1) C  5- C  6      1.77    1.35   0.062
   37. BD ( 1) C  6- C  7      58. BD*( 1) C  5- C 10      0.53    1.30   0.033
   37. BD ( 1) C  6- C  7      61. BD*( 1) C  6- C  8      1.52    1.23   0.054
   37. BD ( 1) C  6- C  7      62. BD*( 1) C  7- H 13      1.11    1.32   0.048
   37. BD ( 1) C  6- C  7      80. RY ( 1) C  2            0.98    1.82   0.053
   37. BD ( 1) C  6- C  7      81. RY ( 2) C  2            0.45    2.08   0.039
   37. BD ( 1) C  6- C  7      92. RY ( 1) C  5            0.87    2.20   0.055
   37. BD ( 1) C  6- C  7     104. RY ( 1) C  8            0.51    1.69   0.037
   38. BD ( 2) C  6- C  7      49. BD*( 2)Br  1- C  2     36.73    0.28   0.127
   38. BD ( 2) C  6- C  7      64. BD*( 1) C  8- H 14      0.87    0.89   0.035
   38. BD ( 2) C  6- C  7      65. BD*( 1) C  8- H 15      0.87    0.89   0.035
   38. BD ( 2) C  6- C  7      69. 3Cn( 1)C5-C9-C10       16.80    0.29   0.088
   38. BD ( 2) C  6- C  7      70. 3C*( 1)C5-C9-C10        0.90    0.47   0.026
   38. BD ( 2) C  6- C  7      82. RY ( 3) C  2            0.46    1.28   0.031
   38. BD ( 2) C  6- C  7      95. RY ( 4) C  5            0.26    1.32   0.023
   39. BD ( 1) C  6- C  8      51. BD*( 1) C  2- C  7      0.71    1.29   0.038
   39. BD ( 1) C  6- C  8      55. BD*( 1) C  4- C  5      1.32    1.32   0.053
   39. BD ( 1) C  6- C  8      57. BD*( 1) C  5- C  6      0.86    1.28   0.042
   39. BD ( 1) C  6- C  8      58. BD*( 1) C  5- C 10      0.43    1.22   0.029
   39. BD ( 1) C  6- C  8      59. BD*( 1) C  6- C  7      1.62    1.34   0.059
   39. BD ( 1) C  6- C  8      63. BD*( 1) C  8- C  9      0.41    1.15   0.027
   39. BD ( 1) C  6- C  8      64. BD*( 1) C  8- H 14      0.48    1.20   0.030
   39. BD ( 1) C  6- C  8      65. BD*( 1) C  8- H 15      0.48    1.20   0.030
   39. BD ( 1) C  6- C  8      66. BD*( 1) C  9- C 10      0.29    1.38   0.025
   39. BD ( 1) C  6- C  8      67. BD*( 1) C  9- H 16      0.99    1.26   0.045
   39. BD ( 1) C  6- C  8      93. RY ( 2) C  5            0.57    2.06   0.043
   39. BD ( 1) C  6- C  8     100. RY ( 1) C  7            0.97    1.96   0.055
   40. BD ( 1) C  7- H 13      48. BD*( 1)Br  1- C  2      0.46    0.75   0.024
   40. BD ( 1) C  7- H 13      50. BD*( 1) C  2- C  3      1.38    1.23   0.052
   40. BD ( 1) C  7- H 13      51. BD*( 1) C  2- C  7      0.53    1.23   0.032
   40. BD ( 1) C  7- H 13      57. BD*( 1) C  5- C  6      1.63    1.21   0.056
   40. BD ( 1) C  7- H 13      59. BD*( 1) C  6- C  7      0.78    1.27   0.040
   40. BD ( 1) C  7- H 13      61. BD*( 1) C  6- C  8      0.26    1.09   0.021
   40. BD ( 1) C  7- H 13      81. RY ( 2) C  2            0.81    1.94   0.050
   40. BD ( 1) C  7- H 13      96. RY ( 1) C  6            0.93    2.09   0.056
   41. BD ( 1) C  8- C  9      57. BD*( 1) C  5- C  6      0.42    1.27   0.029
   41. BD ( 1) C  8- C  9      58. BD*( 1) C  5- C 10      0.73    1.22   0.038
   41. BD ( 1) C  8- C  9      59. BD*( 1) C  6- C  7      1.61    1.34   0.059
   41. BD ( 1) C  8- C  9      61. BD*( 1) C  6- C  8      0.43    1.16   0.028
   41. BD ( 1) C  8- C  9      64. BD*( 1) C  8- H 14      0.43    1.20   0.029
   41. BD ( 1) C  8- C  9      65. BD*( 1) C  8- H 15      0.43    1.20   0.029
   41. BD ( 1) C  8- C  9      66. BD*( 1) C  9- C 10      0.57    1.38   0.035
   41. BD ( 1) C  8- C  9      68. BD*( 1) C 10- H 17      1.95    1.26   0.063
   41. BD ( 1) C  8- C  9      97. RY ( 2) C  6            0.34    1.92   0.032
   41. BD ( 1) C  8- C  9     113. RY ( 2) C 10            0.96    1.69   0.051
   42. BD ( 1) C  8- H 14      57. BD*( 1) C  5- C  6      0.34    1.19   0.025
   42. BD ( 1) C  8- H 14      60. BD*( 2) C  6- C  7      2.53    0.65   0.051
   42. BD ( 1) C  8- H 14      61. BD*( 1) C  6- C  8      0.31    1.07   0.023
   42. BD ( 1) C  8- H 14      63. BD*( 1) C  8- C  9      0.25    1.06   0.021
   42. BD ( 1) C  8- H 14      65. BD*( 1) C  8- H 15      0.27    1.11   0.022
   42. BD ( 1) C  8- H 14      69. 3Cn( 1)C5-C9-C10        2.38    0.52   0.044
   42. BD ( 1) C  8- H 14      70. 3C*( 1)C5-C9-C10        2.20    0.70   0.050
   42. BD ( 1) C  8- H 14      98. RY ( 3) C  6            0.36    1.55   0.030
   42. BD ( 1) C  8- H 14     110. RY ( 3) C  9            0.36    1.48   0.029
   43. BD ( 1) C  8- H 15      57. BD*( 1) C  5- C  6      0.34    1.19   0.025
   43. BD ( 1) C  8- H 15      60. BD*( 2) C  6- C  7      2.53    0.65   0.051
   43. BD ( 1) C  8- H 15      61. BD*( 1) C  6- C  8      0.31    1.07   0.023
   43. BD ( 1) C  8- H 15      63. BD*( 1) C  8- C  9      0.25    1.06   0.021
   43. BD ( 1) C  8- H 15      64. BD*( 1) C  8- H 14      0.27    1.11   0.022
   43. BD ( 1) C  8- H 15      69. 3Cn( 1)C5-C9-C10        2.38    0.52   0.044
   43. BD ( 1) C  8- H 15      70. 3C*( 1)C5-C9-C10        2.20    0.70   0.050
   43. BD ( 1) C  8- H 15      98. RY ( 3) C  6            0.36    1.55   0.030
   43. BD ( 1) C  8- H 15     110. RY ( 3) C  9            0.36    1.48   0.029
   44. BD ( 1) C  9- C 10      55. BD*( 1) C  4- C  5      1.34    1.42   0.055
   44. BD ( 1) C  9- C 10      58. BD*( 1) C  5- C 10      0.87    1.32   0.043
   44. BD ( 1) C  9- C 10      61. BD*( 1) C  6- C  8      0.37    1.25   0.027
   44. BD ( 1) C  9- C 10      63. BD*( 1) C  8- C  9      0.51    1.24   0.032
   44. BD ( 1) C  9- C 10      67. BD*( 1) C  9- H 16      0.90    1.35   0.044
   44. BD ( 1) C  9- C 10      68. BD*( 1) C 10- H 17      1.18    1.35   0.050
   44. BD ( 1) C  9- C 10      92. RY ( 1) C  5            0.68    2.22   0.049
   44. BD ( 1) C  9- C 10      93. RY ( 2) C  5            0.46    2.15   0.040
   44. BD ( 1) C  9- C 10     105. RY ( 2) C  8            0.61    1.70   0.041
   45. BD ( 1) C  9- H 16      58. BD*( 1) C  5- C 10      1.29    1.17   0.049
   45. BD ( 1) C  9- H 16      61. BD*( 1) C  6- C  8      0.62    1.10   0.033
   45. BD ( 1) C  9- H 16      66. BD*( 1) C  9- C 10      0.57    1.33   0.035
   45. BD ( 1) C  9- H 16     104. RY ( 1) C  8            0.27    1.57   0.026
   45. BD ( 1) C  9- H 16     112. RY ( 1) C 10            0.66    1.89   0.044
   46. BD ( 1) C 10- H 17      57. BD*( 1) C  5- C  6      0.73    1.22   0.038
   46. BD ( 1) C 10- H 17      58. BD*( 1) C  5- C 10      0.33    1.17   0.025
   46. BD ( 1) C 10- H 17      63. BD*( 1) C  8- C  9      1.19    1.09   0.045
   46. BD ( 1) C 10- H 17      66. BD*( 1) C  9- C 10      0.79    1.32   0.041
   46. BD ( 1) C 10- H 17      92. RY ( 1) C  5            0.57    2.07   0.043
   46. BD ( 1) C 10- H 17     108. RY ( 1) C  9            0.70    1.93   0.046
   47. 3C ( 1)C5-C9-C10        53. BD*( 2) C  3- C  4      6.73    0.48   0.071
   47. 3C ( 1)C5-C9-C10        60. BD*( 2) C  6- C  7      9.30    0.48   0.084
   47. 3C ( 1)C5-C9-C10        64. BD*( 1) C  8- H 14      0.75    0.94   0.034
   47. 3C ( 1)C5-C9-C10        65. BD*( 1) C  8- H 15      0.75    0.94   0.034
   47. 3C ( 1)C5-C9-C10        69. 3Cn( 1)C5-C9-C10        0.84    0.34   0.021
   47. 3C ( 1)C5-C9-C10        91. RY ( 4) C  4            0.34    1.31   0.027


 NATURAL BOND ORBITALS (Summary):

                                                     Principal Delocalizations
           NBO                 Occupancy    Energy   (geminal,vicinal,remote)
 ===============================================================================
 Molecular unit  1  (C9H7Br)
 ------ Lewis --------------------------------------
    1. CR ( 1)Br  1             1.00000   -19.65481
    2. CR ( 2)Br  1             1.00000  -452.56862
    3. CR ( 3)Br  1             1.00000   -79.93264
    4. CR ( 4)Br  1             1.00000    -7.41052
    5. CR ( 5)Br  1             0.99999   -55.79153
    6. CR ( 6)Br  1             1.00000    -7.39544
    7. CR ( 7)Br  1             1.00000   -55.78773
    8. CR ( 8)Br  1             1.00000    -7.39753
    9. CR ( 9)Br  1             1.00000   -55.78790
   10. CR (10)Br  1             0.99983    -2.94991
   11. CR (11)Br  1             0.99993    -2.95181
   12. CR (12)Br  1             1.00000    -2.94002
   13. CR (13)Br  1             0.99973    -2.95005  73(g)
   14. CR (14)Br  1             0.99990    -2.94464
   15. CR ( 1) C  2             0.99995   -10.49499
   16. CR ( 1) C  3             0.99993   -10.43057
   17. CR ( 1) C  4             0.99992   -10.43342
   18. CR ( 1) C  5             0.99995   -10.45449
   19. CR ( 1) C  6             0.99996   -10.44632
   20. CR ( 1) C  7             0.99992   -10.43255
   21. CR ( 1) C  8             0.99988   -10.41803  106(g)
   22. CR ( 1) C  9             0.99994   -10.44576
   23. CR ( 1) C 10             0.99992   -10.43438
   24. LP ( 1)Br  1             0.99865    -0.92821  81(v)
   25. LP ( 2)Br  1             0.99038    -0.52535  50(v),51(v),80(v)
   26. BD ( 1)Br  1- C  2       0.99317    -0.79942  84(v),52(v),59(v),100(v)
   27. BD ( 2)Br  1- C  2       0.95980    -0.54340  53(v),60(v)
   28. BD ( 1) C  2- C  3       0.99114    -0.91376  51(g),52(g),54(g),89(v)
                                                     62(v),100(v),56(v),88(v)
                                                     101(v)
   29. BD ( 1) C  2- C  7       0.99031    -0.91123  61(v),50(g),59(g),62(g)
                                                     97(v),84(v),54(v),96(v)
                                                     85(v)
   30. BD ( 1) C  3- C  4       0.98731    -0.88391  48(v),58(v),50(g),55(g)
                                                     93(v),80(v),54(g),56(g)
                                                     81(v),92(v)
   31. BD ( 2) C  3- C  4       0.86018    -0.50035  49(v),69(v),70(v),82(v)
                                                     95(v)
   32. BD ( 1) C  3- H 11       0.99006    -0.74943  51(v),55(v),81(v),88(v)
                                                     52(g),48(v),50(g)
   33. BD ( 1) C  4- C  5       0.98881    -0.89395  57(g),58(g),85(v),52(g)
                                                     56(g),54(v),112(v),61(v)
                                                     96(v),97(v),84(v)
   34. BD ( 1) C  4- H 12       0.99068    -0.75162  57(v),50(v),84(v),93(v)
                                                     52(g),55(g),92(v)
   35. BD ( 1) C  5- C  6       0.98441    -0.87315  55(g),59(g),101(v),58(g)
                                                     62(v),56(v),68(v),61(g)
                                                     89(v),112(v),88(v),63(v)
                                                     105(v)
   36. BD ( 1) C  5- C 10       0.98768    -0.85428  55(g),67(v),59(v),88(v)
                                                     57(g),66(g),96(v),109(v)
                                                     68(g),52(v),63(v),108(v)
                                                     61(v)
   37. BD ( 1) C  6- C  7       0.98592    -0.89393  57(g),48(v),61(g),51(g)
                                                     62(g),80(v),92(v),58(v)
                                                     104(v),81(v)
   38. BD ( 2) C  6- C  7       0.85599    -0.50564  49(v),69(v),70(v),64(v)
                                                     65(v),82(v),95(v)
   39. BD ( 1) C  6- C  8       0.98852    -0.82229  59(g),55(v),67(v),100(v)
                                                     57(g),51(v),93(v),64(g)
                                                     65(g),58(v),63(g),66(v)
   40. BD ( 1) C  7- H 13       0.98985    -0.75414  57(v),50(v),96(v),81(v)
                                                     59(g),51(g),48(v),61(v)
   41. BD ( 1) C  8- C  9       0.99100    -0.82074  68(v),59(v),113(v),58(v)
                                                     66(g),64(g),65(g),61(g)
                                                     57(v),97(v)
   42. BD ( 1) C  8- H 14       0.97588    -0.73230  60(v),69(v),70(v),98(v)
                                                     110(v),57(v),61(g),65(g)
                                                     63(g)
   43. BD ( 1) C  8- H 15       0.97588    -0.73230  60(v),69(v),70(v),98(v)
                                                     110(v),57(v),61(g),64(g)
                                                     63(g)
   44. BD ( 1) C  9- C 10       0.99278    -0.91529  55(v),68(g),67(g),58(g)
                                                     92(v),105(v),63(g),93(v)
                                                     61(v)
   45. BD ( 1) C  9- H 16       0.99333    -0.76840  58(v),112(v),61(v),66(g)
                                                     104(v)
   46. BD ( 1) C 10- H 17       0.99283    -0.76481  63(v),66(g),57(v),108(v)
                                                     92(v),58(g)
   47. 3C ( 1) C  5- C  9- C 10 0.91791    -0.55495  60(v),53(v),69(g),64(v)
                                                     65(v),91(v)
 ------ non-Lewis ----------------------------------
   48. BD*( 1)Br  1- C  2       0.01204     0.00082
   49. BD*( 2)Br  1- C  2       0.20713    -0.23024
   50. BD*( 1) C  2- C  3       0.01062     0.47495
   51. BD*( 1) C  2- C  7       0.01055     0.47248
   52. BD*( 1) C  3- C  4       0.00740     0.50113
   53. BD*( 2) C  3- C  4       0.03917    -0.07854
   54. BD*( 1) C  3- H 11       0.00533     0.43374
   55. BD*( 1) C  4- C  5       0.01060     0.50107
   56. BD*( 1) C  4- H 12       0.00534     0.43053
   57. BD*( 1) C  5- C  6       0.01323     0.45318
   58. BD*( 1) C  5- C 10       0.01149     0.40147
   59. BD*( 1) C  6- C  7       0.01124     0.51567
   60. BD*( 2) C  6- C  7       0.05349    -0.07971
   61. BD*( 1) C  6- C  8       0.00963     0.33526
   62. BD*( 1) C  7- H 13       0.00609     0.42437
   63. BD*( 1) C  8- C  9       0.00554     0.32458
   64. BD*( 1) C  8- H 14       0.00518     0.38009
   65. BD*( 1) C  8- H 15       0.00518     0.38009
   66. BD*( 1) C  9- C 10       0.00460     0.55842
   67. BD*( 1) C  9- H 16       0.00477     0.43879
   68. BD*( 1) C 10- H 17       0.00600     0.43654
   69. 3Cn( 1) C  5- C  9- C 10 0.12283    -0.21472
   70. 3C*( 1) C  5- C  9- C 10 0.01672    -0.03081
   71. RY ( 1)Br  1             0.00046     0.58848
   72. RY ( 2)Br  1             0.00033     0.51188
   73. RY ( 3)Br  1             0.00031     0.97106
   74. RY ( 4)Br  1             0.00011     0.64399
   75. RY ( 5)Br  1             0.00005     0.76878
   76. RY ( 6)Br  1             0.00002     0.48502
   77. RY ( 7)Br  1             0.00001     0.51229
   78. RY ( 8)Br  1             0.00001     0.61348
   79. RY ( 9)Br  1             0.00001     0.56304
   80. RY ( 1) C  2             0.00363     0.92155
   81. RY ( 2) C  2             0.00258     1.18110
   82. RY ( 3) C  2             0.00113     0.76988
   83. RY ( 4) C  2             0.00017     0.54347
   84. RY ( 1) C  3             0.00286     1.17401
   85. RY ( 2) C  3             0.00172     0.86094
   86. RY ( 3) C  3             0.00024     0.56229
   87. RY ( 4) C  3             0.00017     0.75941
   88. RY ( 1) C  4             0.00244     1.22858
   89. RY ( 2) C  4             0.00182     0.81726
   90. RY ( 3) C  4             0.00018     0.57124
   91. RY ( 4) C  4             0.00016     0.75978
   92. RY ( 1) C  5             0.00220     1.30920
   93. RY ( 2) C  5             0.00206     1.23532
   94. RY ( 3) C  5             0.00042     0.57657
   95. RY ( 4) C  5             0.00006     0.81041
   96. RY ( 1) C  6             0.00214     1.34033
   97. RY ( 2) C  6             0.00161     1.10047
   98. RY ( 3) C  6             0.00050     0.81789
   99. RY ( 4) C  6             0.00039     0.59867
  100. RY ( 1) C  7             0.00300     1.13684
  101. RY ( 2) C  7             0.00193     0.86014
  102. RY ( 3) C  7             0.00033     0.55732
  103. RY ( 4) C  7             0.00016     0.75914
  104. RY ( 1) C  8             0.00104     0.80063
  105. RY ( 2) C  8             0.00092     0.78353
  106. RY ( 3) C  8             0.00018     1.00053
  107. RY ( 4) C  8             0.00009     0.90428
  108. RY ( 1) C  9             0.00142     1.16736
  109. RY ( 2) C  9             0.00088     0.75290
  110. RY ( 3) C  9             0.00037     0.74721
  111. RY ( 4) C  9             0.00014     0.58757
  112. RY ( 1) C 10             0.00202     1.11686
  113. RY ( 2) C 10             0.00125     0.86861
  114. RY ( 3) C 10             0.00015     0.54461
  115. RY ( 4) C 10             0.00008     0.74556
  116. RY ( 1) H 11             0.00055     0.45804
  117. RY ( 1) H 12             0.00038     0.45553
  118. RY ( 1) H 13             0.00054     0.45739
  119. RY ( 1) H 14             0.00036     0.45635
  120. RY ( 1) H 15             0.00036     0.45635
  121. RY ( 1) H 16             0.00033     0.43040
  122. RY ( 1) H 17             0.00032     0.43967
          -------------------------------
                 Total Lewis   46.37122  ( 98.6622%)
           Valence non-Lewis    0.58418  (  1.2429%)
           Rydberg non-Lewis    0.04459  (  0.0949%)
          -------------------------------
               Total unit  1   47.00000  (100.0000%)
              Charge unit  1    1.00000

 $CHOOSE
  ALPHA
   LONE 1 3 END
   BOND S 1 2 D 2 3 S 2 7 S 3 4 S 3 11 D 4 5 S 4 12 S 5 6 S 5 10 D 6 7 S 6 8
        S 7 13 S 8 9 S 8 14 S 8 15 D 9 10 S 9 16 S 10 17 END
  END
  BETA
   LONE 1 2 END
   BOND D 1 2 S 2 3 S 2 7 D 3 4 S 3 11 S 4 5 S 4 12 S 5 6 S 5 10 D 6 7 S 6 8
        S 7 13 S 8 9 S 8 14 S 8 15 S 9 10 S 9 16 S 10 17 END
     3C S 5 9 10 END
  END
 $END

 NBO analysis completed in 0.73 CPU seconds (1 wall second)
 Maximum scratch memory used by NBO was 577641 words (4.41 MB)
 Maximum scratch memory used by G16NBO was 38735 words (0.30 MB)

 Opening RunExU unformatted file "/home/rpaton/arbr500/xtb/fukui/Gau-2142227.EUF"
 Read unf file /home/rpaton/arbr500/xtb/fukui/Gau-2142227.EUF:
 Label Gaussian matrix elements                                         IVers= 2 NLab= 2 Version=ES64L-G16RevC.01
 Title energy: -26.906191220599 gnorm: 0.000555879614 xtb: 6.7.0 (08769
 NAtoms=    17 NBasis=   122 NBsUse=   122 ICharg=     1 Multip=     2 NE=    95 Len12L=8 Len4L=8 IOpCl= 1 ICGU=112
 GAUSSIAN SCALARS                    NI= 1 NR= 1 NTot=       1 LenBuf=    2 NRI=1 N=    1000
 NPA CHARGES                         NI= 0 NR= 1 NTot=      17 LenBuf= 2048 NRI=1 N=      17
 Recovered energy= -2906.75318711     dipole=     -2.506678550847      0.022468383410     -0.000006508037
 Unable to Open any file for archive entry.
 1\1\GINC-DYNAMO\SP\UwB97XD\MIDIx\C9H7Br1(1+,2)\RPATON\28-Sep-2024\0\\#
  wb97xd midix pop(nbo6,hirshfeld)\\energy: -26.906191220599 gnorm: 0.0
 00555879614 xtb: 6.7.0 (08769fc)\\1,2\Br,0,-2.64822,-0.20666,0.\C,0,-0
 .77531,0.16473,-0.00001\C,0,-0.35488,1.48639,0.\C,0,0.99834,1.77915,0.
 00001\C,0,1.90759,0.73246,0.00001\C,0,1.46155,-0.6007,0.\C,0,0.11683,-
 0.89876,0.\C,0,2.6502,-1.50914,0.\C,0,3.7932,-0.54132,0.00001\C,0,3.35
 613,0.72312,0.00001\H,0,-1.08639,2.28009,0.\H,0,1.33235,2.80574,0.0000
 1\H,0,-0.24034,-1.91759,0.\H,0,2.66891,-2.15785,-0.87911\H,0,2.66891,-
 2.15785,0.87911\H,0,4.81771,-0.86782,0.00001\H,0,3.95869,1.61368,0.000
 02\\Version=ES64L-G16RevC.01\State=2-A\HF=-2906.7531871\S2=0.773016\S2
 -1=0.\S2A=0.750184\RMSD=9.234e-09\Dipole=2.5067215,0.0170178,0.0000065
 \Quadrupole=17.2015955,-2.0250041,-15.1765914,-1.7959239,0.000058,0.00
 00246\PG=C01 [X(C9H7Br1)]\\@
 The archive entry for this job was punched.


 ONE BIG VICE IN A MAN IS APT TO KEEP OUT MANY SMALLER ONES.

                           -- BRET HARTE
 Job cpu time:       0 days  0 hours  5 minutes 31.0 seconds.
 Elapsed time:       0 days  0 hours  0 minutes 14.0 seconds.
 File lengths (MBytes):  RWF=     20 Int=      0 D2E=      0 Chk=      2 Scr=      1
 Normal termination of Gaussian 16 at Sat Sep 28 19:20:27 2024.
