 Entering Gaussian System, Link 0=/usr/local/Gaussian/G16C/g16/g16
 Input=arbr35_xtbopt_oxd.com
 Output=arbr35_xtbopt_oxd.log
 Initial command:
 /usr/local/Gaussian/G16C/g16/l1.exe "/home/rpaton/arbr500/xtb/fukui/Gau-2136524.inp" -scrdir="/home/rpaton/arbr500/xtb/fukui/"
 Entering Link 1 = /usr/local/Gaussian/G16C/g16/l1.exe PID=   2136525.
  
 Copyright (c) 1988-2019, Gaussian, Inc.  All Rights Reserved.
  
 This is part of the Gaussian(R) 16 program.  It is based on
 the Gaussian(R) 09 system (copyright 2009, Gaussian, Inc.),
 the Gaussian(R) 03 system (copyright 2003, Gaussian, Inc.),
 the Gaussian(R) 98 system (copyright 1998, Gaussian, Inc.),
 the Gaussian(R) 94 system (copyright 1995, Gaussian, Inc.),
 the Gaussian 92(TM) system (copyright 1992, Gaussian, Inc.),
 the Gaussian 90(TM) system (copyright 1990, Gaussian, Inc.),
 the Gaussian 88(TM) system (copyright 1988, Gaussian, Inc.),
 the Gaussian 86(TM) system (copyright 1986, Carnegie Mellon
 University), and the Gaussian 82(TM) system (copyright 1983,
 Carnegie Mellon University). Gaussian is a federally registered
 trademark of Gaussian, Inc.
  
 This software contains proprietary and confidential information,
 including trade secrets, belonging to Gaussian, Inc.
  
 This software is provided under written license and may be
 used, copied, transmitted, or stored only in accord with that
 written license.
  
 The following legend is applicable only to US Government
 contracts under FAR:
  
                    RESTRICTED RIGHTS LEGEND
  
 Use, reproduction and disclosure by the US Government is
 subject to restrictions as set forth in subparagraphs (a)
 and (c) of the Commercial Computer Software - Restricted
 Rights clause in FAR 52.227-19.
  
 Gaussian, Inc.
 340 Quinnipiac St., Bldg. 40, Wallingford CT 06492
  
  
 ---------------------------------------------------------------
 Warning -- This program may not be used in any manner that
 competes with the business of Gaussian, Inc. or will provide
 assistance to any competitor of Gaussian, Inc.  The licensee
 of this program is prohibited from giving any competitor of
 Gaussian, Inc. access to this program.  By using this program,
 the user acknowledges that Gaussian, Inc. is engaged in the
 business of creating and licensing software in the field of
 computational chemistry and represents and warrants to the
 licensee that it is not a competitor of Gaussian, Inc. and that
 it will not use this program in any manner prohibited above.
 ---------------------------------------------------------------
  

 Cite this work as:
 Gaussian 16, Revision C.01,
 M. J. Frisch, G. W. Trucks, H. B. Schlegel, G. E. Scuseria, 
 M. A. Robb, J. R. Cheeseman, G. Scalmani, V. Barone, 
 G. A. Petersson, H. Nakatsuji, X. Li, M. Caricato, A. V. Marenich, 
 J. Bloino, B. G. Janesko, R. Gomperts, B. Mennucci, H. P. Hratchian, 
 J. V. Ortiz, A. F. Izmaylov, J. L. Sonnenberg, D. Williams-Young, 
 F. Ding, F. Lipparini, F. Egidi, J. Goings, B. Peng, A. Petrone, 
 T. Henderson, D. Ranasinghe, V. G. Zakrzewski, J. Gao, N. Rega, 
 G. Zheng, W. Liang, M. Hada, M. Ehara, K. Toyota, R. Fukuda, 
 J. Hasegawa, M. Ishida, T. Nakajima, Y. Honda, O. Kitao, H. Nakai, 
 T. Vreven, K. Throssell, J. A. Montgomery, Jr., J. E. Peralta, 
 F. Ogliaro, M. J. Bearpark, J. J. Heyd, E. N. Brothers, K. N. Kudin, 
 V. N. Staroverov, T. A. Keith, R. Kobayashi, J. Normand, 
 K. Raghavachari, A. P. Rendell, J. C. Burant, S. S. Iyengar, 
 J. Tomasi, M. Cossi, J. M. Millam, M. Klene, C. Adamo, R. Cammi, 
 J. W. Ochterski, R. L. Martin, K. Morokuma, O. Farkas, 
 J. B. Foresman, and D. J. Fox, Gaussian, Inc., Wallingford CT, 2019.
 
 ******************************************
 Gaussian 16:  ES64L-G16RevC.01  3-Jul-2019
                28-Sep-2024 
 ******************************************
 %nprocshared=24
 Will use up to   24 processors via shared memory.
 ----------------------------------
 # wb97xd midix pop(nbo6,hirshfeld)
 ----------------------------------
 1/38=1,172=1/1;
 2/12=2,17=6,18=5,40=1/2;
 3/5=20,11=2,25=1,30=1,74=-58/1,2,3;
 4//1;
 5/5=2,38=5/2;
 6/7=2,8=2,9=2,10=2,28=1,40=1,79=1,113=1,114=1,124=3103,126=1/1,12;
 99/5=1,9=1/99;
 -------------------------------------------------------------------
 energy: -39.823789709276 gnorm: 0.000181017279 xtb: 6.7.0 (08769fc)
 -------------------------------------------------------------------
 Symbolic Z-matrix:
 Charge =  1 Multiplicity = 2
 Br                    5.88606  -0.30481  -0.00001 
 C                     4.02111   0.09351   0.00001 
 C                     3.61829   1.42065   0. 
 C                     2.2694    1.73034   0. 
 C                     1.34512   0.69696   0.00001 
 C                     1.77031  -0.64201   0.00001 
 C                     3.11223  -0.95571   0.00001 
 C                     0.58844  -1.56599   0.00002 
 C                    -0.56795  -0.61006   0.00002 
 C                    -1.91821  -0.88745   0.00002 
 C                    -2.80081   0.18231   0. 
 I                    -4.88315  -0.20732   0.00001 
 C                    -2.36107   1.49641   0. 
 C                    -1.00438   1.7722    0.00001 
 C                    -0.10656   0.71629   0.00001 
 H                     4.35944   2.20495  -0.00001 
 H                     1.95033   2.76111   0. 
 H                     3.45367  -1.97967   0.00001 
 H                     0.57984  -2.21281   0.88056 
 H                     0.57984  -2.21283  -0.88049 
 H                    -2.27875  -1.90489   0.00002 
 H                    -3.07569   2.30493   0. 
 H                    -0.65996   2.79492   0. 
 
                          Input orientation:                          
 ---------------------------------------------------------------------
 Center     Atomic      Atomic             Coordinates (Angstroms)
 Number     Number       Type             X           Y           Z
 ---------------------------------------------------------------------
      1         35           0        5.886060   -0.304810   -0.000010
      2          6           0        4.021110    0.093510    0.000010
      3          6           0        3.618290    1.420650    0.000000
      4          6           0        2.269400    1.730340    0.000000
      5          6           0        1.345120    0.696960    0.000010
      6          6           0        1.770310   -0.642010    0.000010
      7          6           0        3.112230   -0.955710    0.000010
      8          6           0        0.588440   -1.565990    0.000020
      9          6           0       -0.567950   -0.610060    0.000020
     10          6           0       -1.918210   -0.887450    0.000020
     11          6           0       -2.800810    0.182310    0.000000
     12         53           0       -4.883150   -0.207320    0.000010
     13          6           0       -2.361070    1.496410    0.000000
     14          6           0       -1.004380    1.772200    0.000010
     15          6           0       -0.106560    0.716290    0.000010
     16          1           0        4.359440    2.204950   -0.000010
     17          1           0        1.950330    2.761110    0.000000
     18          1           0        3.453670   -1.979670    0.000010
     19          1           0        0.579840   -2.212810    0.880560
     20          1           0        0.579840   -2.212830   -0.880490
     21          1           0       -2.278750   -1.904890    0.000020
     22          1           0       -3.075690    2.304930    0.000000
     23          1           0       -0.659960    2.794920    0.000000
 ---------------------------------------------------------------------
                    Distance matrix (angstroms):
                    1          2          3          4          5
     1  Br   0.000000
     2  C    1.907013   0.000000
     3  C    2.849560   1.386926   0.000000
     4  C    4.149948   2.397436   1.383984   0.000000
     5  C    4.650127   2.743187   2.385588   1.386423   0.000000
     6  C    4.129540   2.367930   2.769404   2.424280   1.404858
     7  C    2.849176   1.388137   2.429647   2.815178   2.419503
     8  C    5.445673   3.812763   4.254411   3.700192   2.386107
     9  C    6.461225   4.642681   4.652783   3.678047   2.316924
    10  C    7.825989   6.019784   5.998346   4.938512   3.627627
    11  C    8.700517   6.822498   6.537456   5.301266   4.177751
    12  I   10.769651   8.909340   8.655909   7.410364   6.293574
    13  C    8.441537   6.534550   5.979840   4.636375   3.791433
    14  C    7.196675   5.298448   4.636018   3.274048   2.583852
    15  C    6.078992   4.174388   3.790861   2.583309   1.451809
    16  H    2.937595   2.138375   1.079087   2.143250   3.370483
    17  H    4.988971   3.377013   2.139842   1.079024   2.151045
    18  H    2.953249   2.149433   3.404303   3.894441   3.407394
    19  H    5.707174   4.235188   4.817634   4.379319   3.134930
    20  H    5.707167   4.235189   4.817636   4.379322   3.134934
    21  H    8.320119   6.609224   6.770103   5.822419   4.461172
    22  H    9.334008   7.433367   6.752134   5.375885   4.704161
    23  H    7.242838   5.404631   4.493556   3.116806   2.902031
                    6          7          8          9         10
     6  C    0.000000
     7  C    1.378099   0.000000
     8  C    1.500185   2.596528   0.000000
     9  C    2.338478   3.696376   1.500347   0.000000
    10  C    3.696677   5.030903   2.596866   1.378458   0.000000
    11  C    4.644851   6.021556   3.813603   2.369286   1.386856
    12  I    6.667645   8.030329   5.637755   4.333953   3.041948
    13  C    4.652004   5.997492   4.251812   2.766314   2.424647
    14  C    3.677950   4.938418   3.698728   2.421907   2.812263
    15  C    2.316812   3.627147   2.385755   1.404309   2.419516
    16  H    3.848217   3.397838   5.332957   5.674809   6.997987
    17  H    3.407878   3.894196   4.536357   4.207912   5.317668
    18  H    2.150124   1.079387   2.894939   4.248442   5.481792
    19  H    2.158703   2.961194   1.092612   2.159069   2.961787
    20  H    2.158697   2.961187   1.092600   2.159072   2.961787
    21  H    4.241433   5.473902   2.887149   2.145559   1.079432
    22  H    5.671699   6.994435   5.330091   3.845247   3.395740
    23  H    4.209359   5.319459   4.536082   3.406223   3.891406
                   11         12         13         14         15
    11  C    0.000000
    12  I    2.118479   0.000000
    13  C    1.385724   3.043614   0.000000
    14  C    2.398940   4.354694   1.384438   0.000000
    15  C    2.746656   4.865066   2.385666   1.386011   0.000000
    16  H    7.440447   9.552200   6.757757   5.381249   4.707575
    17  H    5.405880   7.450371   4.493065   3.115807   2.900360
    18  H    6.617604   8.523133   6.774536   5.826726   4.465808
    19  H    4.235656   5.885713   4.814837   4.377833   3.134667
    20  H    4.235653   5.885712   4.814839   4.377842   3.134672
    21  H    2.151500   3.108801   3.402296   3.891659   3.404261
    22  H    2.140345   3.094885   1.079067   2.138721   3.367419
    23  H    3.377717   5.181581   2.140071   1.079158   2.151036
                   16         17         18         19         20
    16  H    0.000000
    17  H    2.472473   0.000000
    18  H    4.281526   4.973432   0.000000
    19  H    5.880254   5.233881   3.014734   0.000000
    20  H    5.880255   5.233888   3.014721   1.761050   0.000000
    21  H    7.807455   6.297354   5.732908   3.006942   3.006936
    22  H    7.435802   5.046680   7.809631   5.877777   5.877782
    23  H    5.053953   2.610509   6.302274   5.233531   5.233539
                   21         22         23
    21  H    0.000000
    22  H    4.284588   0.000000
    23  H    4.970784   2.464922   0.000000
 Stoichiometry    C13H8BrI(1+,2)
 Framework group  C1[X(C13H8BrI)]
 Deg. of freedom    63
 Full point group                 C1      NOp   1
 Largest Abelian subgroup         C1      NOp   1
 Largest concise Abelian subgroup C1      NOp   1
                         Standard orientation:                         
 ---------------------------------------------------------------------
 Center     Atomic      Atomic             Coordinates (Angstroms)
 Number     Number       Type             X           Y           Z
 ---------------------------------------------------------------------
      1         35           0        5.886487   -0.311101   -0.000016
      2          6           0        4.021658    0.087785    0.000004
      3          6           0        3.619240    1.415047   -0.000006
      4          6           0        2.270444    1.725146   -0.000006
      5          6           0        1.345851    0.692046    0.000004
      6          6           0        1.770635   -0.647053    0.000004
      7          6           0        3.112460   -0.961160    0.000004
      8          6           0        0.588485   -1.570675    0.000014
      9          6           0       -0.567616   -0.614394    0.000014
     10          6           0       -1.917960   -0.891375    0.000014
     11          6           0       -2.800235    0.178652   -0.000006
     12         53           0       -4.882693   -0.210346    0.000004
     13          6           0       -2.360097    1.492619   -0.000006
     14          6           0       -1.003323    1.767998    0.000004
     15          6           0       -0.105824    0.711816    0.000004
     16          1           0        4.360628    2.199122   -0.000016
     17          1           0        1.951686    2.756012   -0.000006
     18          1           0        3.453589   -1.985223    0.000004
     19          1           0        0.579689   -2.217492    0.880554
     20          1           0        0.579689   -2.217512   -0.880496
     21          1           0       -2.278808   -1.908706    0.000014
     22          1           0       -3.074472    2.301356   -0.000006
     23          1           0       -0.658593    2.790613   -0.000006
 ---------------------------------------------------------------------
 Rotational constants (GHZ):           1.9901539           0.0763588           0.0735708
 Standard basis: MIDIx (5D, 7F)
 There are   201 symmetry adapted cartesian basis functions of A   symmetry.
 There are   196 symmetry adapted basis functions of A   symmetry.
   196 basis functions,   375 primitive gaussians,   201 cartesian basis functions
    87 alpha electrons       86 beta electrons
       nuclear repulsion energy      1629.0657348933 Hartrees.
 NAtoms=   23 NActive=   23 NUniq=   23 SFac= 1.00D+00 NAtFMM=   60 NAOKFM=F Big=F
 Integral buffers will be    131072 words long.
 Raffenetti 2 integral format.
 Two-electron integral symmetry is turned on.
 Nuclear repulsion after empirical dispersion term =     1629.0497447173 Hartrees.
 One-electron integrals computed using PRISM.
 NBasis=   196 RedAO= T EigKep=  9.90D-04  NBF=   196
 NBsUse=   196 1.00D-06 EigRej= -1.00D+00 NBFU=   196
 Defaulting to unpruned grid for atomic number  53.
 ExpMin= 1.15D-01 ExpMax= 1.44D+04 ExpMxC= 1.44D+04 IAcc=3 IRadAn=         5 AccDes= 0.00D+00
 Harris functional with IExCor= 4639 and IRadAn=       5 diagonalized for initial guess.
 HarFok:  IExCor= 4639 AccDes= 0.00D+00 IRadAn=         5 IDoV= 1 UseB2=F ITyADJ=14
 ICtDFT=  3500011 ScaDFX=  1.000000  1.000000  1.000000  1.000000
 Defaulting to unpruned grid for atomic number  53.
 FoFCou: FMM=F IPFlag=           0 FMFlag=      100000 FMFlg1=           0
         NFxFlg=           0 DoJE=T BraDBF=F KetDBF=T FulRan=T
         wScrn=  0.000000 ICntrl=       500 IOpCl=  0 I1Cent=   200000004 NGrid=           0
         NMat0=    1 NMatS0=      1 NMatT0=    0 NMatD0=    1 NMtDS0=    0 NMtDT0=    0
 Petite list used in FoFCou.
 Initial guess <Sx>= 0.0000 <Sy>= 0.0000 <Sz>= 0.5000 <S**2>= 0.7500 S= 0.5000
 Requested convergence on RMS density matrix=1.00D-08 within 128 cycles.
 Requested convergence on MAX density matrix=1.00D-06.
 Requested convergence on             energy=1.00D-06.
 No special actions if energy rises.
 Integral accuracy reduced to 1.0D-05 until final iterations.
 Defaulting to unpruned grid for atomic number  53.
 Defaulting to unpruned grid for atomic number  53.
 Defaulting to unpruned grid for atomic number  53.
 Defaulting to unpruned grid for atomic number  53.
 Defaulting to unpruned grid for atomic number  53.
 Defaulting to unpruned grid for atomic number  53.
 Defaulting to unpruned grid for atomic number  53.
 Defaulting to unpruned grid for atomic number  53.
 Defaulting to unpruned grid for atomic number  53.
 Defaulting to unpruned grid for atomic number  53.
 Defaulting to unpruned grid for atomic number  53.
 Defaulting to unpruned grid for atomic number  53.
 Defaulting to unpruned grid for atomic number  53.
 Defaulting to unpruned grid for atomic number  53.
 Defaulting to unpruned grid for atomic number  53.
 Defaulting to unpruned grid for atomic number  53.
 Defaulting to unpruned grid for atomic number  53.
 Defaulting to unpruned grid for atomic number  53.
 Defaulting to unpruned grid for atomic number  53.
 Defaulting to unpruned grid for atomic number  53.
 Defaulting to unpruned grid for atomic number  53.
 Defaulting to unpruned grid for atomic number  53.
 Defaulting to unpruned grid for atomic number  53.
 Defaulting to unpruned grid for atomic number  53.
 Initial convergence to 1.0D-05 achieved.  Increase integral accuracy.
 SCF Done:  E(UwB97XD) =  -9949.14433110     A.U. after   25 cycles
            NFock= 25  Conv=0.97D-08     -V/T= 1.9997
 <Sx>= 0.0000 <Sy>= 0.0000 <Sz>= 0.5000 <S**2>= 0.7738 S= 0.5118
 <L.S>= 0.000000000000E+00
 Annihilation of the first spin contaminant:
 S**2 before annihilation     0.7738,   after     0.7503

 **********************************************************************

            Population analysis using the SCF Density.

 **********************************************************************

 Orbital symmetries:
 Alpha Orbitals:
       Occupied  (A) (A) (A) (A) (A) (A) (A) (A) (A) (A) (A) (A)
                 (A) (A) (A) (A) (A) (A) (A) (A) (A) (A) (A) (A)
                 (A) (A) (A) (A) (A) (A) (A) (A) (A) (A) (A) (A)
                 (A) (A) (A) (A) (A) (A) (A) (A) (A) (A) (A) (A)
                 (A) (A) (A) (A) (A) (A) (A) (A) (A) (A) (A) (A)
                 (A) (A) (A) (A) (A) (A) (A) (A) (A) (A) (A) (A)
                 (A) (A) (A) (A) (A) (A) (A) (A) (A) (A) (A) (A)
                 (A) (A) (A)
       Virtual   (A) (A) (A) (A) (A) (A) (A) (A) (A) (A) (A) (A)
                 (A) (A) (A) (A) (A) (A) (A) (A) (A) (A) (A) (A)
                 (A) (A) (A) (A) (A) (A) (A) (A) (A) (A) (A) (A)
                 (A) (A) (A) (A) (A) (A) (A) (A) (A) (A) (A) (A)
                 (A) (A) (A) (A) (A) (A) (A) (A) (A) (A) (A) (A)
                 (A) (A) (A) (A) (A) (A) (A) (A) (A) (A) (A) (A)
                 (A) (A) (A) (A) (A) (A) (A) (A) (A) (A) (A) (A)
                 (A) (A) (A) (A) (A) (A) (A) (A) (A) (A) (A) (A)
                 (A) (A) (A) (A) (A) (A) (A) (A) (A) (A) (A) (A)
                 (A)
 Beta  Orbitals:
       Occupied  (A) (A) (A) (A) (A) (A) (A) (A) (A) (A) (A) (A)
                 (A) (A) (A) (A) (A) (A) (A) (A) (A) (A) (A) (A)
                 (A) (A) (A) (A) (A) (A) (A) (A) (A) (A) (A) (A)
                 (A) (A) (A) (A) (A) (A) (A) (A) (A) (A) (A) (A)
                 (A) (A) (A) (A) (A) (A) (A) (A) (A) (A) (A) (A)
                 (A) (A) (A) (A) (A) (A) (A) (A) (A) (A) (A) (A)
                 (A) (A) (A) (A) (A) (A) (A) (A) (A) (A) (A) (A)
                 (A) (A)
       Virtual   (A) (A) (A) (A) (A) (A) (A) (A) (A) (A) (A) (A)
                 (A) (A) (A) (A) (A) (A) (A) (A) (A) (A) (A) (A)
                 (A) (A) (A) (A) (A) (A) (A) (A) (A) (A) (A) (A)
                 (A) (A) (A) (A) (A) (A) (A) (A) (A) (A) (A) (A)
                 (A) (A) (A) (A) (A) (A) (A) (A) (A) (A) (A) (A)
                 (A) (A) (A) (A) (A) (A) (A) (A) (A) (A) (A) (A)
                 (A) (A) (A) (A) (A) (A) (A) (A) (A) (A) (A) (A)
                 (A) (A) (A) (A) (A) (A) (A) (A) (A) (A) (A) (A)
                 (A) (A) (A) (A) (A) (A) (A) (A) (A) (A) (A) (A)
                 (A) (A)
 The electronic state is 2-A.
 Alpha  occ. eigenvalues -- **********-480.29096-176.05529-164.79606-164.79396
 Alpha  occ. eigenvalues -- -164.79348 -62.72438 -56.31344 -56.30945 -56.30880
 Alpha  occ. eigenvalues --  -36.08062 -31.24007 -31.23561 -31.23410 -23.18036
 Alpha  occ. eigenvalues --  -23.17823 -23.17756 -23.17370 -23.17369 -10.46388
 Alpha  occ. eigenvalues --  -10.45872 -10.43392 -10.42999 -10.42588 -10.42459
 Alpha  occ. eigenvalues --  -10.41384 -10.41227 -10.40873 -10.40805 -10.40421
 Alpha  occ. eigenvalues --  -10.40417 -10.40092  -9.03274  -6.81763  -6.80439
 Alpha  occ. eigenvalues --   -6.80192  -6.63781  -4.93961  -4.92704  -4.92349
 Alpha  occ. eigenvalues --   -2.92072  -2.91634  -2.91480  -2.90348  -2.90347
 Alpha  occ. eigenvalues --   -2.30492  -2.30109  -2.29848  -2.28712  -2.28698
 Alpha  occ. eigenvalues --   -1.19211  -1.15168  -1.10481  -1.06129  -1.03962
 Alpha  occ. eigenvalues --   -1.02786  -0.98288  -0.96774  -0.91771  -0.88837
 Alpha  occ. eigenvalues --   -0.86253  -0.84186  -0.83294  -0.78287  -0.75529
 Alpha  occ. eigenvalues --   -0.72417  -0.71063  -0.70343  -0.70146  -0.69291
 Alpha  occ. eigenvalues --   -0.66949  -0.66579  -0.64872  -0.63860  -0.63489
 Alpha  occ. eigenvalues --   -0.60241  -0.58966  -0.58620  -0.57327  -0.57011
 Alpha  occ. eigenvalues --   -0.52335  -0.50339  -0.49884  -0.48896  -0.47645
 Alpha  occ. eigenvalues --   -0.47470  -0.44658
 Alpha virt. eigenvalues --   -0.14317  -0.10438  -0.10072  -0.08804  -0.06102
 Alpha virt. eigenvalues --   -0.05546   0.04405   0.05405   0.06472   0.07227
 Alpha virt. eigenvalues --    0.10116   0.10765   0.11235   0.11245   0.14422
 Alpha virt. eigenvalues --    0.14489   0.15713   0.19113   0.19515   0.20498
 Alpha virt. eigenvalues --    0.21355   0.22873   0.23715   0.28604   0.29501
 Alpha virt. eigenvalues --    0.30515   0.31860   0.32746   0.35586   0.36171
 Alpha virt. eigenvalues --    0.36908   0.37641   0.38820   0.41167   0.42515
 Alpha virt. eigenvalues --    0.43695   0.45438   0.46483   0.46596   0.48648
 Alpha virt. eigenvalues --    0.49214   0.50324   0.50573   0.50766   0.51007
 Alpha virt. eigenvalues --    0.51507   0.52331   0.53244   0.54863   0.55096
 Alpha virt. eigenvalues --    0.58296   0.58312   0.60629   0.62856   0.63661
 Alpha virt. eigenvalues --    0.64173   0.67567   0.69122   0.69559   0.71832
 Alpha virt. eigenvalues --    0.76223   0.76404   0.76517   0.77569   0.78197
 Alpha virt. eigenvalues --    0.78824   0.79743   0.80672   0.81942   0.82489
 Alpha virt. eigenvalues --    0.82871   0.83752   0.84647   0.85773   0.86642
 Alpha virt. eigenvalues --    0.87199   0.88113   0.88901   0.88948   0.90032
 Alpha virt. eigenvalues --    0.91239   0.91356   0.92845   0.94858   0.96148
 Alpha virt. eigenvalues --    0.96962   0.98668   1.00976   1.01424   1.02399
 Alpha virt. eigenvalues --    1.05555   1.07404   1.09433   1.13339   1.17041
 Alpha virt. eigenvalues --    1.23580   1.27109   1.30507   1.40612   1.41998
 Alpha virt. eigenvalues --    1.44402   1.48267   1.51981   1.52452   1.64090
 Alpha virt. eigenvalues --    1.67540   1.69382   1.82303   1.86619
  Beta  occ. eigenvalues -- **********-480.29071-176.05515-164.79599-164.79348
  Beta  occ. eigenvalues -- -164.79339 -62.72421 -56.31337 -56.30881 -56.30868
  Beta  occ. eigenvalues --  -36.08042 -31.24000 -31.23492 -31.23399 -23.18024
  Beta  occ. eigenvalues --  -23.17796 -23.17753 -23.17343 -23.17341 -10.46121
  Beta  occ. eigenvalues --  -10.45595 -10.43248 -10.42881 -10.42457 -10.42318
  Beta  occ. eigenvalues --  -10.41305 -10.41136 -10.40885 -10.40873 -10.40493
  Beta  occ. eigenvalues --  -10.40446 -10.40109  -9.03241  -6.81756  -6.80342
  Beta  occ. eigenvalues --   -6.80177  -6.63735  -4.93954  -4.92587  -4.92335
  Beta  occ. eigenvalues --   -2.92056  -2.91593  -2.91477  -2.90306  -2.90305
  Beta  occ. eigenvalues --   -2.30468  -2.30050  -2.29844  -2.28655  -2.28645
  Beta  occ. eigenvalues --   -1.18726  -1.14702  -1.09995  -1.05819  -1.03424
  Beta  occ. eigenvalues --   -1.02593  -0.97729  -0.96708  -0.91350  -0.88455
  Beta  occ. eigenvalues --   -0.85922  -0.83905  -0.82844  -0.78203  -0.75366
  Beta  occ. eigenvalues --   -0.72144  -0.70398  -0.70144  -0.69975  -0.69161
  Beta  occ. eigenvalues --   -0.66826  -0.66472  -0.64628  -0.62705  -0.62396
  Beta  occ. eigenvalues --   -0.60081  -0.58783  -0.58442  -0.56759  -0.55176
  Beta  occ. eigenvalues --   -0.50140  -0.49742  -0.49433  -0.48787  -0.47257
  Beta  occ. eigenvalues --   -0.44259
  Beta virt. eigenvalues --   -0.28810  -0.12436  -0.09721  -0.09632  -0.07604
  Beta virt. eigenvalues --   -0.05128  -0.04474   0.05066   0.05483   0.06589
  Beta virt. eigenvalues --    0.07256   0.10112   0.10779   0.11324   0.12323
  Beta virt. eigenvalues --    0.14561   0.14655   0.15853   0.19348   0.19853
  Beta virt. eigenvalues --    0.20696   0.21552   0.23179   0.23814   0.28867
  Beta virt. eigenvalues --    0.29737   0.30725   0.32059   0.32901   0.35733
  Beta virt. eigenvalues --    0.36440   0.36981   0.37762   0.38963   0.41308
  Beta virt. eigenvalues --    0.42644   0.43835   0.45584   0.46674   0.46813
  Beta virt. eigenvalues --    0.48761   0.50252   0.50992   0.51038   0.51248
  Beta virt. eigenvalues --    0.51537   0.51868   0.52800   0.53419   0.54988
  Beta virt. eigenvalues --    0.55225   0.58400   0.58706   0.60721   0.63026
  Beta virt. eigenvalues --    0.64159   0.64345   0.67911   0.69458   0.69935
  Beta virt. eigenvalues --    0.72102   0.76499   0.76515   0.76662   0.77582
  Beta virt. eigenvalues --    0.78387   0.79020   0.79635   0.80784   0.82418
  Beta virt. eigenvalues --    0.82946   0.82995   0.83862   0.84780   0.85813
  Beta virt. eigenvalues --    0.86680   0.87884   0.88142   0.88993   0.89404
  Beta virt. eigenvalues --    0.90091   0.91524   0.91768   0.92975   0.95230
  Beta virt. eigenvalues --    0.96241   0.97061   0.99280   1.01077   1.01489
  Beta virt. eigenvalues --    1.02640   1.05646   1.07505   1.09548   1.13438
  Beta virt. eigenvalues --    1.17182   1.23742   1.27228   1.30678   1.40803
  Beta virt. eigenvalues --    1.42147   1.44557   1.48552   1.52151   1.52612
  Beta virt. eigenvalues --    1.64449   1.67745   1.69552   1.82492   1.86716
          Condensed to atoms (all electrons):
               1          2          3          4          5          6
     1  Br  34.741396   0.239118  -0.037985   0.001690   0.000324   0.002214
     2  C    0.239118   5.068071   0.428806  -0.031798  -0.045478  -0.017348
     3  C   -0.037985   0.428806   4.965207   0.522220  -0.032738  -0.037162
     4  C    0.001690  -0.031798   0.522220   4.843710   0.410590  -0.019222
     5  C    0.000324  -0.045478  -0.032738   0.410590   5.037226   0.414717
     6  C    0.002214  -0.017348  -0.037162  -0.019222   0.414717   5.114207
     7  C   -0.039805   0.451700  -0.042404  -0.020007  -0.023883   0.470664
     8  C   -0.000018   0.000231   0.000713  -0.000250  -0.045752   0.305788
     9  C    0.000001  -0.000152  -0.000107   0.001042  -0.043747  -0.077272
    10  C   -0.000000  -0.000000   0.000001   0.000024   0.000833   0.001985
    11  C    0.000000   0.000000   0.000000  -0.000000   0.000885  -0.000152
    12  I   -0.000000   0.000000  -0.000000  -0.000000   0.000005   0.000002
    13  C   -0.000000   0.000000  -0.000001   0.000101   0.000302  -0.000127
    14  C   -0.000000   0.000001   0.000099  -0.000556   0.009313   0.001105
    15  C    0.000002   0.000913   0.000241   0.009811   0.379428  -0.042981
    16  H    0.000946  -0.017699   0.386692  -0.012717   0.002509   0.000054
    17  H   -0.000042   0.002464  -0.014561   0.391147  -0.017663   0.002179
    18  H    0.000920  -0.013840   0.001928   0.000017   0.002087  -0.010212
    19  H   -0.000000   0.000045  -0.000002  -0.000002   0.000797  -0.023139
    20  H   -0.000000   0.000045  -0.000002  -0.000002   0.000798  -0.023139
    21  H   -0.000000  -0.000000  -0.000000  -0.000000  -0.000094   0.000104
    22  H   -0.000000  -0.000000   0.000000  -0.000000  -0.000018   0.000000
    23  H   -0.000000   0.000000  -0.000007   0.001563  -0.006050   0.000101
               7          8          9         10         11         12
     1  Br  -0.039805  -0.000018   0.000001  -0.000000   0.000000  -0.000000
     2  C    0.451700   0.000231  -0.000152  -0.000000   0.000000   0.000000
     3  C   -0.042404   0.000713  -0.000107   0.000001   0.000000  -0.000000
     4  C   -0.020007  -0.000250   0.001042   0.000024  -0.000000  -0.000000
     5  C   -0.023883  -0.045752  -0.043747   0.000833   0.000885   0.000005
     6  C    0.470664   0.305788  -0.077272   0.001985  -0.000152   0.000002
     7  C    4.901965   0.004302   0.002000   0.000049  -0.000000  -0.000000
     8  C    0.004302   5.051905   0.303656   0.004438   0.000208  -0.000025
     9  C    0.002000   0.303656   5.110670   0.482023  -0.023116   0.003140
    10  C    0.000049   0.004438   0.482023   4.900068   0.446279  -0.046051
    11  C   -0.000000   0.000208  -0.023116   0.446279   5.254451   0.286591
    12  I   -0.000000  -0.000025   0.003140  -0.046051   0.286591  52.439248
    13  C    0.000001   0.000795  -0.037341  -0.042354   0.422077  -0.043501
    14  C    0.000026  -0.000331  -0.020022  -0.020275  -0.036995   0.002508
    15  C    0.000779  -0.045926   0.412758  -0.023642  -0.044359   0.000267
    16  H    0.002128   0.000003   0.000000  -0.000000  -0.000000  -0.000000
    17  H   -0.000133  -0.000052   0.000104   0.000001   0.000000  -0.000000
    18  H    0.382363  -0.004070   0.000107   0.000000  -0.000000  -0.000000
    19  H   -0.003825   0.384176  -0.022977  -0.003884   0.000047  -0.000002
    20  H   -0.003825   0.384177  -0.022975  -0.003883   0.000047  -0.000002
    21  H    0.000000  -0.004020  -0.011539   0.387192  -0.015933   0.000490
    22  H   -0.000000   0.000003   0.000091   0.002056  -0.019731   0.000696
    23  H    0.000001  -0.000050   0.002173  -0.000103   0.002517  -0.000071
              13         14         15         16         17         18
     1  Br  -0.000000  -0.000000   0.000002   0.000946  -0.000042   0.000920
     2  C    0.000000   0.000001   0.000913  -0.017699   0.002464  -0.013840
     3  C   -0.000001   0.000099   0.000241   0.386692  -0.014561   0.001928
     4  C    0.000101  -0.000556   0.009811  -0.012717   0.391147   0.000017
     5  C    0.000302   0.009313   0.379428   0.002509  -0.017663   0.002087
     6  C   -0.000127   0.001105  -0.042981   0.000054   0.002179  -0.010212
     7  C    0.000001   0.000026   0.000779   0.002128  -0.000133   0.382363
     8  C    0.000795  -0.000331  -0.045926   0.000003  -0.000052  -0.004070
     9  C   -0.037341  -0.020022   0.412758   0.000000   0.000104   0.000107
    10  C   -0.042354  -0.020275  -0.023642  -0.000000   0.000001   0.000000
    11  C    0.422077  -0.036995  -0.044359  -0.000000   0.000000  -0.000000
    12  I   -0.043501   0.002508   0.000267  -0.000000  -0.000000  -0.000000
    13  C    4.967051   0.530576  -0.032854   0.000000  -0.000007  -0.000000
    14  C    0.530576   4.839355   0.410451  -0.000000   0.001543  -0.000000
    15  C   -0.032854   0.410451   5.033732  -0.000018  -0.006139  -0.000092
    16  H    0.000000  -0.000000  -0.000018   0.379023  -0.003336  -0.000039
    17  H   -0.000007   0.001543  -0.006139  -0.003336   0.395897   0.000004
    18  H   -0.000000  -0.000000  -0.000092  -0.000039   0.000004   0.385188
    19  H   -0.000003  -0.000001   0.000793  -0.000000   0.000002   0.000583
    20  H   -0.000003  -0.000001   0.000793  -0.000000   0.000002   0.000583
    21  H    0.001844   0.000044   0.002157   0.000000   0.000000   0.000000
    22  H    0.391462  -0.014213   0.002629   0.000000   0.000000   0.000000
    23  H   -0.014846   0.391039  -0.017496   0.000000   0.001961   0.000000
              19         20         21         22         23
     1  Br  -0.000000  -0.000000  -0.000000  -0.000000  -0.000000
     2  C    0.000045   0.000045  -0.000000  -0.000000   0.000000
     3  C   -0.000002  -0.000002  -0.000000   0.000000  -0.000007
     4  C   -0.000002  -0.000002  -0.000000  -0.000000   0.001563
     5  C    0.000797   0.000798  -0.000094  -0.000018  -0.006050
     6  C   -0.023139  -0.023139   0.000104   0.000000   0.000101
     7  C   -0.003825  -0.003825   0.000000  -0.000000   0.000001
     8  C    0.384176   0.384177  -0.004020   0.000003  -0.000050
     9  C   -0.022977  -0.022975  -0.011539   0.000091   0.002173
    10  C   -0.003884  -0.003883   0.387192   0.002056  -0.000103
    11  C    0.000047   0.000047  -0.015933  -0.019731   0.002517
    12  I   -0.000002  -0.000002   0.000490   0.000696  -0.000071
    13  C   -0.000003  -0.000003   0.001844   0.391462  -0.014846
    14  C   -0.000001  -0.000001   0.000044  -0.014213   0.391039
    15  C    0.000793   0.000793   0.002157   0.002629  -0.017496
    16  H   -0.000000  -0.000000   0.000000   0.000000   0.000000
    17  H    0.000002   0.000002   0.000000   0.000000   0.001961
    18  H    0.000583   0.000583   0.000000   0.000000   0.000000
    19  H    0.407132  -0.018423   0.000607  -0.000000   0.000002
    20  H   -0.018423   0.407130   0.000607  -0.000000   0.000002
    21  H    0.000607   0.000607   0.387098  -0.000035   0.000004
    22  H   -0.000000  -0.000000  -0.000035   0.380759  -0.003263
    23  H    0.000002   0.000002   0.000004  -0.003263   0.394897
          Atomic-Atomic Spin Densities.
               1          2          3          4          5          6
     1  Br   0.108613  -0.030098  -0.001593   0.000168   0.000018   0.000189
     2  C   -0.030098   0.229828   0.020590  -0.006240  -0.003358  -0.006891
     3  C   -0.001593   0.020590  -0.031811  -0.017386  -0.004074  -0.001086
     4  C    0.000168  -0.006240  -0.017386   0.076701   0.031144  -0.000351
     5  C    0.000018  -0.003358  -0.004074   0.031144   0.098729   0.033516
     6  C    0.000189  -0.006891  -0.001086  -0.000351   0.033516   0.126936
     7  C   -0.000514   0.013945  -0.001186  -0.000121  -0.002925  -0.012861
     8  C   -0.000000   0.000090  -0.000023   0.000026  -0.001969  -0.001521
     9  C   -0.000000   0.000006   0.000009  -0.000117  -0.008366  -0.004752
    10  C    0.000000  -0.000000  -0.000000   0.000002   0.000293   0.000156
    11  C    0.000000  -0.000000  -0.000000   0.000001   0.000097   0.000006
    12  I   -0.000000   0.000000   0.000000  -0.000000  -0.000001  -0.000000
    13  C    0.000000  -0.000000  -0.000000   0.000008   0.000220   0.000009
    14  C   -0.000000   0.000001   0.000007  -0.000291  -0.003911  -0.000103
    15  C   -0.000000   0.000101   0.000206  -0.003996  -0.051382  -0.008696
    16  H   -0.000003  -0.000294   0.000585  -0.000022   0.000024  -0.000007
    17  H    0.000000   0.000027  -0.000145  -0.000246  -0.000406   0.000016
    18  H   -0.000037  -0.000122   0.000004  -0.000004   0.000028   0.000058
    19  H    0.000000  -0.000002   0.000000   0.000001   0.000082  -0.000534
    20  H    0.000000  -0.000002   0.000000   0.000001   0.000082  -0.000534
    21  H   -0.000000   0.000000  -0.000000  -0.000000  -0.000001   0.000001
    22  H   -0.000000   0.000000   0.000000   0.000000  -0.000000   0.000000
    23  H   -0.000000   0.000000   0.000000  -0.000014   0.000010   0.000001
               7          8          9         10         11         12
     1  Br  -0.000514  -0.000000  -0.000000   0.000000   0.000000  -0.000000
     2  C    0.013945   0.000090   0.000006  -0.000000  -0.000000   0.000000
     3  C   -0.001186  -0.000023   0.000009  -0.000000  -0.000000   0.000000
     4  C   -0.000121   0.000026  -0.000117   0.000002   0.000001  -0.000000
     5  C   -0.002925  -0.001969  -0.008366   0.000293   0.000097  -0.000001
     6  C   -0.012861  -0.001521  -0.004752   0.000156   0.000006  -0.000000
     7  C   -0.078847  -0.000510   0.000144  -0.000002  -0.000000   0.000000
     8  C   -0.000510  -0.016677  -0.000869  -0.000422   0.000086  -0.000001
     9  C    0.000144  -0.000869   0.116971  -0.014471  -0.007059   0.000320
    10  C   -0.000002  -0.000422  -0.014471  -0.073176   0.016735  -0.000410
    11  C   -0.000000   0.000086  -0.007059   0.016735   0.238970  -0.037552
    12  I    0.000000  -0.000001   0.000320  -0.000410  -0.037552   0.175051
    13  C   -0.000000  -0.000024  -0.001165  -0.001615   0.023291  -0.001820
    14  C    0.000001   0.000025  -0.000636  -0.000132  -0.006416   0.000283
    15  C    0.000271  -0.002060   0.034927  -0.003369  -0.003632   0.000058
    16  H    0.000003  -0.000000   0.000000   0.000000   0.000000   0.000000
    17  H   -0.000013   0.000000   0.000001  -0.000000   0.000000  -0.000000
    18  H    0.000846   0.000049   0.000001   0.000000   0.000000  -0.000000
    19  H    0.000002   0.001194  -0.000484   0.000001  -0.000002   0.000000
    20  H    0.000002   0.001194  -0.000484   0.000001  -0.000002   0.000000
    21  H    0.000000   0.000050   0.000048   0.000837  -0.000163  -0.000090
    22  H    0.000000  -0.000000  -0.000008   0.000001  -0.000341  -0.000052
    23  H   -0.000000   0.000000   0.000017  -0.000014   0.000028   0.000001
              13         14         15         16         17         18
     1  Br   0.000000  -0.000000  -0.000000  -0.000003   0.000000  -0.000037
     2  C   -0.000000   0.000001   0.000101  -0.000294   0.000027  -0.000122
     3  C   -0.000000   0.000007   0.000206   0.000585  -0.000145   0.000004
     4  C    0.000008  -0.000291  -0.003996  -0.000022  -0.000246  -0.000004
     5  C    0.000220  -0.003911  -0.051382   0.000024  -0.000406   0.000028
     6  C    0.000009  -0.000103  -0.008696  -0.000007   0.000016   0.000058
     7  C   -0.000000   0.000001   0.000271   0.000003  -0.000013   0.000846
     8  C   -0.000024   0.000025  -0.002060  -0.000000   0.000000   0.000049
     9  C   -0.001165  -0.000636   0.034927   0.000000   0.000001   0.000001
    10  C   -0.001615  -0.000132  -0.003369   0.000000  -0.000000   0.000000
    11  C    0.023291  -0.006416  -0.003632   0.000000   0.000000   0.000000
    12  I   -0.001820   0.000283   0.000058   0.000000  -0.000000  -0.000000
    13  C   -0.020513  -0.018419  -0.004603  -0.000000   0.000000  -0.000000
    14  C   -0.018419   0.064124   0.032047   0.000000  -0.000014  -0.000000
    15  C   -0.004603   0.032047   0.124278  -0.000000  -0.000003  -0.000001
    16  H   -0.000000   0.000000  -0.000000   0.000302   0.000041  -0.000000
    17  H    0.000000  -0.000014  -0.000003   0.000041  -0.003617  -0.000000
    18  H   -0.000000  -0.000000  -0.000001  -0.000000  -0.000000   0.001862
    19  H    0.000000   0.000000   0.000076   0.000000  -0.000000  -0.000005
    20  H    0.000000   0.000000   0.000076   0.000000  -0.000000  -0.000005
    21  H    0.000002  -0.000004   0.000033  -0.000000  -0.000000  -0.000000
    22  H    0.000528  -0.000036   0.000028  -0.000000  -0.000000  -0.000000
    23  H   -0.000125  -0.000144  -0.000413  -0.000000  -0.000013  -0.000000
              19         20         21         22         23
     1  Br   0.000000   0.000000  -0.000000  -0.000000  -0.000000
     2  C   -0.000002  -0.000002   0.000000   0.000000   0.000000
     3  C    0.000000   0.000000  -0.000000   0.000000   0.000000
     4  C    0.000001   0.000001  -0.000000   0.000000  -0.000014
     5  C    0.000082   0.000082  -0.000001  -0.000000   0.000010
     6  C   -0.000534  -0.000534   0.000001   0.000000   0.000001
     7  C    0.000002   0.000002   0.000000   0.000000  -0.000000
     8  C    0.001194   0.001194   0.000050  -0.000000   0.000000
     9  C   -0.000484  -0.000484   0.000048  -0.000008   0.000017
    10  C    0.000001   0.000001   0.000837   0.000001  -0.000014
    11  C   -0.000002  -0.000002  -0.000163  -0.000341   0.000028
    12  I    0.000000   0.000000  -0.000090  -0.000052   0.000001
    13  C    0.000000   0.000000   0.000002   0.000528  -0.000125
    14  C    0.000000   0.000000  -0.000004  -0.000036  -0.000144
    15  C    0.000076   0.000076   0.000033   0.000028  -0.000413
    16  H    0.000000   0.000000  -0.000000  -0.000000  -0.000000
    17  H   -0.000000  -0.000000  -0.000000  -0.000000  -0.000013
    18  H   -0.000005  -0.000005  -0.000000  -0.000000  -0.000000
    19  H    0.001064  -0.000276  -0.000005   0.000000  -0.000000
    20  H   -0.000276   0.001064  -0.000005   0.000000  -0.000000
    21  H   -0.000005  -0.000005   0.001620  -0.000000  -0.000000
    22  H    0.000000   0.000000  -0.000000  -0.000147   0.000044
    23  H   -0.000000  -0.000000  -0.000000   0.000044  -0.003225
 Mulliken charges and spin densities:
               1          2
     1  Br   0.091240   0.076745
     2  C   -0.065078   0.217580
     3  C   -0.140938  -0.035901
     4  C   -0.097363   0.079265
     5  C   -0.044392   0.087853
     6  C   -0.062367   0.123551
     7  C   -0.082094  -0.081763
     8  C   -0.339902  -0.021362
     9  C   -0.058516   0.114033
    10  C   -0.084755  -0.075585
    11  C   -0.272816   0.224046
    12  I    0.356705   0.135788
    13  C   -0.143171  -0.024224
    14  C   -0.093665   0.066385
    15  C   -0.041248   0.113944
    16  H    0.262453   0.000630
    17  H    0.246630  -0.004371
    18  H    0.254472   0.002674
    19  H    0.278073   0.001112
    20  H    0.278072   0.001112
    21  H    0.251471   0.002321
    22  H    0.259563   0.000015
    23  H    0.247626  -0.003847
 Sum of Mulliken charges =   1.00000   1.00000
 Mulliken charges and spin densities with hydrogens summed into heavy atoms:
               1          2
     1  Br   0.091240   0.076745
     2  C   -0.065078   0.217580
     3  C    0.121515  -0.035271
     4  C    0.149267   0.074894
     5  C   -0.044392   0.087853
     6  C   -0.062367   0.123551
     7  C    0.172377  -0.079089
     8  C    0.216244  -0.019138
     9  C   -0.058516   0.114033
    10  C    0.166716  -0.073264
    11  C   -0.272816   0.224046
    12  I    0.356705   0.135788
    13  C    0.116392  -0.024209
    14  C    0.153961   0.062538
    15  C   -0.041248   0.113944
 Electronic spatial extent (au):  <R**2>=          11209.9721
 Charge=              1.0000 electrons
 Dipole moment (field-independent basis, Debye):
    X=              1.0751    Y=              0.8223    Z=              0.0000  Tot=              1.3535
 Quadrupole moment (field-independent basis, Debye-Ang):
   XX=            -55.0244   YY=            -97.2922   ZZ=           -121.4633
   XY=              0.9838   XZ=             -0.0002   YZ=             -0.0001
 Traceless Quadrupole moment (field-independent basis, Debye-Ang):
   XX=             36.2356   YY=             -6.0322   ZZ=            -30.2033
   XY=              0.9838   XZ=             -0.0002   YZ=             -0.0001
 Octapole moment (field-independent basis, Debye-Ang**2):
  XXX=            -12.6304  YYY=             -2.9037  ZZZ=             -0.0003  XYY=              0.8675
  XXY=             -9.0178  XXZ=             -0.0006  XZZ=            -15.3679  YZZ=            -11.9448
  YYZ=             -0.0002  XYZ=             -0.0000
 Hexadecapole moment (field-independent basis, Debye-Ang**3):
 XXXX=          -7849.7523 YYYY=           -664.0923 ZZZZ=           -137.3871 XXXY=             17.6516
 XXXZ=             -0.0022 YYYX=             -5.2700 YYYZ=              0.0007 ZZZX=              0.0066
 ZZZY=              0.0011 XXYY=          -1682.7063 XXZZ=          -1729.4606 YYZZ=           -160.7108
 XXYZ=              0.0001 YYXZ=              0.0019 ZZXY=             -6.6296
 N-N= 1.629049744717D+03 E-N=-2.688216231550D+04  KE= 9.952304836005D+03
 There are a total of      552474 grid points.
 ElSum from          density=      172.9999886602
 ElSum from atomic densities=      174.0001297158

 Hirshfeld populations at iteration   1 (CX, CA, CB, DipXYZ):
               1          2          3          4          5          6
     1  Br   0.000000  17.501249  17.410184   0.146937  -0.028702  -0.000002
     2  C    0.000000   3.036221   2.898066   0.033983  -0.002385   0.000002
     3  C    0.000000   3.008694   2.999340   0.022108   0.032302  -0.000000
     4  C    0.000000   3.027315   2.964734  -0.024758   0.048848  -0.000001
     5  C    0.000000   3.029968   2.941714  -0.009892   0.024381   0.000001
     6  C    0.000000   3.021474   2.940098  -0.034425  -0.040326  -0.000001
     7  C    0.000000   3.001873   3.018189   0.009711  -0.044188   0.000000
     8  C    0.000000   3.014057   3.007927   0.000070  -0.019246  -0.000002
     9  C    0.000000   3.020071   2.941612   0.035190  -0.038788   0.000001
    10  C    0.000000   3.004639   3.016953  -0.002487  -0.044369   0.000001
    11  C    0.000000   3.057802   2.911603  -0.010833   0.002872  -0.000001
    12  I    0.000000  26.479076  26.330300  -0.130465  -0.020967   0.000002
    13  C    0.000000   3.012742   2.996124  -0.013567   0.036433  -0.000001
    14  C    0.000000   3.025414   2.967370   0.028639   0.047040   0.000001
    15  C    0.000000   3.032399   2.932170   0.009357   0.024151  -0.000001
    16  H    0.000000   0.464501   0.464840   0.106440   0.142074  -0.000002
    17  H    0.000000   0.466059   0.463614  -0.041111   0.167810   0.000000
    18  H    0.000000   0.464607   0.466331   0.040256  -0.170899   0.000000
    19  H    0.000000   0.466374   0.465091  -0.001275  -0.110142   0.128768
    20  H    0.000000   0.466375   0.465091  -0.001275  -0.110146  -0.128765
    21  H    0.000000   0.466698   0.468307  -0.036247  -0.167482  -0.000000
    22  H    0.000000   0.466637   0.466742  -0.093800   0.145803   0.000000
    23  H    0.000000   0.465751   0.463596   0.045681   0.166915  -0.000002
       Tot   0.000000  86.999994  85.999994   0.078237   0.040987  -0.000002

 Dip from Atomic Chgs              0.344729   0.282525   0.000007
         Total Dipole              0.422966   0.323512   0.000005

 Hirshfeld charges, spin densities, dipoles, and CM5 charges using IRadAn=      5:
              Q-H        S-H        Dx         Dy         Dz        Q-CM5   
     1  Br   0.088568   0.091065   0.146937  -0.028702  -0.000002   0.103075
     2  C    0.065713   0.138155   0.033983  -0.002385   0.000002   0.044726
     3  C   -0.008034   0.009354   0.022108   0.032302  -0.000000  -0.062186
     4  C    0.007951   0.062581  -0.024758   0.048848  -0.000001  -0.045116
     5  C    0.028319   0.088254  -0.009892   0.024381   0.000001   0.023353
     6  C    0.038429   0.081376  -0.034425  -0.040326  -0.000001   0.027864
     7  C   -0.020062  -0.016316   0.009711  -0.044188   0.000000  -0.071584
     8  C   -0.021983   0.006130   0.000070  -0.019246  -0.000002  -0.118059
     9  C    0.038317   0.078459   0.035190  -0.038788   0.000001   0.027683
    10  C   -0.021592  -0.012314  -0.002487  -0.044369   0.000001  -0.074027
    11  C    0.030594   0.146199  -0.010833   0.002872  -0.000001   0.001245
    12  I    0.190624   0.148776  -0.130465  -0.020967   0.000002   0.215816
    13  C   -0.008866   0.016617  -0.013567   0.036433  -0.000001  -0.063929
    14  C    0.007216   0.058044   0.028639   0.047040   0.000001  -0.045909
    15  C    0.035431   0.100228   0.009357   0.024151  -0.000001   0.030451
    16  H    0.070659  -0.000339   0.106440   0.142074  -0.000002   0.128258
    17  H    0.070327   0.002445  -0.041111   0.167810   0.000000   0.127716
    18  H    0.069062  -0.001724   0.040256  -0.170899   0.000000   0.126980
    19  H    0.068535   0.001284  -0.001275  -0.110142   0.128768   0.124411
    20  H    0.068534   0.001284  -0.001275  -0.110146  -0.128765   0.124411
    21  H    0.064996  -0.001609  -0.036247  -0.167482  -0.000000   0.122760
    22  H    0.066621  -0.000105  -0.093800   0.145803   0.000000   0.124054
    23  H    0.070654   0.002155   0.045681   0.166915  -0.000002   0.128020
       Tot   1.000011   1.000000   0.078237   0.040987  -0.000002   1.000011
 Hirshfeld charges and spin densities with hydrogens summed into heavy atoms:
              Q-H        S-H       Q-CM5   
     1  Br   0.088568   0.091065   0.103075
     2  C    0.065713   0.138155   0.044726
     3  C    0.062624   0.009015   0.066072
     4  C    0.078278   0.065025   0.082600
     5  C    0.028319   0.088254   0.023353
     6  C    0.038429   0.081376   0.027864
     7  C    0.049000  -0.018040   0.055395
     8  C    0.115086   0.008697   0.130763
     9  C    0.038317   0.078459   0.027683
    10  C    0.043404  -0.013922   0.048733
    11  C    0.030594   0.146199   0.001245
    12  I    0.190624   0.148776   0.215816
    13  C    0.057755   0.016512   0.060125
    14  C    0.077870   0.060199   0.082111
    15  C    0.035431   0.100228   0.030451
 
 EQQ= 0.715482963261E-01 EQD=-0.412365066943E-01 EDD= 0.826384616198E-02
 EQQ+QD+DD= 0.385756357938E-01
 
                          Isotropic Fermi Contact Couplings
        Atom                 a.u.       MegaHertz       Gauss      10(-4) cm-1
     1  Br(79)             0.01067      11.99487       4.28007       4.00106
     2  C(13)              0.02255      25.35132       9.04598       8.45629
     3  C(13)             -0.00618      -6.95021      -2.48001      -2.31834
     4  C(13)              0.00546       6.13689       2.18979       2.04705
     5  C(13)              0.00414       4.65097       1.65958       1.55140
     6  C(13)              0.01023      11.50343       4.10471       3.83713
     7  C(13)             -0.01064     -11.96490      -4.26937      -3.99106
     8  C(13)             -0.00436      -4.90393      -1.74984      -1.63578
     9  C(13)              0.00921      10.34922       3.69286       3.45213
    10  C(13)             -0.01012     -11.37448      -4.05870      -3.79412
    11  C(13)              0.02315      26.02563       9.28659       8.68122
    12  I(127)             0.00695       6.25885       2.23331       2.08773
    13  C(13)             -0.00514      -5.77873      -2.06200      -1.92758
    14  C(13)              0.00409       4.59492       1.63958       1.53270
    15  C(13)              0.00671       7.54890       2.69363       2.51804
    16  H(1)               0.00011       0.49288       0.17587       0.16441
    17  H(1)              -0.00111      -4.95890      -1.76946      -1.65411
    18  H(1)               0.00060       2.67335       0.95392       0.89173
    19  H(1)               0.00045       1.99839       0.71307       0.66659
    20  H(1)               0.00045       1.99831       0.71305       0.66657
    21  H(1)               0.00052       2.30543       0.82264       0.76901
    22  H(1)              -0.00003      -0.14374      -0.05129      -0.04795
    23  H(1)              -0.00099      -4.41729      -1.57620      -1.47345
 --------------------------------------------------------
       Center         ----  Spin Dipole Couplings  ----
                      3XX-RR        3YY-RR        3ZZ-RR
 --------------------------------------------------------
     1   Atom       -0.603234     -0.472612      1.075846
     2   Atom       -0.102686     -0.111895      0.214581
     3   Atom        0.004219      0.006453     -0.010672
     4   Atom       -0.040664     -0.037189      0.077853
     5   Atom       -0.054244     -0.056233      0.110477
     6   Atom       -0.059731     -0.056048      0.115779
     7   Atom        0.027591      0.023897     -0.051488
     8   Atom       -0.001521      0.004508     -0.002987
     9   Atom       -0.056536     -0.052749      0.109284
    10   Atom        0.024387      0.021432     -0.045818
    11   Atom       -0.104605     -0.116198      0.220803
    12   Atom       -1.119551     -0.913654      2.033205
    13   Atom       -0.001450      0.001432      0.000018
    14   Atom       -0.036038     -0.032646      0.068684
    15   Atom       -0.064626     -0.066278      0.130903
    16   Atom       -0.000742      0.003919     -0.003177
    17   Atom       -0.005507      0.009192     -0.003686
    18   Atom        0.002311      0.000726     -0.003037
    19   Atom       -0.000579      0.003639     -0.003060
    20   Atom       -0.000579      0.003639     -0.003060
    21   Atom        0.001878      0.001418     -0.003296
    22   Atom       -0.001084      0.004577     -0.003493
    23   Atom       -0.005064      0.008858     -0.003793
 --------------------------------------------------------
                        XY            XZ            YZ
 --------------------------------------------------------
     1   Atom        0.030055      0.000010      0.000003
     2   Atom       -0.002661      0.000002      0.000001
     3   Atom       -0.002051     -0.000000      0.000000
     4   Atom        0.002424      0.000000      0.000001
     5   Atom        0.001707      0.000001      0.000000
     6   Atom        0.000154      0.000001      0.000001
     7   Atom        0.001947     -0.000000     -0.000000
     8   Atom       -0.000065     -0.000000     -0.000000
     9   Atom       -0.000033      0.000000      0.000001
    10   Atom       -0.002461      0.000000     -0.000001
    11   Atom        0.002952     -0.000002      0.000004
    12   Atom       -0.041256     -0.000010      0.000027
    13   Atom        0.002217     -0.000000     -0.000000
    14   Atom       -0.002398     -0.000001      0.000000
    15   Atom       -0.001326      0.000001      0.000001
    16   Atom        0.000965     -0.000000     -0.000000
    17   Atom       -0.000899      0.000000     -0.000000
    18   Atom        0.002203      0.000000     -0.000000
    19   Atom        0.000016     -0.000019     -0.001715
    20   Atom        0.000016      0.000019      0.001715
    21   Atom       -0.002294      0.000000     -0.000000
    22   Atom       -0.001440      0.000000     -0.000000
    23   Atom        0.001021     -0.000000     -0.000000
 --------------------------------------------------------


 ---------------------------------------------------------------------------------
              Anisotropic Spin Dipole Couplings in Principal Axis System
 ---------------------------------------------------------------------------------

       Atom             a.u.   MegaHertz   Gauss  10(-4) cm-1        Axes

              Baa    -0.6098   -81.799   -29.188   -27.285  0.9768 -0.2140 -0.0000
     1 Br(79) Bbb    -0.4660   -62.512   -22.306   -20.852  0.2140  0.9768 -0.0000
              Bcc     1.0758   144.311    51.494    48.137  0.0000  0.0000  1.0000
 
              Baa    -0.1126   -15.111    -5.392    -5.040  0.2590  0.9659 -0.0000
     2 C(13)  Bbb    -0.1020   -13.684    -4.883    -4.564  0.9659 -0.2590 -0.0000
              Bcc     0.2146    28.795    10.275     9.605  0.0000  0.0000  1.0000
 
              Baa    -0.0107    -1.432    -0.511    -0.478  0.0000 -0.0000  1.0000
     3 C(13)  Bbb     0.0030     0.403     0.144     0.134  0.8597  0.5108 -0.0000
              Bcc     0.0077     1.029     0.367     0.343 -0.5108  0.8597  0.0000
 
              Baa    -0.0419    -5.624    -2.007    -1.876  0.8895 -0.4569  0.0000
     4 C(13)  Bbb    -0.0359    -4.823    -1.721    -1.609  0.4569  0.8895 -0.0000
              Bcc     0.0779    10.447     3.728     3.485  0.0000  0.0000  1.0000
 
              Baa    -0.0572    -7.678    -2.740    -2.561 -0.4984  0.8670  0.0000
     5 C(13)  Bbb    -0.0533    -7.147    -2.550    -2.384  0.8670  0.4984 -0.0000
              Bcc     0.1105    14.825     5.290     4.945  0.0000  0.0000  1.0000
 
              Baa    -0.0597    -8.016    -2.860    -2.674  0.9991 -0.0416 -0.0000
     6 C(13)  Bbb    -0.0560    -7.520    -2.683    -2.508  0.0416  0.9991 -0.0000
              Bcc     0.1158    15.536     5.544     5.182  0.0000  0.0000  1.0000
 
              Baa    -0.0515    -6.909    -2.465    -2.305  0.0000  0.0000  1.0000
     7 C(13)  Bbb     0.0231     3.094     1.104     1.032 -0.3948  0.9188 -0.0000
              Bcc     0.0284     3.815     1.361     1.272  0.9188  0.3948 -0.0000
 
              Baa    -0.0030    -0.401    -0.143    -0.134  0.0000  0.0000  1.0000
     8 C(13)  Bbb    -0.0015    -0.204    -0.073    -0.068  0.9999  0.0108 -0.0000
              Bcc     0.0045     0.605     0.216     0.202 -0.0108  0.9999 -0.0000
 
              Baa    -0.0565    -7.587    -2.707    -2.531  1.0000  0.0088 -0.0000
     9 C(13)  Bbb    -0.0527    -7.078    -2.526    -2.361 -0.0088  1.0000 -0.0000
              Bcc     0.1093    14.665     5.233     4.892  0.0000  0.0000  1.0000
 
              Baa    -0.0458    -6.148    -2.194    -2.051 -0.0000  0.0000  1.0000
    10 C(13)  Bbb     0.0200     2.689     0.960     0.897  0.4926  0.8703 -0.0000
              Bcc     0.0258     3.459     1.234     1.154  0.8703 -0.4926  0.0000
 
              Baa    -0.1169   -15.688    -5.598    -5.233 -0.2334  0.9724 -0.0000
    11 C(13)  Bbb    -0.1039   -13.942    -4.975    -4.651  0.9724  0.2334  0.0000
              Bcc     0.2208    29.630    10.573     9.883 -0.0000  0.0000  1.0000
 
              Baa    -1.1275  -121.197   -43.246   -40.427  0.9819  0.1894  0.0000
    12 I(127) Bbb    -0.9057   -97.354   -34.738   -32.474 -0.1894  0.9819 -0.0000
              Bcc     2.0332   218.552    77.985    72.901 -0.0000  0.0000  1.0000
 
              Baa    -0.0027    -0.356    -0.127    -0.119  0.8789 -0.4770  0.0000
    13 C(13)  Bbb     0.0000     0.002     0.001     0.001  0.0001  0.0002  1.0000
              Bcc     0.0026     0.354     0.126     0.118  0.4770  0.8789 -0.0002
 
              Baa    -0.0373    -5.002    -1.785    -1.669  0.8881  0.4597  0.0000
    14 C(13)  Bbb    -0.0314    -4.214    -1.504    -1.406 -0.4597  0.8881 -0.0000
              Bcc     0.0687     9.217     3.289     3.074 -0.0000  0.0000  1.0000
 
              Baa    -0.0670    -8.993    -3.209    -3.000  0.4855  0.8742 -0.0000
    15 C(13)  Bbb    -0.0639    -8.573    -3.059    -2.860  0.8742 -0.4855 -0.0000
              Bcc     0.1309    17.566     6.268     5.859  0.0000  0.0000  1.0000
 
              Baa    -0.0032    -1.695    -0.605    -0.565 -0.0000  0.0000  1.0000
    16 H(1)   Bbb    -0.0009    -0.498    -0.178    -0.166  0.9808 -0.1949  0.0000
              Bcc     0.0041     2.193     0.783     0.732  0.1949  0.9808 -0.0000
 
              Baa    -0.0056    -2.967    -1.059    -0.990  0.9981  0.0608 -0.0000
    17 H(1)   Bbb    -0.0037    -1.967    -0.702    -0.656  0.0000  0.0000  1.0000
              Bcc     0.0092     4.934     1.761     1.646 -0.0608  0.9981 -0.0000
 
              Baa    -0.0030    -1.620    -0.578    -0.541 -0.0000  0.0000  1.0000
    18 H(1)   Bbb    -0.0008    -0.439    -0.157    -0.146 -0.5750  0.8181 -0.0000
              Bcc     0.0039     2.060     0.735     0.687  0.8181  0.5750 -0.0000
 
              Baa    -0.0035    -1.854    -0.661    -0.618  0.0050  0.2344  0.9721
    19 H(1)   Bbb    -0.0006    -0.309    -0.110    -0.103  1.0000 -0.0055 -0.0038
              Bcc     0.0041     2.162     0.772     0.721  0.0044  0.9721 -0.2344
 
              Baa    -0.0035    -1.854    -0.661    -0.618 -0.0050 -0.2344  0.9721
    20 H(1)   Bbb    -0.0006    -0.309    -0.110    -0.103  1.0000 -0.0055  0.0038
              Bcc     0.0041     2.162     0.772     0.721  0.0044  0.9721  0.2344
 
              Baa    -0.0033    -1.758    -0.627    -0.587 -0.0000  0.0000  1.0000
    21 H(1)   Bbb    -0.0007    -0.351    -0.125    -0.117  0.6709  0.7416 -0.0000
              Bcc     0.0040     2.110     0.753     0.704  0.7416 -0.6709  0.0000
 
              Baa    -0.0035    -1.864    -0.665    -0.622 -0.0000  0.0000  1.0000
    22 H(1)   Bbb    -0.0014    -0.763    -0.272    -0.254  0.9724  0.2332  0.0000
              Bcc     0.0049     2.626     0.937     0.876 -0.2332  0.9724 -0.0000
 
              Baa    -0.0051    -2.742    -0.978    -0.915  0.9974 -0.0727  0.0000
    23 H(1)   Bbb    -0.0038    -2.024    -0.722    -0.675 -0.0000  0.0000  1.0000
              Bcc     0.0089     4.766     1.701     1.590  0.0727  0.9974 -0.0000
 

 ---------------------------------------------------------------------------------

 Running external command "gaunbo6 R"
         input file       "/home/rpaton/arbr500/xtb/fukui/Gau-2136525.EIn"
         output file      "/home/rpaton/arbr500/xtb/fukui/Gau-2136525.EOu"
         message file     "/home/rpaton/arbr500/xtb/fukui/Gau-2136525.EMs"
         fchk file        "/home/rpaton/arbr500/xtb/fukui/Gau-2136525.EFC"
         mat. el file     "/home/rpaton/arbr500/xtb/fukui/Gau-2136525.EUF"

 Writing WrtUnf unformatted file "/home/rpaton/arbr500/xtb/fukui/Gau-2136525.EUF"
 Gaussian matrix elements                                         Version   2 NLab=11 Len12L=8 Len4L=8
 Write SHELL TO ATOM MAP                   from file      0 offset           0 length                 106 to matrix element file.
 Write SHELL TYPES                         from file      0 offset           0 length                 106 to matrix element file.
 Write NUMBER OF PRIMITIVES PER SHELL      from file      0 offset           0 length                 106 to matrix element file.
 Write PRIMITIVE EXPONENTS                 from file      0 offset           0 length                 200 to matrix element file.
 Write CONTRACTION COEFFICIENTS            from file      0 offset           0 length                 200 to matrix element file.
 Write P(S=P) CONTRACTION COEFFICIENTS     from file      0 offset           0 length                 200 to matrix element file.
 Write COORDINATES OF EACH SHELL           from file      0 offset           0 length                 318 to matrix element file.
 Write BONDS PER ATOM                      from file      0 offset           0 length                  23 to matrix element file.
 Write BONDED ATOMS                        from file      0 offset           0 length                  50 to matrix element file.
 Write BOND TYPES                          from file      0 offset           0 length                  50 to matrix element file.
 Write ONIOM CHARGE/MULT                   from file      0 offset           0 length                  32 to matrix element file.
 Write ONIOM ATOM LAYERS                   from file      0 offset           0 length                  23 to matrix element file.
 Write ONIOM ATOM MODIFIERS                from file      0 offset           0 length                  23 to matrix element file.
 Write ONIOM ATOM TYPES                    from file      0 offset           0 length                  23 to matrix element file.
 Write ONIOM LINK ATOMS                    from file      0 offset           0 length                  23 to matrix element file.
 Write ONIOM LINK CHARGES                  from file      0 offset           0 length                  23 to matrix element file.
 Write ONIOM LINK DISTANCES                from file      0 offset           0 length                  92 to matrix element file.
 Write SYMINF INTS                         from file      0 offset           0 length                  26 to matrix element file.
 Write ROTTR TO SO                         from file      0 offset           0 length                  12 to matrix element file.
 Write GAUSSIAN SCALARS                    from file    501 offset           0 to matrix element file.
 Write OPTIMIZATION FLAGS                  from file      0 offset           0 length                  23 to matrix element file.
 Write INTEGER ISO                         from file      0 offset           0 length                  23 to matrix element file.
 Write INTEGER SPIN                        from file      0 offset           0 length                  23 to matrix element file.
 Write REAL ZEFFECTIVE                     from file      0 offset           0 length                  23 to matrix element file.
 Write REAL QUADRUPOLEMOMENT               from file      0 offset           0 length                  23 to matrix element file.
 Write REAL GFACTOR                        from file      0 offset           0 length                  23 to matrix element file.
 Write REAL ZNUCLEAR                       from file      0 offset           0 length                  23 to matrix element file.
 Write MULLIKEN CHARGES                    from file      0 offset           0 length                  23 to matrix element file.
 Write TYPE 6 CHARGES                      from file      0 offset           0 length                  23 to matrix element file.
 Write TYPE 7 CHARGES                      from file      0 offset           0 length                  23 to matrix element file.
 Write NUCLEAR GRADIENT                    from file  10584 offset           0 length                  69 to matrix element file.
 Array NUCLEAR FORCE CONSTANTS              on  file  10585 does not exist.
 Write ELECTRIC DIPOLE MOMENT              from file      0 offset           0 length                   3 to matrix element file.
 Write NON-ADIABATIC COUPLING              from file  10810 offset           0 length                  69 to matrix element file.
 Write FINITE EM FIELD                     from file  10521 offset           0 length                  35 to matrix element file.
 Write OVERLAP                             from file  10514 offset           0 length               19306 to matrix element file.
 Write CORE HAMILTONIAN ALPHA              from file  10515 offset           0 length               19306 to matrix element file.
 Write CORE HAMILTONIAN BETA               from file  10515 offset       19306 length               19306 to matrix element file.
 Write KINETIC ENERGY                      from file  10516 offset           0 length               19306 to matrix element file.
 Write ORTHOGONAL BASIS                    from file  10685 offset           0 length               38416 to matrix element file.
 Write DIPOLE INTEGRALS                    from file  10518 offset           0 length               57918 to matrix element file.
 Array DIP VEL INTEGRALS                    on  file  10572 does not exist.
 Array R X DEL INTEGRALS                    on  file  10572 does not exist.
 Write ALPHA ORBITAL ENERGIES              from file      0 offset           0 length                 196 to matrix element file.
 Write BETA ORBITAL ENERGIES               from file      0 offset           0 length                 196 to matrix element file.
 Write ALPHA MO COEFFICIENTS               from file  10524 offset           0 length               38416 to matrix element file.
 Write BETA MO COEFFICIENTS                from file  10526 offset           0 length               38416 to matrix element file.
 Write ALPHA DENSITY MATRIX                from file      0 offset           0 length               19306 to matrix element file.
 Write BETA DENSITY MATRIX                 from file      0 offset           0 length               19306 to matrix element file.
 Write ALPHA FOCK MATRIX                   from file  10536 offset           0 length               19306 to matrix element file.
 Write BETA FOCK MATRIX                    from file  10538 offset           0 length               19306 to matrix element file.
 Write ENERGY-WEIGHTED DENSITY             from file  10571 offset           0 length               19306 to matrix element file.
 Write ALPHA SCF DENSITY MATRIX            from file      0 offset           0 length               19306 to matrix element file.
 Write BETA SCF DENSITY MATRIX             from file      0 offset           0 length               19306 to matrix element file.
 No 2e integrals to process.
 Perform NBO analysis...

 *********************************** NBO 7.0 ***********************************
             N A T U R A L   A T O M I C   O R B I T A L   A N D
          N A T U R A L   B O N D   O R B I T A L   A N A L Y S I S
 **************************** Robert Paton (I101709) ***************************
  (c) Copyright 1996-2019 Board of Regents of the University of Wisconsin System
      on behalf of the Theoretical Chemistry Institute.  All rights reserved.

          Cite this program [NBO 7.0.5 (4-Jun-2019)] as:

          NBO 7.0.  E. D. Glendening, J. K. Badenhoop, A. E. Reed,
          J. E. Carpenter, J. A. Bohmann, C. M. Morales, P. Karafiloglou,
          C. R. Landis, and F. Weinhold, Theoretical Chemistry Institute,
          University of Wisconsin, Madison, WI (2018)

 Filename set to /home/rpaton/arbr500/xtb/fukui/Gau-2136525

 Job title:  energy: -39.823789709276 gnorm: 0.000181017279 xtb: 6.7.0 (08769fc)


 NATURAL POPULATIONS:  Natural atomic orbital occupancies

  NAO Atom No lang   Type(AO)    Occupancy     Spin
 -----------------------------------------------------
   1   Br  1  s      Cor( 3s)     2.00000     0.00000
   2   Br  1  s      Cor( 1s)     2.00000     0.00000
   3   Br  1  s      Cor( 2s)     1.99999     0.00000
   4   Br  1  s      Val( 4s)     1.87995     0.00087
   5   Br  1  s      Ryd( 5s)     0.00291     0.00008
   6   Br  1  px     Cor( 3p)     2.00000     0.00000
   7   Br  1  px     Cor( 2p)     1.99999     0.00000
   8   Br  1  px     Val( 4p)     1.10488    -0.00760
   9   Br  1  px     Ryd( 5p)     0.00347     0.00007
  10   Br  1  py     Cor( 3p)     2.00000     0.00000
  11   Br  1  py     Cor( 2p)     1.99999     0.00000
  12   Br  1  py     Val( 4p)     1.93934    -0.00014
  13   Br  1  py     Ryd( 5p)     0.00149    -0.00001
  14   Br  1  pz     Cor( 3p)     2.00000     0.00000
  15   Br  1  pz     Cor( 2p)     2.00000     0.00000
  16   Br  1  pz     Val( 4p)     1.84944     0.09068
  17   Br  1  pz     Ryd( 5p)     0.00068     0.00008
  18   Br  1  dxy    Cor( 3d)     1.99965     0.00000
  19   Br  1  dxy    Ryd( 4d)     0.00155    -0.00004
  20   Br  1  dxz    Cor( 3d)     1.99987     0.00001
  21   Br  1  dxz    Ryd( 4d)     0.00224    -0.00026
  22   Br  1  dyz    Cor( 3d)     1.99999     0.00000
  23   Br  1  dyz    Ryd( 4d)     0.00013    -0.00001
  24   Br  1  dx2y2  Cor( 3d)     1.99947     0.00000
  25   Br  1  dx2y2  Ryd( 4d)     0.00439    -0.00006
  26   Br  1  dz2    Cor( 3d)     1.99980     0.00000
  27   Br  1  dz2    Ryd( 4d)     0.00161     0.00002

  28    C  2  s      Cor( 1s)     1.99989     0.00000
  29    C  2  s      Val( 2s)     0.95104     0.00780
  30    C  2  s      Ryd( 3s)     0.00058    -0.00002
  31    C  2  px     Val( 2p)     1.02936     0.00552
  32    C  2  px     Ryd( 3p)     0.00708    -0.00009
  33    C  2  py     Val( 2p)     1.10492     0.00388
  34    C  2  py     Ryd( 3p)     0.00849    -0.00005
  35    C  2  pz     Val( 2p)     0.95021     0.16422
  36    C  2  pz     Ryd( 3p)     0.00104    -0.00016

  37    C  3  s      Cor( 1s)     1.99986     0.00000
  38    C  3  s      Val( 2s)     0.95459    -0.00187
  39    C  3  s      Ryd( 3s)     0.00104     0.00002
  40    C  3  px     Val( 2p)     1.14950    -0.00168
  41    C  3  px     Ryd( 3p)     0.00685     0.00004
  42    C  3  py     Val( 2p)     1.15177    -0.00348
  43    C  3  py     Ryd( 3p)     0.00553     0.00002
  44    C  3  pz     Val( 2p)     0.96459    -0.00908
  45    C  3  pz     Ryd( 3p)     0.00042    -0.00004

  46    C  4  s      Cor( 1s)     1.99983     0.00000
  47    C  4  s      Val( 2s)     0.94409     0.00216
  48    C  4  s      Ryd( 3s)     0.00078    -0.00001
  49    C  4  px     Val( 2p)     1.07433     0.00075
  50    C  4  px     Ryd( 3p)     0.00534     0.00000
  51    C  4  py     Val( 2p)     1.20703     0.00076
  52    C  4  py     Ryd( 3p)     0.00548     0.00000
  53    C  4  pz     Val( 2p)     0.93568     0.06855
  54    C  4  pz     Ryd( 3p)     0.00034    -0.00001

  55    C  5  s      Cor( 1s)     1.99987     0.00000
  56    C  5  s      Val( 2s)     0.84741     0.00156
  57    C  5  s      Ryd( 3s)     0.00101     0.00001
  58    C  5  px     Val( 2p)     1.08700    -0.00066
  59    C  5  px     Ryd( 3p)     0.00466    -0.00002
  60    C  5  py     Val( 2p)     1.10636    -0.00102
  61    C  5  py     Ryd( 3p)     0.00554     0.00005
  62    C  5  pz     Val( 2p)     0.95212     0.08961
  63    C  5  pz     Ryd( 3p)     0.00026     0.00006

  64    C  6  s      Cor( 1s)     1.99991     0.00000
  65    C  6  s      Val( 2s)     0.85417     0.00367
  66    C  6  s      Ryd( 3s)     0.00100     0.00002
  67    C  6  px     Val( 2p)     1.10294     0.00281
  68    C  6  px     Ryd( 3p)     0.00513     0.00003
  69    C  6  py     Val( 2p)     1.06124     0.00080
  70    C  6  py     Ryd( 3p)     0.00413     0.00000
  71    C  6  pz     Val( 2p)     0.92088     0.09704
  72    C  6  pz     Ryd( 3p)     0.00100     0.00003

  73    C  7  s      Cor( 1s)     1.99984     0.00000
  74    C  7  s      Val( 2s)     0.94029    -0.00334
  75    C  7  s      Ryd( 3s)     0.00133     0.00001
  76    C  7  px     Val( 2p)     1.07557    -0.00428
  77    C  7  px     Ryd( 3p)     0.00666     0.00005
  78    C  7  py     Val( 2p)     1.22352    -0.00290
  79    C  7  py     Ryd( 3p)     0.00638     0.00004
  80    C  7  pz     Val( 2p)     0.98454    -0.04260
  81    C  7  pz     Ryd( 3p)     0.00038    -0.00006

  82    C  8  s      Cor( 1s)     1.99975     0.00000
  83    C  8  s      Val( 2s)     1.02449    -0.00117
  84    C  8  s      Ryd( 3s)     0.00070     0.00000
  85    C  8  px     Val( 2p)     1.01680    -0.00412
  86    C  8  px     Ryd( 3p)     0.00304     0.00001
  87    C  8  py     Val( 2p)     1.18290    -0.00191
  88    C  8  py     Ryd( 3p)     0.00228     0.00001
  89    C  8  pz     Val( 2p)     1.29758    -0.00156
  90    C  8  pz     Ryd( 3p)     0.00101     0.00002

  91    C  9  s      Cor( 1s)     1.99991     0.00000
  92    C  9  s      Val( 2s)     0.85477     0.00333
  93    C  9  s      Ryd( 3s)     0.00103     0.00002
  94    C  9  px     Val( 2p)     1.10358     0.00259
  95    C  9  px     Ryd( 3p)     0.00516     0.00003
  96    C  9  py     Val( 2p)     1.06123     0.00038
  97    C  9  py     Ryd( 3p)     0.00420     0.00001
  98    C  9  pz     Val( 2p)     0.92125     0.09182
  99    C  9  pz     Ryd( 3p)     0.00099     0.00002

 100    C 10  s      Cor( 1s)     1.99984     0.00000
 101    C 10  s      Val( 2s)     0.93940    -0.00317
 102    C 10  s      Ryd( 3s)     0.00137     0.00001
 103    C 10  px     Val( 2p)     1.08045    -0.00407
 104    C 10  px     Ryd( 3p)     0.00675     0.00005
 105    C 10  py     Val( 2p)     1.22107    -0.00292
 106    C 10  py     Ryd( 3p)     0.00673     0.00004
 107    C 10  pz     Val( 2p)     0.97878    -0.03763
 108    C 10  pz     Ryd( 3p)     0.00039    -0.00006

 109    C 11  s      Cor( 1s)     1.99987     0.00000
 110    C 11  s      Val( 2s)     0.97931     0.00818
 111    C 11  s      Ryd( 3s)     0.00134    -0.00005
 112    C 11  px     Val( 2p)     1.11579     0.00653
 113    C 11  px     Ryd( 3p)     0.00914    -0.00017
 114    C 11  py     Val( 2p)     1.10316     0.00381
 115    C 11  py     Ryd( 3p)     0.00895    -0.00004
 116    C 11  pz     Val( 2p)     0.95027     0.17023
 117    C 11  pz     Ryd( 3p)     0.00101    -0.00012

 118    I 12  s      Cor( 2s)     2.00000     0.00000
 119    I 12  s      Cor( 1s)     2.00000     0.00000
 120    I 12  s      Cor( 4s)     2.00000     0.00000
 121    I 12  s      Cor( 3s)     1.99999     0.00000
 122    I 12  s      Val( 5s)     1.89370     0.00141
 123    I 12  s      Ryd( 6s)     0.00386     0.00010
 124    I 12  px     Cor( 4p)     2.00000     0.00000
 125    I 12  px     Cor( 2p)     2.00000     0.00000
 126    I 12  px     Cor( 3p)     1.99999     0.00000
 127    I 12  px     Val( 5p)     0.95675    -0.00950
 128    I 12  px     Ryd( 6p)     0.00458     0.00009
 129    I 12  py     Cor( 4p)     2.00000     0.00000
 130    I 12  py     Cor( 2p)     2.00000     0.00000
 131    I 12  py     Cor( 3p)     2.00000     0.00000
 132    I 12  py     Val( 5p)     1.94797    -0.00010
 133    I 12  py     Ryd( 6p)     0.00133    -0.00004
 134    I 12  pz     Cor( 4p)     2.00000     0.00000
 135    I 12  pz     Cor( 2p)     2.00000     0.00000
 136    I 12  pz     Cor( 3p)     2.00000     0.00000
 137    I 12  pz     Val( 5p)     1.80490     0.15010
 138    I 12  pz     Ryd( 6p)     0.00061    -0.00004
 139    I 12  dxy    Cor( 3d)     2.00000     0.00000
 140    I 12  dxy    Cor( 4d)     1.99983     0.00000
 141    I 12  dxy    Ryd( 5d)     0.00069    -0.00002
 142    I 12  dxz    Cor( 3d)     2.00000     0.00000
 143    I 12  dxz    Cor( 4d)     1.99994     0.00000
 144    I 12  dxz    Ryd( 5d)     0.00166    -0.00020
 145    I 12  dyz    Cor( 3d)     2.00000     0.00000
 146    I 12  dyz    Cor( 4d)     2.00000     0.00000
 147    I 12  dyz    Ryd( 5d)     0.00008    -0.00001
 148    I 12  dx2y2  Cor( 3d)     1.99999     0.00000
 149    I 12  dx2y2  Cor( 4d)     1.99971     0.00000
 150    I 12  dx2y2  Ryd( 5d)     0.00241    -0.00004
 151    I 12  dz2    Cor( 3d)     2.00000     0.00000
 152    I 12  dz2    Cor( 4d)     1.99989     0.00000
 153    I 12  dz2    Ryd( 5d)     0.00082     0.00004

 154    C 13  s      Cor( 1s)     1.99987     0.00000
 155    C 13  s      Val( 2s)     0.95385    -0.00152
 156    C 13  s      Ryd( 3s)     0.00109     0.00001
 157    C 13  px     Val( 2p)     1.14441    -0.00143
 158    C 13  px     Ryd( 3p)     0.00706     0.00005
 159    C 13  py     Val( 2p)     1.15918    -0.00330
 160    C 13  py     Ryd( 3p)     0.00578     0.00002
 161    C 13  pz     Val( 2p)     0.95703     0.00014
 162    C 13  pz     Ryd( 3p)     0.00044    -0.00004

 163    C 14  s      Cor( 1s)     1.99983     0.00000
 164    C 14  s      Val( 2s)     0.94456     0.00170
 165    C 14  s      Ryd( 3s)     0.00080     0.00000
 166    C 14  px     Val( 2p)     1.07705     0.00037
 167    C 14  px     Ryd( 3p)     0.00537     0.00001
 168    C 14  py     Val( 2p)     1.20466     0.00032
 169    C 14  py     Ryd( 3p)     0.00556     0.00001
 170    C 14  pz     Val( 2p)     0.93909     0.06075
 171    C 14  pz     Ryd( 3p)     0.00035    -0.00002

 172    C 15  s      Cor( 1s)     1.99987     0.00000
 173    C 15  s      Val( 2s)     0.84899     0.00241
 174    C 15  s      Ryd( 3s)     0.00103     0.00001
 175    C 15  px     Val( 2p)     1.08798     0.00014
 176    C 15  px     Ryd( 3p)     0.00473    -0.00002
 177    C 15  py     Val( 2p)     1.10663    -0.00047
 178    C 15  py     Ryd( 3p)     0.00553     0.00005
 179    C 15  pz     Val( 2p)     0.93200     0.10682
 180    C 15  pz     Ryd( 3p)     0.00023     0.00006

 181    H 16  s      Val( 1s)     0.70569     0.00033
 182    H 16  s      Ryd( 2s)     0.00113    -0.00001

 183    H 17  s      Val( 1s)     0.72154    -0.00248
 184    H 17  s      Ryd( 2s)     0.00077     0.00000

 185    H 18  s      Val( 1s)     0.70826     0.00143
 186    H 18  s      Ryd( 2s)     0.00110    -0.00001

 187    H 19  s      Val( 1s)     0.68769     0.00096
 188    H 19  s      Ryd( 2s)     0.00076     0.00001

 189    H 20  s      Val( 1s)     0.68769     0.00096
 190    H 20  s      Ryd( 2s)     0.00076     0.00001

 191    H 21  s      Val( 1s)     0.71188     0.00125
 192    H 21  s      Ryd( 2s)     0.00101    -0.00001

 193    H 22  s      Val( 1s)     0.70950     0.00002
 194    H 22  s      Ryd( 2s)     0.00103    -0.00001

 195    H 23  s      Val( 1s)     0.72081    -0.00220
 196    H 23  s      Ryd( 2s)     0.00077    -0.00001


 Summary of Natural Population Analysis:

                                     Natural Population                 Natural
             Natural    ---------------------------------------------    Spin
  Atom No    Charge        Core      Valence    Rydberg      Total      Density
 -------------------------------------------------------------------------------
   Br  1    0.20916     27.99876     6.77361    0.01847    34.79084     0.08368
    C  2   -0.05262      1.99989     4.03554    0.01719     6.05262     0.18111
    C  3   -0.23415      1.99986     4.22045    0.01384     6.23415    -0.01607
    C  4   -0.17289      1.99983     4.16112    0.01193     6.17289     0.07221
[...]
   85. BD ( 1) C 14- C 15     103. BD*( 1) C  8- C  9      0.64    1.22   0.035
   85. BD ( 1) C 14- C 15     108. BD*( 1) C  9- C 15      2.02    1.35   0.066
   85. BD ( 1) C 14- C 15     114. BD*( 1) C 13- C 14      1.26    1.39   0.053
   85. BD ( 1) C 14- C 15     116. BD*( 1) C 13- H 22      0.75    1.32   0.040
   85. BD ( 1) C 14- C 15     118. BD*( 1) C 14- H 23      0.86    1.31   0.042
   85. BD ( 1) C 14- C 15     140. RY ( 1) C  5            0.77    2.17   0.051
   85. BD ( 1) C 14- C 15     141. RY ( 2) C  5            0.29    2.21   0.032
   85. BD ( 1) C 14- C 15     156. RY ( 1) C  9            0.51    2.26   0.043
   85. BD ( 1) C 14- C 15     157. RY ( 2) C  9            0.39    2.01   0.035
   85. BD ( 1) C 14- C 15     177. RY ( 1) C 13            0.38    2.06   0.035
   85. BD ( 1) C 14- C 15     178. RY ( 2) C 13            1.07    1.73   0.054
   86. BD ( 1) C 14- H 23     108. BD*( 1) C  9- C 15      1.70    1.22   0.057
   86. BD ( 1) C 14- H 23     113. BD*( 1) C 11- C 13      1.42    1.24   0.053
   86. BD ( 1) C 14- H 23     114. BD*( 1) C 13- C 14      0.57    1.26   0.034
   86. BD ( 1) C 14- H 23     117. BD*( 1) C 14- C 15      0.55    1.26   0.033
   86. BD ( 1) C 14- H 23     177. RY ( 1) C 13            0.71    1.93   0.047
   86. BD ( 1) C 14- H 23     186. RY ( 2) C 15            0.88    2.08   0.054


 NATURAL BOND ORBITALS (Summary):

                                                     Principal Delocalizations
           NBO                 Occupancy    Energy   (geminal,vicinal,remote)
 ===============================================================================
 Molecular unit  1  (C13H8IBr)
 ------ Lewis --------------------------------------
    1. CR ( 1)Br  1             1.00000   -19.55130
    2. CR ( 2)Br  1             1.00000  -452.47817
    3. CR ( 3)Br  1             1.00000   -80.01721
    4. CR ( 4)Br  1             1.00000    -7.37736
    5. CR ( 5)Br  1             0.99999   -55.75216
    6. CR ( 6)Br  1             1.00000    -7.36262
    7. CR ( 7)Br  1             1.00000   -55.74846
    8. CR ( 8)Br  1             1.00000    -7.36361
    9. CR ( 9)Br  1             1.00000   -55.74848
   10. CR (10)Br  1             0.99983    -2.91420
   11. CR (11)Br  1             0.99993    -2.91513
   12. CR (12)Br  1             1.00000    -2.90360
   13. CR (13)Br  1             0.99973    -2.91434  121(g)
   14. CR (14)Br  1             0.99990    -2.90782
   15. CR ( 1) C  2             0.99995   -10.45937
   16. CR ( 1) C  3             0.99993   -10.40116
   17. CR ( 1) C  4             0.99991   -10.40777
   18. CR ( 1) C  5             0.99994   -10.42535
   19. CR ( 1) C  6             0.99995   -10.42023
   20. CR ( 1) C  7             0.99992   -10.40142
   21. CR ( 1) C  8             0.99987   -10.39666  154(g)
   22. CR ( 1) C  9             0.99995   -10.42161
   23. CR ( 1) C 10             0.99992   -10.40528
   24. CR ( 1) C 11             0.99993   -10.45423
   25. CR ( 1) I 12             1.00000  -340.18911
   26. CR ( 2) I 12             1.00000  -821.90581
   27. CR ( 3) I 12             1.00000   -84.87257
   28. CR ( 4) I 12             1.00000  -131.21584
   29. CR ( 5) I 12             1.00000    -9.48399
   30. CR ( 6) I 12             1.00000  -102.13963
   31. CR ( 7) I 12             1.00000   -89.35052
   32. CR ( 8) I 12             1.00000    -9.46877
   33. CR ( 9) I 12             1.00000  -102.13492
   34. CR (10) I 12             1.00000   -89.34767
   35. CR (11) I 12             1.00000    -9.47078
   36. CR (12) I 12             1.00000  -102.13556
   37. CR (13) I 12             1.00000   -89.34786
   38. CR (14) I 12             1.00000   -16.90470
   39. CR (15) I 12             0.99992    -8.57051  164(v)
   40. CR (16) I 12             1.00000   -16.90552
   41. CR (17) I 12             0.99997    -8.57200
   42. CR (18) I 12             1.00000   -16.89987
   43. CR (19) I 12             1.00000    -8.56070
   44. CR (20) I 12             0.99999   -16.90470
   45. CR (21) I 12             0.99986    -8.57058  171(g)
   46. CR (22) I 12             1.00000   -16.90202
   47. CR (23) I 12             0.99995    -8.56513
   48. CR ( 1) C 13             0.99993   -10.40560
   49. CR ( 1) C 14             0.99992   -10.40938
   50. CR ( 1) C 15             0.99994   -10.42890
   51. LP ( 1)Br  1             0.99862    -0.89574  129(v)
   52. LP ( 2)Br  1             0.99031    -0.49404  90(v),91(v),128(v)
   53. LP ( 3)Br  1             0.88048    -0.46760  87(v),88(r)
   54. LP ( 1) C  5             0.43126    -0.26226  100(v),93(v),112(r),143(g)
                                                     139(v),107(r),146(v),188(v)
   55. LP ( 1) I 12             0.99908    -0.80511
   56. LP ( 2) I 12             0.99248    -0.46944  113(v),109(v),164(v)
   57. BD ( 1)Br  1- C  2       0.99315    -0.76808  132(v),92(v),99(v),148(v)
   58. BD ( 1) C  2- C  3       0.99086    -0.88173  91(g),92(g),137(v),94(g)
                                                     102(v),96(v),148(v),136(v)
                                                     149(v)
   59. BD ( 1) C  2- C  7       0.99008    -0.87873  90(g),101(v),99(g),145(v)
                                                     102(g),94(v),132(v),133(v)
                                                     144(v)
   60. BD ( 1) C  3- C  4       0.98709    -0.85629  98(v),89(v),95(g),90(g)
                                                     140(v),128(v),94(g),96(g)
                                                     129(v),141(v)
   61. BD ( 2) C  3- C  4       0.85308    -0.47273  87(v),88(r),130(v),143(v)
   62. BD ( 1) C  3- H 16       0.99022    -0.72349  91(v),95(v),129(v),136(v)
                                                     92(g),90(g),89(v)
   63. BD ( 1) C  4- C  5       0.98792    -0.86468  97(g),98(g),92(g),133(v)
                                                     96(g),94(v),185(v),101(v)
                                                     144(v),145(v),186(v),132(v)
   64. BD ( 1) C  4- H 17       0.99075    -0.73169  97(v),90(v),141(v),132(v)
                                                     92(g),95(g)
   65. BD ( 1) C  5- C  6       0.98377    -0.84469  95(g),99(g),117(v),98(g)
                                                     149(v),102(v),185(v),96(v)
                                                     101(g),137(v),136(v),153(v)
                                                     103(v)
   66. BD ( 1) C  5- C 15       0.98505    -0.82961  95(g),117(g),108(g),97(g)
                                                     106(v),99(v),181(v),136(v)
                                                     156(v),144(v),114(v),92(v)
                                                     103(v),101(v)
   67. BD ( 1) C  6- C  7       0.98578    -0.86442  97(g),89(v),91(g),101(g)
                                                     102(g),128(v),98(v),141(v)
                                                     129(v),152(v),140(v)
   68. BD ( 2) C  6- C  7       0.83921    -0.47371  87(v),104(v),105(v),130(v)
                                                     100(g),143(v)
   69. BD ( 1) C  6- C  8       0.98800    -0.79378  99(g),106(v),95(v),148(v)
                                                     97(g),91(v),141(v),103(g)
                                                     104(g),105(g),98(v),157(v)
                                                     108(v)
   70. BD ( 1) C  7- H 18       0.98994    -0.72686  97(v),90(v),144(v),129(v)
                                                     99(g),91(g),89(v),101(v)
   71. BD ( 1) C  8- C  9       0.98799    -0.79455  106(g),99(v),117(v),160(v)
                                                     108(g),109(v),186(v),101(g)
                                                     104(g),105(g),98(v),145(v)
                                                     97(v)
   72. BD ( 1) C  8- H 19       0.98028    -0.71037  100(v),107(v),146(v),108(v)
                                                     97(v),158(v),101(g),103(g)
   73. BD ( 1) C  8- H 20       0.98028    -0.71037  100(v),107(v),146(v),108(v)
                                                     97(v),158(v),101(g),103(g)
   74. BD ( 1) C  9- C 10       0.98589    -0.86675  108(g),111(v),109(g),103(g)
                                                     110(g),164(v),98(v),186(v)
                                                     152(v),185(v),165(v)
   75. BD ( 2) C  9- C 10       0.84269    -0.47732  112(v),88(v),104(v),105(v)
                                                     166(v),188(v)
   76. BD ( 1) C  9- C 15       0.98384    -0.84717  117(g),106(g),95(v),98(g)
                                                     161(v),110(v),118(v),140(v)
                                                     103(g),182(v),181(v),101(v)
                                                     153(v)
   77. BD ( 1) C 10- C 11       0.99003    -0.88073  113(g),103(v),106(g),157(v)
                                                     110(g),116(v),178(v),177(v)
                                                     156(v)
   78. BD ( 1) C 10- H 21       0.99059    -0.73121  108(v),113(v),156(v),165(v)
                                                     106(g),109(g),103(v)
   79. BD ( 1) C 11- I 12       0.99095    -0.70497  114(v),106(v),177(v),160(v)
                                                     116(v),110(v)
   80. BD ( 2) C 11- I 12       0.94999    -0.48183  115(v),107(v)
   81. BD ( 1) C 11- C 13       0.99081    -0.88384  109(g),114(g),182(v),116(g)
                                                     110(v),118(v),160(v),161(v)
                                                     181(v)
   82. BD ( 1) C 13- C 14       0.98721    -0.85898  98(v),111(v),113(g),117(g)
                                                     185(v),118(g),116(g),164(v)
                                                     165(v),186(v)
   83. BD ( 2) C 13- C 14       0.85514    -0.47624  88(v),112(v),166(v),188(v)
   84. BD ( 1) C 13- H 22       0.99089    -0.72838  109(v),117(v),165(v),181(v)
                                                     114(g),113(g)
   85. BD ( 1) C 14- C 15       0.98798    -0.86736  98(g),108(g),114(g),178(v)
                                                     118(g),140(v),116(v),103(v)
                                                     156(v),157(v),177(v),141(v)
   86. BD ( 1) C 14- H 23       0.99073    -0.73339  108(v),113(v),186(v),177(v)
                                                     114(g),117(g)
 ------ non-Lewis ----------------------------------
   87. LV ( 1) C  2             0.39301    -0.26996
   88. LV ( 1) C 15             0.41259    -0.25877
   89. BD*( 1)Br  1- C  2       0.01165     0.03415
   90. BD*( 1) C  2- C  3       0.01072     0.50549
   91. BD*( 1) C  2- C  7       0.01061     0.50380
   92. BD*( 1) C  3- C  4       0.00754     0.52832
   93. BD*( 2) C  3- C  4       0.06743    -0.05882
   94. BD*( 1) C  3- H 16       0.00539     0.45720
   95. BD*( 1) C  4- C  5       0.01107     0.52663
   96. BD*( 1) C  4- H 17       0.00550     0.44556
   97. BD*( 1) C  5- C  6       0.01312     0.48458
   98. BD*( 1) C  5- C 15       0.01516     0.43040
   99. BD*( 1) C  6- C  7       0.01098     0.54254
  100. BD*( 2) C  6- C  7       0.08634    -0.06004
  101. BD*( 1) C  6- C  8       0.00898     0.35663
  102. BD*( 1) C  7- H 18       0.00606     0.44852
  103. BD*( 1) C  8- C  9       0.00899     0.35554
  104. BD*( 1) C  8- H 19       0.00530     0.39987
  105. BD*( 1) C  8- H 20       0.00530     0.39989
  106. BD*( 1) C  9- C 10       0.01140     0.53882
  107. BD*( 2) C  9- C 10       0.08029    -0.06140
  108. BD*( 1) C  9- C 15       0.01309     0.48312
  109. BD*( 1) C 10- C 11       0.00977     0.50342
  110. BD*( 1) C 10- H 21       0.00636     0.44346
  111. BD*( 1) C 11- I 12       0.01048    -0.01884
  112. BD*( 2) C 11- I 12       0.26757    -0.22283
  113. BD*( 1) C 11- C 13       0.00987     0.50500
  114. BD*( 1) C 13- C 14       0.00797     0.52410
  115. BD*( 2) C 13- C 14       0.06260    -0.06092
  116. BD*( 1) C 13- H 22       0.00567     0.45177
  117. BD*( 1) C 14- C 15       0.01104     0.52499
  118. BD*( 1) C 14- H 23       0.00552     0.44371
  119. RY ( 1)Br  1             0.00049     0.54497
  120. RY ( 2)Br  1             0.00045     0.61829
  121. RY ( 3)Br  1             0.00031     1.00265
  122. RY ( 4)Br  1             0.00010     0.67397
  123. RY ( 5)Br  1             0.00005     0.80211
  124. RY ( 6)Br  1             0.00002     0.51599
  125. RY ( 7)Br  1             0.00001     0.64213
  126. RY ( 8)Br  1             0.00001     0.54354
  127. RY ( 9)Br  1             0.00000     0.59264
  128. RY ( 1) C  2             0.00360     0.95178
  129. RY ( 2) C  2             0.00260     1.21452
  130. RY ( 3) C  2             0.00059     0.79989
  131. RY ( 4) C  2             0.00017     0.57334
  132. RY ( 1) C  3             0.00283     1.20563
  133. RY ( 2) C  3             0.00173     0.88279
  134. RY ( 3) C  3             0.00023     0.58675
  135. RY ( 4) C  3             0.00016     0.78576
  136. RY ( 1) C  4             0.00227     1.24690
  137. RY ( 2) C  4             0.00176     0.85631
  138. RY ( 3) C  4             0.00016     0.59561
  139. RY ( 4) C  4             0.00014     0.78478
  140. RY ( 1) C  5             0.00245     1.30038
  141. RY ( 2) C  5             0.00216     1.34709
  142. RY ( 3) C  5             0.00040     0.60352
  143. RY ( 4) C  5             0.00010     0.84177
  144. RY ( 1) C  6             0.00213     1.40015
  145. RY ( 2) C  6             0.00168     1.13982
  146. RY ( 3) C  6             0.00049     0.84415
  147. RY ( 4) C  6             0.00033     0.62820
  148. RY ( 1) C  7             0.00296     1.18072
  149. RY ( 2) C  7             0.00194     0.87755
  150. RY ( 3) C  7             0.00032     0.58584
  151. RY ( 4) C  7             0.00016     0.78671
  152. RY ( 1) C  8             0.00112     0.81052
  153. RY ( 2) C  8             0.00106     0.79627
  154. RY ( 3) C  8             0.00022     1.05492
  155. RY ( 4) C  8             0.00015     0.94829
  156. RY ( 1) C  9             0.00219     1.39174
  157. RY ( 2) C  9             0.00167     1.14154
  158. RY ( 3) C  9             0.00049     0.84229
  159. RY ( 4) C  9             0.00034     0.62648
  160. RY ( 1) C 10             0.00315     1.17495
  161. RY ( 2) C 10             0.00195     0.85429
  162. RY ( 3) C 10             0.00033     0.58050
  163. RY ( 4) C 10             0.00017     0.78207
  164. RY ( 1) C 11             0.00325     0.90065
  165. RY ( 2) C 11             0.00229     1.12819
  166. RY ( 3) C 11             0.00126     0.78998
  167. RY ( 4) C 11             0.00014     0.60133
  168. RY ( 1) I 12             0.00044     0.50962
  169. RY ( 2) I 12             0.00032     0.47664
  170. RY ( 3) I 12             0.00020     0.43864
  171. RY ( 4) I 12             0.00010     0.97970
  172. RY ( 5) I 12             0.00002     0.63195
  173. RY ( 6) I 12             0.00001     0.51820
  174. RY ( 7) I 12             0.00002     0.54827
  175. RY ( 8) I 12             0.00001     0.44598
  176. RY ( 9) I 12             0.00000     0.39864
  177. RY ( 1) C 13             0.00305     1.19208
  178. RY ( 2) C 13             0.00174     0.86508
  179. RY ( 3) C 13             0.00024     0.58156
  180. RY ( 4) C 13             0.00017     0.78077
  181. RY ( 1) C 14             0.00231     1.24739
  182. RY ( 2) C 14             0.00177     0.85108
  183. RY ( 3) C 14             0.00016     0.59213
  184. RY ( 4) C 14             0.00014     0.78255
  185. RY ( 1) C 15             0.00244     1.29548
  186. RY ( 2) C 15             0.00219     1.34615
  187. RY ( 3) C 15             0.00041     0.60239
  188. RY ( 4) C 15             0.00008     0.83955
  189. RY ( 1) H 16             0.00057     0.48048
  190. RY ( 1) H 17             0.00039     0.49478
  191. RY ( 1) H 18             0.00056     0.48217
  192. RY ( 1) H 19             0.00037     0.47577
  193. RY ( 1) H 20             0.00037     0.47576
  194. RY ( 1) H 21             0.00051     0.47991
  195. RY ( 1) H 22             0.00053     0.47757
  196. RY ( 1) H 23             0.00039     0.49348
          -------------------------------
                 Total Lewis   84.33050  ( 98.0587%)
           Valence non-Lewis    1.59737  (  1.8574%)
           Rydberg non-Lewis    0.07213  (  0.0839%)
          -------------------------------
               Total unit  1   86.00000  (100.0000%)
              Charge unit  1    1.00000

 $CHOOSE
  ALPHA
   LONE 1 3 12 3 END
   BOND S 1 2 D 2 3 S 2 7 S 3 4 S 3 16 D 4 5 S 4 17 S 5 6 S 5 15 D 6 7 S 6 8
        S 7 18 S 8 9 S 8 19 S 8 20 D 9 10 S 9 15 S 10 11 S 10 21 S 11 12
        D 11 13 S 13 14 S 13 22 D 14 15 S 14 23 END
  END
  BETA
   LONE 1 3 5 1 12 2 END
   BOND S 1 2 S 2 3 S 2 7 D 3 4 S 3 16 S 4 5 S 4 17 S 5 6 S 5 15 D 6 7 S 6 8
        S 7 18 S 8 9 S 8 19 S 8 20 D 9 10 S 9 15 S 10 11 S 10 21 D 11 12
        S 11 13 D 13 14 S 13 22 S 14 15 S 14 23 END
  END
 $END

 NBO analysis completed in 1.39 CPU seconds (2 wall seconds)
 Maximum scratch memory used by NBO was 908234 words (6.93 MB)
 Maximum scratch memory used by G16NBO was 86343 words (0.66 MB)

 Opening RunExU unformatted file "/home/rpaton/arbr500/xtb/fukui/Gau-2136525.EUF"
 Read unf file /home/rpaton/arbr500/xtb/fukui/Gau-2136525.EUF:
 Label Gaussian matrix elements                                         IVers= 2 NLab= 2 Version=ES64L-G16RevC.01
 Title energy: -39.823789709276 gnorm: 0.000181017279 xtb: 6.7.0 (08769
 NAtoms=    23 NBasis=   196 NBsUse=   196 ICharg=     1 Multip=     2 NE=   173 Len12L=8 Len4L=8 IOpCl= 1 ICGU=112
 GAUSSIAN SCALARS                    NI= 1 NR= 1 NTot=       1 LenBuf=    2 NRI=1 N=    1000
 NPA CHARGES                         NI= 0 NR= 1 NTot=      23 LenBuf= 2048 NRI=1 N=      23
 Recovered energy= -9949.14433110     dipole=      0.422988253681      0.323518767498      0.000005010528
 Unable to Open any file for archive entry.
 1\1\GINC-DYNAMO\SP\UwB97XD\MIDIx\C13H8Br1I1(1+,2)\RPATON\28-Sep-2024\0
 \\# wb97xd midix pop(nbo6,hirshfeld)\\energy: -39.823789709276 gnorm: 
 0.000181017279 xtb: 6.7.0 (08769fc)\\1,2\Br,0,5.88606,-0.30481,-0.0000
 1\C,0,4.02111,0.09351,0.00001\C,0,3.61829,1.42065,0.\C,0,2.2694,1.7303
 4,0.\C,0,1.34512,0.69696,0.00001\C,0,1.77031,-0.64201,0.00001\C,0,3.11
 223,-0.95571,0.00001\C,0,0.58844,-1.56599,0.00002\C,0,-0.56795,-0.6100
 6,0.00002\C,0,-1.91821,-0.88745,0.00002\C,0,-2.80081,0.18231,0.\I,0,-4
 .88315,-0.20732,0.00001\C,0,-2.36107,1.49641,0.\C,0,-1.00438,1.7722,0.
 00001\C,0,-0.10656,0.71629,0.00001\H,0,4.35944,2.20495,-0.00001\H,0,1.
 95033,2.76111,0.\H,0,3.45367,-1.97967,0.00001\H,0,0.57984,-2.21281,0.8
 8056\H,0,0.57984,-2.21283,-0.88049\H,0,-2.27875,-1.90489,0.00002\H,0,-
 3.07569,2.30493,0.\H,0,-0.65996,2.79492,0.\\Version=ES64L-G16RevC.01\S
 tate=2-A\HF=-9949.1443311\S2=0.773834\S2-1=0.\S2A=0.750315\RMSD=9.712e
 -09\Dipole=0.4228902,0.323647,0.000005\Quadrupole=26.9397985,-4.484362
 8,-22.4554357,0.7409903,-0.0001208,-0.0000807\PG=C01 [X(C13H8Br1I1)]\\
 @
 The archive entry for this job was punched.


      TO SUSPECT YOUR OWN MORTALITY IS TO KNOW THE BEGINNING OF TERROR.
      TO LEARN IRREFUTABLY THAT YOU ARE MORTAL IS TO KNOW THE END
      OF TERROR.

                                                  -- JESSICA
                                                     CHILDREN OF DUNE
                                                     BY FRANK HERBERT
 Job cpu time:       0 days  0 hours 11 minutes 17.0 seconds.
 Elapsed time:       0 days  0 hours  0 minutes 28.5 seconds.
 File lengths (MBytes):  RWF=     42 Int=      0 D2E=      0 Chk=      4 Scr=      1
 Normal termination of Gaussian 16 at Sat Sep 28 19:10:40 2024.
