 Entering Gaussian System, Link 0=/usr/local/Gaussian/G16C/g16/g16
 Input=arbr41_xtbopt_red.com
 Output=arbr41_xtbopt_red.log
 Initial command:
 /usr/local/Gaussian/G16C/g16/l1.exe "/home/rpaton/arbr500/xtb/fukui/Gau-2145597.inp" -scrdir="/home/rpaton/arbr500/xtb/fukui/"
 Entering Link 1 = /usr/local/Gaussian/G16C/g16/l1.exe PID=   2145598.
  
 Copyright (c) 1988-2019, Gaussian, Inc.  All Rights Reserved.
  
 This is part of the Gaussian(R) 16 program.  It is based on
 the Gaussian(R) 09 system (copyright 2009, Gaussian, Inc.),
 the Gaussian(R) 03 system (copyright 2003, Gaussian, Inc.),
 the Gaussian(R) 98 system (copyright 1998, Gaussian, Inc.),
 the Gaussian(R) 94 system (copyright 1995, Gaussian, Inc.),
 the Gaussian 92(TM) system (copyright 1992, Gaussian, Inc.),
 the Gaussian 90(TM) system (copyright 1990, Gaussian, Inc.),
 the Gaussian 88(TM) system (copyright 1988, Gaussian, Inc.),
 the Gaussian 86(TM) system (copyright 1986, Carnegie Mellon
 University), and the Gaussian 82(TM) system (copyright 1983,
 Carnegie Mellon University). Gaussian is a federally registered
 trademark of Gaussian, Inc.
  
 This software contains proprietary and confidential information,
 including trade secrets, belonging to Gaussian, Inc.
  
 This software is provided under written license and may be
 used, copied, transmitted, or stored only in accord with that
 written license.
  
 The following legend is applicable only to US Government
 contracts under FAR:
  
                    RESTRICTED RIGHTS LEGEND
  
 Use, reproduction and disclosure by the US Government is
 subject to restrictions as set forth in subparagraphs (a)
 and (c) of the Commercial Computer Software - Restricted
 Rights clause in FAR 52.227-19.
  
 Gaussian, Inc.
 340 Quinnipiac St., Bldg. 40, Wallingford CT 06492
  
  
 ---------------------------------------------------------------
 Warning -- This program may not be used in any manner that
 competes with the business of Gaussian, Inc. or will provide
 assistance to any competitor of Gaussian, Inc.  The licensee
 of this program is prohibited from giving any competitor of
 Gaussian, Inc. access to this program.  By using this program,
 the user acknowledges that Gaussian, Inc. is engaged in the
 business of creating and licensing software in the field of
 computational chemistry and represents and warrants to the
 licensee that it is not a competitor of Gaussian, Inc. and that
 it will not use this program in any manner prohibited above.
 ---------------------------------------------------------------
  

 Cite this work as:
 Gaussian 16, Revision C.01,
 M. J. Frisch, G. W. Trucks, H. B. Schlegel, G. E. Scuseria, 
 M. A. Robb, J. R. Cheeseman, G. Scalmani, V. Barone, 
 G. A. Petersson, H. Nakatsuji, X. Li, M. Caricato, A. V. Marenich, 
 J. Bloino, B. G. Janesko, R. Gomperts, B. Mennucci, H. P. Hratchian, 
 J. V. Ortiz, A. F. Izmaylov, J. L. Sonnenberg, D. Williams-Young, 
 F. Ding, F. Lipparini, F. Egidi, J. Goings, B. Peng, A. Petrone, 
 T. Henderson, D. Ranasinghe, V. G. Zakrzewski, J. Gao, N. Rega, 
 G. Zheng, W. Liang, M. Hada, M. Ehara, K. Toyota, R. Fukuda, 
 J. Hasegawa, M. Ishida, T. Nakajima, Y. Honda, O. Kitao, H. Nakai, 
 T. Vreven, K. Throssell, J. A. Montgomery, Jr., J. E. Peralta, 
 F. Ogliaro, M. J. Bearpark, J. J. Heyd, E. N. Brothers, K. N. Kudin, 
 V. N. Staroverov, T. A. Keith, R. Kobayashi, J. Normand, 
 K. Raghavachari, A. P. Rendell, J. C. Burant, S. S. Iyengar, 
 J. Tomasi, M. Cossi, J. M. Millam, M. Klene, C. Adamo, R. Cammi, 
 J. W. Ochterski, R. L. Martin, K. Morokuma, O. Farkas, 
 J. B. Foresman, and D. J. Fox, Gaussian, Inc., Wallingford CT, 2019.
 
 ******************************************
 Gaussian 16:  ES64L-G16RevC.01  3-Jul-2019
                28-Sep-2024 
 ******************************************
 %nprocshared=24
 Will use up to   24 processors via shared memory.
 ----------------------------------
 # wb97xd midix pop(nbo6,hirshfeld)
 ----------------------------------
 1/38=1,172=1/1;
 2/12=2,17=6,18=5,40=1/2;
 3/5=20,11=2,25=1,30=1,74=-58/1,2,3;
 4//1;
 5/5=2,38=5/2;
 6/7=2,8=2,9=2,10=2,28=1,40=1,79=1,113=1,114=1,124=3103,126=1/1,12;
 99/5=1,9=1/99;
 -------------------------------------------------------------------
 energy: -32.469090060500 gnorm: 0.000424945565 xtb: 6.7.0 (08769fc)
 -------------------------------------------------------------------
 Symbolic Z-matrix:
 Charge = -1 Multiplicity = 2
 N                    -3.07938  -2.31462  -1.17037 
 C                    -2.77038  -1.61756  -0.31936 
 C                    -2.37976  -0.71122   0.73706 
 C                    -3.36403   0.47612   0.83781 
 C                    -2.78417   1.55749  -0.08723 
 C                    -1.31851   1.24183  -0.12189 
 C                    -0.26758   2.02836  -0.55083 
 C                     1.02168   1.51821  -0.50235 
 C                     1.23573   0.23336  -0.03289 
 Br                    3.015    -0.44763   0.03086 
 C                     0.19201  -0.57471   0.39677 
 C                    -1.0806   -0.04672   0.35001 
 H                    -2.30765  -1.28005   1.66891 
 H                    -4.37759   0.18958   0.56017 
 H                    -3.37633   0.83589   1.86776 
 H                    -3.19874   1.46947  -1.09545 
 H                    -2.98828   2.56528   0.27364 
 H                    -0.4391    3.02876  -0.91769 
 H                     1.85771   2.11757  -0.82779 
 H                     0.37815  -1.57614   0.75384 
 
                          Input orientation:                          
 ---------------------------------------------------------------------
 Center     Atomic      Atomic             Coordinates (Angstroms)
 Number     Number       Type             X           Y           Z
 ---------------------------------------------------------------------
      1          7           0       -3.079380   -2.314620   -1.170370
      2          6           0       -2.770380   -1.617560   -0.319360
      3          6           0       -2.379760   -0.711220    0.737060
      4          6           0       -3.364030    0.476120    0.837810
      5          6           0       -2.784170    1.557490   -0.087230
      6          6           0       -1.318510    1.241830   -0.121890
      7          6           0       -0.267580    2.028360   -0.550830
      8          6           0        1.021680    1.518210   -0.502350
      9          6           0        1.235730    0.233360   -0.032890
     10         35           0        3.015000   -0.447630    0.030860
     11          6           0        0.192010   -0.574710    0.396770
     12          6           0       -1.080600   -0.046720    0.350010
     13          1           0       -2.307650   -1.280050    1.668910
     14          1           0       -4.377590    0.189580    0.560170
     15          1           0       -3.376330    0.835890    1.867760
     16          1           0       -3.198740    1.469470   -1.095450
     17          1           0       -2.988280    2.565280    0.273640
     18          1           0       -0.439100    3.028760   -0.917690
     19          1           0        1.857710    2.117570   -0.827790
     20          1           0        0.378150   -1.576140    0.753840
 ---------------------------------------------------------------------
                    Distance matrix (angstroms):
                    1          2          3          4          5
     1  N    0.000000
     2  C    1.142625   0.000000
     3  C    2.588175   1.445704   0.000000
     4  C    3.449934   2.464743   1.545547   0.000000
     5  C    4.031573   3.183554   2.447457   1.536651   0.000000
     6  C    4.104669   3.212948   2.382950   2.385684   1.499667
     7  C    5.210712   4.428354   3.691241   3.731725   2.601897
     8  C    5.652922   4.924049   4.251622   4.702811   3.828624
     9  C    5.138700   4.422317   3.815340   4.687733   4.232714
    10  Br   6.486145   5.912868   5.447167   6.495884   6.137167
    11  C    4.023084   3.221201   2.597775   3.734191   3.692991
    12  C    3.383792   2.402280   1.509697   2.392773   2.380508
    13  H    3.118880   2.069118   1.094126   2.211515   3.370865
    14  H    3.309250   2.573413   2.198649   1.089263   2.197565
    15  H    4.386813   3.342168   2.159904   1.091047   2.166413
    16  H    3.786713   3.211785   2.963820   2.179807   1.093674
    17  H    5.089881   4.230281   3.364596   2.196376   1.089738
    18  H    5.965454   5.232701   4.526788   4.260630   2.890269
    19  H    6.643533   5.968996   5.329818   5.721464   4.733832
    20  H    4.025227   3.326667   2.890404   4.268809   4.530707
                    6          7          8          9         10
     6  C    0.000000
     7  C    1.380968   0.000000
     8  C    2.386970   1.387370   0.000000
     9  C    2.747558   2.397963   1.384576   0.000000
    10  Br   4.653699   4.152616   2.849941   1.906204   0.000000
    11  C    2.418780   2.808050   2.424270   1.388141   2.849441
    12  C    1.392714   2.403845   2.755922   2.364412   4.127533
    13  H    3.247344   4.476015   4.860974   4.212134   5.630873
    14  H    3.306117   4.637630   5.660947   5.644732   7.438857
    15  H    2.891041   4.115324   5.042368   5.024601   6.772793
    16  H    2.129531   3.033260   4.262169   4.724566   6.599577
    17  H    2.167048   2.893137   4.216432   4.834674   6.721305
    18  H    2.144709   1.079262   2.141996   3.376713   4.991577
    19  H    3.369509   2.145116   1.078930   2.137515   2.942253
    20  H    3.403897   3.887358   3.401051   2.151436   2.957907
                   11         12         13         14         15
    11  C    0.000000
    12  C    1.378585   0.000000
    13  H    2.892083   2.183175   0.000000
    14  H    4.635955   3.312121   2.770157   0.000000
    15  H    4.109337   2.890146   2.378828   1.769189   0.000000
    16  H    4.231144   2.979044   3.999448   2.401850   3.035387
    17  H    4.470900   3.235370   4.146878   2.766990   2.383819
    18  H    3.887300   3.387796   5.361700   5.075108   4.603774
    19  H    3.394477   3.834714   5.926850   6.672522   6.025269
    20  H    1.079356   2.151780   2.852813   5.076646   4.599438
                   16         17         18         19         20
    16  H    0.000000
    17  H    1.766211   0.000000
    18  H    3.174681   2.851736   0.000000
    19  H    5.104837   4.989711   2.472587   0.000000
    20  H    5.048738   5.358619   4.966590   4.281839   0.000000
 Stoichiometry    C10H8BrN(1-,2)
 Framework group  C1[X(C10H8BrN)]
 Deg. of freedom    54
 Full point group                 C1      NOp   1
 Largest Abelian subgroup         C1      NOp   1
 Largest concise Abelian subgroup C1      NOp   1
                         Standard orientation:                         
 ---------------------------------------------------------------------
 Center     Atomic      Atomic             Coordinates (Angstroms)
 Number     Number       Type             X           Y           Z
 ---------------------------------------------------------------------
      1          7           0       -3.029053   -2.362650   -1.211834
      2          6           0       -2.741107   -1.666306   -0.352890
      3          6           0       -2.377372   -0.760735    0.713739
      4          6           0       -3.384035    0.407793    0.813179
      5          6           0       -2.814972    1.506200   -0.098394
      6          6           0       -1.343539    1.217437   -0.120812
      7          6           0       -0.302974    2.025998   -0.533760
      8          6           0        0.994828    1.538978   -0.476166
      9          6           0        1.227652    0.254843   -0.013739
     10         35           0        3.018321   -0.394207    0.062753
     11          6           0        0.194680   -0.575128    0.399847
     12          6           0       -1.086816   -0.069983    0.344264
     13          1           0       -2.304004   -1.334924    1.642198
     14          1           0       -4.389455    0.104942    0.523515
     15          1           0       -3.412923    0.759782    1.845483
     16          1           0       -3.218023    1.418008   -1.111260
     17          1           0       -3.040907    2.507471    0.267580
     18          1           0       -0.489097    3.025763   -0.895192
     19          1           0        1.822938    2.155755   -0.789072
     20          1           0        0.395535   -1.575587    0.751627
 ---------------------------------------------------------------------
 Rotational constants (GHZ):           1.4748899           0.3575966           0.3072761
 Standard basis: MIDIx (5D, 7F)
 There are   150 symmetry adapted cartesian basis functions of A   symmetry.
 There are   147 symmetry adapted basis functions of A   symmetry.
   147 basis functions,   258 primitive gaussians,   150 cartesian basis functions
    56 alpha electrons       55 beta electrons
       nuclear repulsion energy       876.1895583712 Hartrees.
 NAtoms=   20 NActive=   20 NUniq=   20 SFac= 1.00D+00 NAtFMM=   60 NAOKFM=F Big=F
 Integral buffers will be    131072 words long.
 Raffenetti 2 integral format.
 Two-electron integral symmetry is turned on.
 Nuclear repulsion after empirical dispersion term =      876.1761957084 Hartrees.
 One-electron integrals computed using PRISM.
 NBasis=   147 RedAO= T EigKep=  1.10D-03  NBF=   147
 NBsUse=   147 1.00D-06 EigRej= -1.00D+00 NBFU=   147
 ExpMin= 1.47D-01 ExpMax= 6.10D+03 ExpMxC= 6.10D+03 IAcc=3 IRadAn=         5 AccDes= 0.00D+00
 Harris functional with IExCor= 4639 and IRadAn=       5 diagonalized for initial guess.
 HarFok:  IExCor= 4639 AccDes= 0.00D+00 IRadAn=         5 IDoV= 1 UseB2=F ITyADJ=14
 ICtDFT=  3500011 ScaDFX=  1.000000  1.000000  1.000000  1.000000
 FoFCou: FMM=F IPFlag=           0 FMFlag=      100000 FMFlg1=           0
         NFxFlg=           0 DoJE=T BraDBF=F KetDBF=T FulRan=T
         wScrn=  0.000000 ICntrl=       500 IOpCl=  0 I1Cent=   200000004 NGrid=           0
         NMat0=    1 NMatS0=      1 NMatT0=    0 NMatD0=    1 NMtDS0=    0 NMtDT0=    0
 Petite list used in FoFCou.
 Initial guess <Sx>= 0.0000 <Sy>= 0.0000 <Sz>= 0.5000 <S**2>= 0.7500 S= 0.5000
 Requested convergence on RMS density matrix=1.00D-08 within 128 cycles.
 Requested convergence on MAX density matrix=1.00D-06.
 Requested convergence on             energy=1.00D-06.
 No special actions if energy rises.
 Integral accuracy reduced to 1.0D-05 until final iterations.
 Initial convergence to 1.0D-05 achieved.  Increase integral accuracy.
 SCF Done:  E(UwB97XD) =  -2999.91180139     A.U. after   39 cycles
            NFock= 39  Conv=0.47D-08     -V/T= 2.0019
 <Sx>= 0.0000 <Sy>= 0.0000 <Sz>= 0.5000 <S**2>= 0.7614 S= 0.5057
 <L.S>= 0.000000000000E+00
 Annihilation of the first spin contaminant:
 S**2 before annihilation     0.7614,   after     0.7501

 **********************************************************************

            Population analysis using the SCF Density.

 **********************************************************************

 Orbital symmetries:
 Alpha Orbitals:
       Occupied  (A) (A) (A) (A) (A) (A) (A) (A) (A) (A) (A) (A)
                 (A) (A) (A) (A) (A) (A) (A) (A) (A) (A) (A) (A)
                 (A) (A) (A) (A) (A) (A) (A) (A) (A) (A) (A) (A)
                 (A) (A) (A) (A) (A) (A) (A) (A) (A) (A) (A) (A)
                 (A) (A) (A) (A) (A) (A) (A) (A)
       Virtual   (A) (A) (A) (A) (A) (A) (A) (A) (A) (A) (A) (A)
                 (A) (A) (A) (A) (A) (A) (A) (A) (A) (A) (A) (A)
                 (A) (A) (A) (A) (A) (A) (A) (A) (A) (A) (A) (A)
                 (A) (A) (A) (A) (A) (A) (A) (A) (A) (A) (A) (A)
                 (A) (A) (A) (A) (A) (A) (A) (A) (A) (A) (A) (A)
                 (A) (A) (A) (A) (A) (A) (A) (A) (A) (A) (A) (A)
                 (A) (A) (A) (A) (A) (A) (A) (A) (A) (A) (A) (A)
                 (A) (A) (A) (A) (A) (A) (A)
 Beta  Orbitals:
       Occupied  (A) (A) (A) (A) (A) (A) (A) (A) (A) (A) (A) (A)
                 (A) (A) (A) (A) (A) (A) (A) (A) (A) (A) (A) (A)
                 (A) (A) (A) (A) (A) (A) (A) (A) (A) (A) (A) (A)
                 (A) (A) (A) (A) (A) (A) (A) (A) (A) (A) (A) (A)
                 (A) (A) (A) (A) (A) (A) (A)
       Virtual   (A) (A) (A) (A) (A) (A) (A) (A) (A) (A) (A) (A)
                 (A) (A) (A) (A) (A) (A) (A) (A) (A) (A) (A) (A)
                 (A) (A) (A) (A) (A) (A) (A) (A) (A) (A) (A) (A)
                 (A) (A) (A) (A) (A) (A) (A) (A) (A) (A) (A) (A)
                 (A) (A) (A) (A) (A) (A) (A) (A) (A) (A) (A) (A)
                 (A) (A) (A) (A) (A) (A) (A) (A) (A) (A) (A) (A)
                 (A) (A) (A) (A) (A) (A) (A) (A) (A) (A) (A) (A)
                 (A) (A) (A) (A) (A) (A) (A) (A)
 The electronic state is 2-A.
 Alpha  occ. eigenvalues -- -479.99078 -62.42482 -56.01344 -56.00974 -56.00955
 Alpha  occ. eigenvalues --  -14.20172 -10.13202 -10.11502 -10.11383 -10.10704
 Alpha  occ. eigenvalues --  -10.09761 -10.06573 -10.05305 -10.04406 -10.02829
 Alpha  occ. eigenvalues --  -10.02593  -8.73318  -6.51683  -6.50433  -6.50430
 Alpha  occ. eigenvalues --   -2.62014  -2.61571  -2.61541  -2.60523  -2.60518
 Alpha  occ. eigenvalues --   -0.87344  -0.83286  -0.78523  -0.73004  -0.71031
 Alpha  occ. eigenvalues --   -0.66309  -0.64289  -0.56847  -0.54402  -0.49927
 Alpha  occ. eigenvalues --   -0.46649  -0.44244  -0.39888  -0.39174  -0.37600
 Alpha  occ. eigenvalues --   -0.34559  -0.34208  -0.32929  -0.32310  -0.31075
 Alpha  occ. eigenvalues --   -0.29966  -0.28889  -0.27742  -0.26316  -0.25287
 Alpha  occ. eigenvalues --   -0.24308  -0.22571  -0.20964  -0.16400  -0.14389
 Alpha  occ. eigenvalues --    0.05036
 Alpha virt. eigenvalues --    0.24100   0.25094   0.26455   0.28857   0.30830
 Alpha virt. eigenvalues --    0.33233   0.34521   0.36439   0.37059   0.37993
 Alpha virt. eigenvalues --    0.40185   0.41163   0.42938   0.43222   0.45222
 Alpha virt. eigenvalues --    0.46795   0.52949   0.54456   0.58749   0.58813
 Alpha virt. eigenvalues --    0.62175   0.62876   0.66867   0.72306   0.73818
 Alpha virt. eigenvalues --    0.75790   0.77083   0.78937   0.79325   0.79723
 Alpha virt. eigenvalues --    0.80742   0.82453   0.85041   0.86813   0.87124
 Alpha virt. eigenvalues --    0.88893   0.92861   0.92971   0.93967   0.97347
 Alpha virt. eigenvalues --    0.98924   1.01386   1.01525   1.04215   1.05661
 Alpha virt. eigenvalues --    1.06711   1.08932   1.10893   1.12337   1.12870
 Alpha virt. eigenvalues --    1.13667   1.14173   1.14705   1.15085   1.16379
 Alpha virt. eigenvalues --    1.16515   1.17909   1.19262   1.20095   1.21742
 Alpha virt. eigenvalues --    1.22457   1.22974   1.23499   1.26481   1.27777
 Alpha virt. eigenvalues --    1.29835   1.30669   1.33126   1.34530   1.39441
 Alpha virt. eigenvalues --    1.40541   1.44704   1.45662   1.51501   1.54457
 Alpha virt. eigenvalues --    1.56877   1.60284   1.67339   1.76221   1.76385
 Alpha virt. eigenvalues --    1.79899   1.82243   1.88210   1.99778   2.04463
 Alpha virt. eigenvalues --    2.06854   2.07203   2.15216   2.25578   2.32405
 Alpha virt. eigenvalues --    3.35607
  Beta  occ. eigenvalues -- -479.99078 -62.42482 -56.01344 -56.00974 -56.00956
  Beta  occ. eigenvalues --  -14.20132 -10.13227 -10.11467 -10.11385 -10.10792
  Beta  occ. eigenvalues --  -10.09758 -10.06678 -10.05094 -10.04196 -10.02323
  Beta  occ. eigenvalues --  -10.02141  -8.73319  -6.51682  -6.50434  -6.50432
  Beta  occ. eigenvalues --   -2.62014  -2.61571  -2.61542  -2.60524  -2.60519
  Beta  occ. eigenvalues --   -0.87227  -0.82981  -0.78180  -0.72762  -0.70786
  Beta  occ. eigenvalues --   -0.65578  -0.63740  -0.56676  -0.53362  -0.49656
  Beta  occ. eigenvalues --   -0.46436  -0.43888  -0.39809  -0.38938  -0.37209
  Beta  occ. eigenvalues --   -0.34383  -0.33831  -0.32689  -0.32117  -0.30924
  Beta  occ. eigenvalues --   -0.29811  -0.28045  -0.27499  -0.26203  -0.25046
  Beta  occ. eigenvalues --   -0.24080  -0.21913  -0.20909  -0.13251  -0.12491
  Beta virt. eigenvalues --    0.24240   0.24971   0.25472   0.27019   0.29925
  Beta virt. eigenvalues --    0.31050   0.33674   0.34669   0.36657   0.37243
  Beta virt. eigenvalues --    0.39588   0.40492   0.41498   0.43240   0.43648
  Beta virt. eigenvalues --    0.45439   0.48068   0.53270   0.54851   0.58872
  Beta virt. eigenvalues --    0.59152   0.62835   0.63160   0.67171   0.72450
  Beta virt. eigenvalues --    0.74379   0.75953   0.77495   0.79097   0.79360
  Beta virt. eigenvalues --    0.79720   0.80799   0.82572   0.85236   0.86824
  Beta virt. eigenvalues --    0.87192   0.89087   0.92975   0.93152   0.94111
  Beta virt. eigenvalues --    0.97540   0.99070   1.01540   1.02087   1.04438
  Beta virt. eigenvalues --    1.06364   1.07100   1.09436   1.11036   1.12680
  Beta virt. eigenvalues --    1.13719   1.14067   1.14289   1.15037   1.15637
  Beta virt. eigenvalues --    1.16900   1.17408   1.18197   1.19644   1.20449
  Beta virt. eigenvalues --    1.22002   1.22664   1.23244   1.24059   1.26754
  Beta virt. eigenvalues --    1.28079   1.29980   1.30980   1.33394   1.34906
  Beta virt. eigenvalues --    1.39784   1.40825   1.44883   1.45876   1.51656
  Beta virt. eigenvalues --    1.54639   1.57004   1.60438   1.67458   1.76408
  Beta virt. eigenvalues --    1.76614   1.80192   1.82416   1.88515   1.99987
  Beta virt. eigenvalues --    2.04558   2.06993   2.07347   2.15387   2.25660
  Beta virt. eigenvalues --    2.32554   3.35678
          Condensed to atoms (all electrons):
               1          2          3          4          5          6
     1  N    7.036625   0.621513  -0.054998  -0.003602  -0.000182  -0.000393
     2  C    0.621513   5.429652  -0.168016  -0.063011  -0.004122  -0.000543
     3  C   -0.054998  -0.168016   5.689774   0.298945  -0.089805  -0.055779
     4  C   -0.003602  -0.063011   0.298945   5.248104   0.298674  -0.069880
     5  C   -0.000182  -0.004122  -0.089805   0.298674   5.181110   0.300129
     6  C   -0.000393  -0.000543  -0.055779  -0.069880   0.300129   5.052122
     7  C    0.000008   0.000161   0.000301   0.001717   0.002823   0.449146
     8  C   -0.000000  -0.000071   0.001174  -0.000097   0.000425  -0.016268
     9  C    0.000000   0.000040   0.001048  -0.000158   0.001085  -0.056191
    10  Br   0.000000   0.000001  -0.000051   0.000000   0.000004   0.000522
    11  C    0.000024   0.001965  -0.005159   0.001469   0.000135  -0.016144
    12  C   -0.008169  -0.080784   0.326081  -0.071306  -0.043963   0.530423
    13  H   -0.001838  -0.066820   0.410623  -0.037925   0.008420  -0.000568
    14  H    0.000813   0.005234  -0.044401   0.393545  -0.041555   0.005574
    15  H    0.000153   0.008646  -0.047382   0.383772  -0.026891   0.000781
    16  H    0.000884   0.007849  -0.012605  -0.022040   0.366205  -0.029455
    17  H   -0.000018  -0.001192   0.012011  -0.047081   0.396123  -0.034203
    18  H   -0.000000   0.000001  -0.000111   0.000029  -0.007574  -0.030820
    19  H   -0.000000  -0.000001   0.000011   0.000001  -0.000045   0.004118
    20  H    0.000033   0.000915  -0.008094   0.000058  -0.000097   0.003259
               7          8          9         10         11         12
     1  N    0.000008  -0.000000   0.000000   0.000000   0.000024  -0.008169
     2  C    0.000161  -0.000071   0.000040   0.000001   0.001965  -0.080784
     3  C    0.000301   0.001174   0.001048  -0.000051  -0.005159   0.326081
     4  C    0.001717  -0.000097  -0.000158   0.000000   0.001469  -0.071306
     5  C    0.002823   0.000425   0.001085   0.000004   0.000135  -0.043963
     6  C    0.449146  -0.016268  -0.056191   0.000522  -0.016144   0.530423
     7  C    5.119074   0.380347  -0.031845   0.001710  -0.012360  -0.046202
     8  C    0.380347   5.064290   0.531507  -0.039321  -0.059063  -0.032383
     9  C   -0.031845   0.531507   5.041240   0.186617   0.444929  -0.004477
    10  Br   0.001710  -0.039321   0.186617  35.099553  -0.037693   0.002187
    11  C   -0.012360  -0.059063   0.444929  -0.037693   5.132298   0.343476
    12  C   -0.046202  -0.032383  -0.004477   0.002187   0.343476   5.192201
    13  H    0.000022  -0.000029  -0.000008   0.000001   0.002967  -0.041397
    14  H   -0.000026   0.000002   0.000003  -0.000000  -0.000044   0.006428
    15  H   -0.000030  -0.000005  -0.000002  -0.000000   0.000025   0.000324
    16  H   -0.001164  -0.000052  -0.000014  -0.000000   0.000139  -0.002317
    17  H   -0.001199  -0.000019  -0.000004  -0.000000  -0.000036  -0.000306
    18  H    0.407406  -0.028921   0.003949  -0.000084   0.000121   0.003789
    19  H   -0.024542   0.401686  -0.029607  -0.001152   0.002984   0.000257
    20  H    0.000123   0.002965  -0.024654  -0.001592   0.401346  -0.022453
              13         14         15         16         17         18
     1  N   -0.001838   0.000813   0.000153   0.000884  -0.000018  -0.000000
     2  C   -0.066820   0.005234   0.008646   0.007849  -0.001192   0.000001
     3  C    0.410623  -0.044401  -0.047382  -0.012605   0.012011  -0.000111
     4  C   -0.037925   0.393545   0.383772  -0.022040  -0.047081   0.000029
     5  C    0.008420  -0.041555  -0.026891   0.366205   0.396123  -0.007574
     6  C   -0.000568   0.005574   0.000781  -0.029455  -0.034203  -0.030820
     7  C    0.000022  -0.000026  -0.000030  -0.001164  -0.001199   0.407406
     8  C   -0.000029   0.000002  -0.000005  -0.000052  -0.000019  -0.028921
     9  C   -0.000008   0.000003  -0.000002  -0.000014  -0.000004   0.003949
    10  Br   0.000001  -0.000000  -0.000000  -0.000000  -0.000000  -0.000084
    11  C    0.002967  -0.000044   0.000025   0.000139  -0.000036   0.000121
    12  C   -0.041397   0.006428   0.000324  -0.002317  -0.000306   0.003789
    13  H    0.544825  -0.001900  -0.001116  -0.000465   0.000112   0.000003
    14  H   -0.001900   0.543090  -0.029091  -0.002306  -0.000065  -0.000001
    15  H   -0.001116  -0.029091   0.536146   0.003629  -0.005280   0.000003
    16  H   -0.000465  -0.002306   0.003629   0.551975  -0.037383   0.000625
    17  H    0.000112  -0.000065  -0.005280  -0.037383   0.559282   0.002229
    18  H    0.000003  -0.000001   0.000003   0.000625   0.002229   0.556147
    19  H   -0.000000  -0.000000  -0.000000   0.000000  -0.000000  -0.005796
    20  H    0.001938  -0.000003   0.000003   0.000003   0.000003   0.000008
              19         20
     1  N   -0.000000   0.000033
     2  C   -0.000001   0.000915
     3  C    0.000011  -0.008094
     4  C    0.000001   0.000058
     5  C   -0.000045  -0.000097
     6  C    0.004118   0.003259
     7  C   -0.024542   0.000123
     8  C    0.401686   0.002965
     9  C   -0.029607  -0.024654
    10  Br  -0.001152  -0.001592
    11  C    0.002984   0.401346
    12  C    0.000257  -0.022453
    13  H   -0.000000   0.001938
    14  H   -0.000000  -0.000003
    15  H   -0.000000   0.000003
    16  H    0.000000   0.000003
    17  H   -0.000000   0.000003
    18  H   -0.005796   0.000008
    19  H    0.527483  -0.000096
    20  H   -0.000096   0.525355
          Atomic-Atomic Spin Densities.
               1          2          3          4          5          6
     1  N    0.043456  -0.003810  -0.015357   0.001062  -0.000524   0.000027
     2  C   -0.003810   0.174005  -0.145734   0.024323  -0.011803   0.002068
     3  C   -0.015357  -0.145734   0.168256  -0.050057   0.036409  -0.013040
     4  C    0.001062   0.024323  -0.050057   0.042008  -0.033732   0.014083
     5  C   -0.000524  -0.011803   0.036409  -0.033732   0.044668  -0.003367
     6  C    0.000027   0.002068  -0.013040   0.014083  -0.003367  -0.110256
     7  C    0.000011   0.000389  -0.000848  -0.000475  -0.004020  -0.031404
     8  C   -0.000001  -0.000052   0.000045   0.000045   0.000112  -0.001960
     9  C   -0.000004  -0.000107   0.000284   0.000002   0.000022   0.005887
    10  Br  -0.000000  -0.000001   0.000006  -0.000000   0.000000  -0.000031
    11  C    0.000739   0.007950  -0.013978  -0.000353  -0.000234  -0.010170
    12  C   -0.001883  -0.004417   0.005719   0.019405  -0.006668   0.039166
    13  H   -0.001256  -0.041971   0.033891  -0.011755   0.002943  -0.001632
    14  H    0.000450   0.007531  -0.012275   0.005890  -0.006616   0.000549
    15  H   -0.000024  -0.001847   0.004914  -0.007017   0.003592  -0.001632
    16  H    0.000317   0.002491  -0.007192   0.009407  -0.017110   0.002812
    17  H   -0.000007  -0.000466   0.002707  -0.009369   0.003906  -0.003999
    18  H   -0.000000  -0.000001   0.000012  -0.000025   0.000290  -0.002464
    19  H   -0.000000  -0.000000   0.000001  -0.000000   0.000005   0.000056
    20  H   -0.000005  -0.000182   0.000645  -0.000029   0.000013  -0.000045
               7          8          9         10         11         12
     1  N    0.000011  -0.000001  -0.000004  -0.000000   0.000739  -0.001883
     2  C    0.000389  -0.000052  -0.000107  -0.000001   0.007950  -0.004417
     3  C   -0.000848   0.000045   0.000284   0.000006  -0.013978   0.005719
     4  C   -0.000475   0.000045   0.000002  -0.000000  -0.000353   0.019405
     5  C   -0.004020   0.000112   0.000022   0.000000  -0.000234  -0.006668
     6  C   -0.031404  -0.001960   0.005887  -0.000031  -0.010170   0.039166
     7  C    0.611148  -0.149734  -0.014596   0.000201   0.016519  -0.026047
     8  C   -0.149734   0.287014   0.053133  -0.002419  -0.027241   0.012135
     9  C   -0.014596   0.053133  -0.088045   0.005399  -0.054762  -0.000459
    10  Br   0.000201  -0.002419   0.005399  -0.003836  -0.000394   0.000104
    11  C    0.016519  -0.027241  -0.054762  -0.000394   0.690504  -0.153744
    12  C   -0.026047   0.012135  -0.000459   0.000104  -0.153744   0.306695
    13  H    0.000069  -0.000024  -0.000043   0.000002   0.003988  -0.022182
    14  H    0.000004   0.000000  -0.000000  -0.000000   0.000001   0.001018
    15  H    0.000154  -0.000009  -0.000003   0.000000   0.000155  -0.003172
    16  H    0.002869  -0.000093  -0.000017  -0.000000   0.000199  -0.000969
    17  H    0.002035  -0.000093  -0.000004   0.000000   0.000041  -0.001623
    18  H    0.002877  -0.002081   0.000011   0.000001  -0.000042  -0.000008
    19  H   -0.001461   0.001745  -0.001550   0.000327   0.000094  -0.000037
    20  H   -0.000044   0.000019  -0.002574   0.000546   0.002817  -0.003018
              13         14         15         16         17         18
     1  N   -0.001256   0.000450  -0.000024   0.000317  -0.000007  -0.000000
     2  C   -0.041971   0.007531  -0.001847   0.002491  -0.000466  -0.000001
     3  C    0.033891  -0.012275   0.004914  -0.007192   0.002707   0.000012
     4  C   -0.011755   0.005890  -0.007017   0.009407  -0.009369  -0.000025
     5  C    0.002943  -0.006616   0.003592  -0.017110   0.003906   0.000290
     6  C   -0.001632   0.000549  -0.001632   0.002812  -0.003999  -0.002464
     7  C    0.000069   0.000004   0.000154   0.002869   0.002035   0.002877
     8  C   -0.000024   0.000000  -0.000009  -0.000093  -0.000093  -0.002081
     9  C   -0.000043  -0.000000  -0.000003  -0.000017  -0.000004   0.000011
    10  Br   0.000002  -0.000000   0.000000  -0.000000   0.000000   0.000001
    11  C    0.003988   0.000001   0.000155   0.000199   0.000041  -0.000042
    12  C   -0.022182   0.001018  -0.003172  -0.000969  -0.001623  -0.000008
    13  H    0.062397  -0.002354   0.002613  -0.000303   0.000218   0.000000
    14  H   -0.002354   0.012855  -0.002858   0.002408  -0.001471  -0.000000
    15  H    0.002613  -0.002858   0.004857  -0.000640   0.001750   0.000001
    16  H   -0.000303   0.002408  -0.000640   0.014880  -0.006224  -0.000048
    17  H    0.000218  -0.001471   0.001750  -0.006224   0.017371   0.000048
    18  H    0.000000  -0.000000   0.000001  -0.000048   0.000048  -0.023343
    19  H    0.000000  -0.000000   0.000000  -0.000001   0.000001   0.000332
    20  H    0.000157  -0.000001   0.000002  -0.000001   0.000000  -0.000000
              19         20
     1  N   -0.000000  -0.000005
     2  C   -0.000000  -0.000182
     3  C    0.000001   0.000645
     4  C   -0.000000  -0.000029
     5  C    0.000005   0.000013
     6  C    0.000056  -0.000045
     7  C   -0.001461  -0.000044
     8  C    0.001745   0.000019
     9  C   -0.001550  -0.002574
    10  Br   0.000327   0.000546
    11  C    0.000094   0.002817
    12  C   -0.000037  -0.003018
    13  H    0.000000   0.000157
    14  H   -0.000000  -0.000001
    15  H    0.000000   0.000002
    16  H   -0.000001  -0.000001
    17  H    0.000001   0.000000
    18  H    0.000332  -0.000000
    19  H   -0.011084   0.000002
    20  H    0.000002  -0.025316
 Mulliken charges and spin densities:
               1          2
     1  N   -0.590853   0.023191
     2  C    0.308582   0.008365
     3  C   -0.253569  -0.005590
     4  C   -0.311214   0.003413
     5  C   -0.340898   0.007888
     6  C   -0.035829  -0.115352
     7  C   -0.245470   0.407650
     8  C   -0.206168   0.170543
     9  C   -0.063457  -0.097425
    10  Br  -0.210703  -0.000095
    11  C   -0.201378   0.462088
    12  C   -0.051408   0.160015
    13  H    0.183154   0.024758
    14  H    0.164702   0.005132
    15  H    0.176313   0.000837
    16  H    0.176492   0.002784
    17  H    0.157027   0.004819
    18  H    0.098997  -0.024439
    19  H    0.124699  -0.011570
    20  H    0.120979  -0.027013
 Sum of Mulliken charges =  -1.00000   1.00000
 Mulliken charges and spin densities with hydrogens summed into heavy atoms:
               1          2
     1  N   -0.590853   0.023191
     2  C    0.308582   0.008365
     3  C   -0.070415   0.019168
     4  C    0.029802   0.009381
     5  C   -0.007379   0.015491
     6  C   -0.035829  -0.115352
     7  C   -0.146474   0.383211
     8  C   -0.081469   0.158973
     9  C   -0.063457  -0.097425
    10  Br  -0.210703  -0.000095
    11  C   -0.080399   0.435076
    12  C   -0.051408   0.160015
 Electronic spatial extent (au):  <R**2>=           3293.7200
 Charge=             -1.0000 electrons
 Dipole moment (field-independent basis, Debye):
    X=              0.8050    Y=              1.1990    Z=              2.4587  Tot=              2.8514
 Quadrupole moment (field-independent basis, Debye-Ang):
   XX=           -106.8182   YY=            -98.6923   ZZ=            -90.7911
   XY=             -9.2581   XZ=             -7.5492   YZ=             -6.1743
 Traceless Quadrupole moment (field-independent basis, Debye-Ang):
   XX=             -8.0510   YY=              0.0749   ZZ=              7.9761
   XY=             -9.2581   XZ=             -7.5492   YZ=             -6.1743
 Octapole moment (field-independent basis, Debye-Ang**2):
  XXX=            126.2939  YYY=             -2.1915  ZZZ=              8.6546  XYY=             65.5418
  XXY=             27.6339  XXZ=             20.7731  XZZ=             41.2310  YZZ=             -0.7020
  YYZ=             16.4465  XYZ=             17.4333
 Hexadecapole moment (field-independent basis, Debye-Ang**3):
 XXXX=          -3075.9269 YYYY=           -953.9111 ZZZZ=           -261.0188 XXXY=           -146.3213
 XXXZ=            -52.4657 YYYX=           -113.4679 YYYZ=            -43.2126 ZZZX=             -8.7652
 ZZZY=             -6.9558 XXYY=           -727.6728 XXZZ=           -558.8138 YYZZ=           -212.1701
 XXYZ=            -58.4472 YYXZ=            -48.8952 ZZXY=            -37.5233
 N-N= 8.761761957084D+02 E-N=-8.910314792215D+03  KE= 2.994096567415D+03
 There are a total of      454818 grid points.
 ElSum from          density=      110.9999773848
 ElSum from atomic densities=      109.9998934020
 Hirshfeld populations at iteration   1 (CA, CB, DipXYZ):
               1          2          3          4          5
     1  N    3.646996   3.628313   0.037776   0.068139   0.070798
     2  C    2.986347   2.967624   0.056653   0.106431   0.121960
     3  C    3.008846   2.989474  -0.023700  -0.022131  -0.026220
     4  C    3.025417   3.018814   0.026688   0.001732  -0.017761
     5  C    3.029424   3.023741   0.002186  -0.013913   0.015649
     6  C    3.021541   3.015603  -0.066089   0.030457  -0.020406
     7  C    3.209964   2.953536   0.015684  -0.002523  -0.002563
     8  C    3.136333   2.992193  -0.020745   0.030964  -0.011920
     9  C    3.019925   3.003095   0.063564  -0.035550   0.005063
    10  Br  17.579590  17.578788  -0.098026   0.027796  -0.006300
    11  C    3.228861   2.942494  -0.028511   0.011259  -0.006536
    12  C    3.107933   2.968251  -0.030094  -0.063015   0.000679
    13  H    0.497271   0.479150   0.010882  -0.069852   0.113749
    14  H    0.495327   0.491755  -0.123969  -0.031677  -0.034046
    15  H    0.491728   0.489097  -0.003094   0.047108   0.130547
    16  H    0.492921   0.490634  -0.049010  -0.008698  -0.124643
    17  H    0.494579   0.491410  -0.027161   0.120812   0.043947
    18  H    0.512557   0.493498  -0.018795   0.129258  -0.048412
    19  H    0.502721   0.492694   0.095312   0.097397  -0.046085
    20  H    0.511707   0.489824   0.012294  -0.136369   0.047408
       Tot  55.999988  54.999989  -0.168155   0.287626   0.204908

 Dip from Atomic Chgs              0.484781   0.184095   0.762386
         Total Dipole              0.316626   0.471721   0.967294

 Hirshfeld charges, spin densities, dipoles, and CM5 charges using IRadAn=      5:
              Q-H        S-H        Dx         Dy         Dz        Q-CM5   
     1  N   -0.275309   0.018683   0.037776   0.068139   0.070798  -0.403774
     2  C    0.046029   0.018722   0.056653   0.106431   0.121960   0.161850
     3  C    0.001680   0.019372  -0.023700  -0.022131  -0.026220  -0.049866
     4  C   -0.044231   0.006602   0.026688   0.001732  -0.017761  -0.148678
     5  C   -0.053165   0.005683   0.002186  -0.013913   0.015649  -0.155378
     6  C   -0.037145   0.005938  -0.066089   0.030457  -0.020406  -0.048881
     7  C   -0.163500   0.256429   0.015684  -0.002523  -0.002563  -0.217157
     8  C   -0.128526   0.144139  -0.020745   0.030964  -0.011920  -0.182704
     9  C   -0.023020   0.016830   0.063564  -0.035550   0.005063  -0.044014
    10  Br  -0.158379   0.000802  -0.098026   0.027796  -0.006300  -0.143821
    11  C   -0.171355   0.286368  -0.028511   0.011259  -0.006536  -0.222469
    12  C   -0.076184   0.139682  -0.030094  -0.063015   0.000679  -0.084066
    13  H    0.023579   0.018120   0.010882  -0.069852   0.113749   0.083270
    14  H    0.012918   0.003572  -0.123969  -0.031677  -0.034046   0.069192
    15  H    0.019175   0.002631  -0.003094   0.047108   0.130547   0.074941
    16  H    0.016445   0.002287  -0.049010  -0.008698  -0.124643   0.072448
    17  H    0.014011   0.003169  -0.027161   0.120812   0.043947   0.069263
    18  H   -0.006055   0.019060  -0.018795   0.129258  -0.048412   0.051032
    19  H    0.004585   0.010028   0.095312   0.097397  -0.046085   0.062186
    20  H   -0.001531   0.021883   0.012294  -0.136369   0.047408   0.056648
       Tot  -0.999977   0.999999  -0.168155   0.287626   0.204908  -0.999977
 Hirshfeld charges and spin densities with hydrogens summed into heavy atoms:
              Q-H        S-H       Q-CM5   
     1  N   -0.275309   0.018683  -0.403774
     2  C    0.046029   0.018722   0.161850
     3  C    0.025259   0.037493   0.033404
     4  C   -0.012138   0.012806  -0.004545
     5  C   -0.022710   0.011138  -0.013667
     6  C   -0.037145   0.005938  -0.048881
     7  C   -0.169555   0.275488  -0.166125
     8  C   -0.123941   0.154167  -0.120518
     9  C   -0.023020   0.016830  -0.044014
    10  Br  -0.158379   0.000802  -0.143821
    11  C   -0.172886   0.308251  -0.165821
    12  C   -0.076184   0.139682  -0.084066
 
 EQQ= 0.962347029097E-01 EQD=-0.412514030405E-01 EDD= 0.244184336747E-03
 EQQ+QD+DD= 0.552274842059E-01
 
                          Isotropic Fermi Contact Couplings
        Atom                 a.u.       MegaHertz       Gauss      10(-4) cm-1
     1  N(14)              0.00458       1.47835       0.52751       0.49313
     2  C(13)              0.02106      23.67498       8.44782       7.89712
     3  C(13)             -0.00685      -7.69630      -2.74623      -2.56721
     4  C(13)             -0.00067      -0.75143      -0.26813      -0.25065
     5  C(13)              0.00027       0.30416       0.10853       0.10146
     6  C(13)             -0.01718     -19.31221      -6.89108      -6.44186
     7  C(13)              0.03513      39.49019      14.09108      13.17251
     8  C(13)              0.01163      13.07402       4.66514       4.36102
     9  C(13)             -0.01843     -20.71760      -7.39255      -6.91065
    10  Br(79)            -0.00229      -2.57096      -0.91738      -0.85758
    11  C(13)              0.03985      44.80361      15.98704      14.94487
    12  C(13)              0.01196      13.44755       4.79842       4.48562
    13  H(1)               0.00595      26.59803       9.49084       8.87215
    14  H(1)               0.00082       3.66028       1.30608       1.22094
    15  H(1)               0.00059       2.64866       0.94511       0.88350
    16  H(1)              -0.00020      -0.87331      -0.31162      -0.29131
    17  H(1)               0.00026       1.15809       0.41324       0.38630
    18  H(1)              -0.00469     -20.96310      -7.48015      -6.99254
    19  H(1)              -0.00237     -10.57687      -3.77409      -3.52806
    20  H(1)              -0.00533     -23.83740      -8.50578      -7.95130
 --------------------------------------------------------
       Center         ----  Spin Dipole Couplings  ----
                      3XX-RR        3YY-RR        3ZZ-RR
 --------------------------------------------------------
     1   Atom       -0.011958     -0.011522      0.023480
     2   Atom       -0.006252     -0.013216      0.019468
     3   Atom        0.004275     -0.002150     -0.002125
     4   Atom        0.004523     -0.002005     -0.002517
     5   Atom        0.003567      0.000522     -0.004089
     6   Atom        0.027567      0.022616     -0.050183
     7   Atom       -0.190807     -0.117107      0.307914
     8   Atom       -0.086768     -0.059493      0.146261
     9   Atom        0.021967      0.015961     -0.037929
    10   Atom        0.020129      0.002324     -0.022454
    11   Atom       -0.214286     -0.124736      0.339023
    12   Atom       -0.088939     -0.070942      0.159880
    13   Atom        0.002479     -0.000697     -0.001782
    14   Atom        0.002790     -0.001315     -0.001476
    15   Atom        0.003117     -0.001685     -0.001431
    16   Atom        0.003176     -0.001076     -0.002100
    17   Atom        0.003096     -0.000595     -0.002501
    18   Atom       -0.027789      0.026886      0.000904
    19   Atom        0.006291     -0.003767     -0.002525
    20   Atom       -0.030369      0.028717      0.001652
 --------------------------------------------------------
                        XY            XZ            YZ
 --------------------------------------------------------
     1   Atom        0.016689     -0.023542     -0.022160
     2   Atom       -0.000678     -0.000274      0.006090
     3   Atom        0.004169     -0.000775      0.000064
     4   Atom       -0.000938     -0.001625      0.000968
     5   Atom       -0.002048     -0.000094     -0.000092
     6   Atom        0.002720     -0.011819     -0.032126
     7   Atom        0.013273      0.048381      0.184132
     8   Atom        0.007890      0.022319      0.093514
     9   Atom        0.004862     -0.004981     -0.026403
    10   Atom       -0.010896     -0.009435     -0.006952
    11   Atom        0.016273      0.052111      0.216193
    12   Atom        0.000653      0.008976      0.087365
    13   Atom        0.003905     -0.003994     -0.001815
    14   Atom       -0.000223     -0.000340      0.000079
    15   Atom       -0.000982     -0.002828      0.000508
    16   Atom       -0.000967      0.001814     -0.001161
    17   Atom       -0.001963     -0.000978      0.000128
    18   Atom       -0.009679      0.006108     -0.009828
    19   Atom        0.015124     -0.006841     -0.001487
    20   Atom       -0.011884      0.007048     -0.010972
 --------------------------------------------------------


 ---------------------------------------------------------------------------------
              Anisotropic Spin Dipole Couplings in Principal Axis System
 ---------------------------------------------------------------------------------

       Atom             a.u.   MegaHertz   Gauss  10(-4) cm-1        Axes

              Baa    -0.0285    -1.099    -0.392    -0.367  0.7481 -0.6611  0.0570
     1 N(14)  Bbb    -0.0193    -0.746    -0.266    -0.249  0.5041  0.6221  0.5991
              Bcc     0.0478     1.845     0.658     0.615 -0.4315 -0.4195  0.7987
 
              Baa    -0.0144    -1.927    -0.688    -0.643  0.0761  0.9814 -0.1761
     2 C(13)  Bbb    -0.0062    -0.833    -0.297    -0.278  0.9970 -0.0723  0.0278
              Bcc     0.0206     2.761     0.985     0.921 -0.0145  0.1777  0.9840
 
              Baa    -0.0043    -0.574    -0.205    -0.191 -0.4442  0.8764 -0.1860
     3 C(13)  Bbb    -0.0021    -0.282    -0.101    -0.094 -0.0126  0.2014  0.9794
              Bcc     0.0064     0.856     0.305     0.286  0.8959  0.4374 -0.0784
 
              Baa    -0.0033    -0.449    -0.160    -0.150  0.1103 -0.5310  0.8402
     4 C(13)  Bbb    -0.0017    -0.230    -0.082    -0.077  0.2534  0.8324  0.4928
              Bcc     0.0051     0.679     0.242     0.227  0.9610 -0.1585 -0.2264
 
              Baa    -0.0041    -0.549    -0.196    -0.183  0.0199  0.0288  0.9994
     5 C(13)  Bbb    -0.0005    -0.068    -0.024    -0.023  0.4486  0.8930 -0.0346
              Bcc     0.0046     0.617     0.220     0.206  0.8935 -0.4490 -0.0049
 
              Baa    -0.0635    -8.515    -3.038    -2.840  0.1108  0.3445  0.9322
     6 C(13)  Bbb     0.0244     3.272     1.168     1.091  0.8353 -0.5405  0.1005
              Bcc     0.0391     5.243     1.871     1.749  0.5385  0.7676 -0.3476
 
              Baa    -0.1970   -26.429    -9.430    -8.816  0.9253  0.3189 -0.2050
     7 C(13)  Bbb    -0.1840   -24.692    -8.811    -8.236 -0.3690  0.8818 -0.2938
              Bcc     0.3810    51.121    18.241    17.052  0.0871  0.3475  0.9336
 
              Baa    -0.0957   -12.844    -4.583    -4.284  0.0988  0.9251 -0.3666
     8 C(13)  Bbb    -0.0888   -11.911    -4.250    -3.973  0.9913 -0.1237 -0.0449
              Bcc     0.1845    24.755     8.833     8.257  0.0869  0.3590  0.9293
 
              Baa    -0.0488    -6.551    -2.338    -2.185  0.0395  0.3746  0.9263
     9 C(13)  Bbb     0.0176     2.364     0.844     0.789  0.8189 -0.5434  0.1849
              Bcc     0.0312     4.187     1.494     1.397  0.5726  0.7513 -0.3282
 
              Baa    -0.0274    -3.673    -1.311    -1.225  0.2527  0.3074  0.9174
    10 Br(79) Bbb     0.0014     0.187     0.067     0.063  0.3155  0.8702 -0.3785
              Bcc     0.0260     3.486     1.244     1.163  0.9147 -0.3851 -0.1229
 
              Baa    -0.2204   -29.573   -10.552    -9.864  0.9328  0.2984 -0.2022
    11 C(13)  Bbb    -0.2084   -27.966    -9.979    -9.328 -0.3504  0.8820 -0.3150
              Bcc     0.4288    57.539    20.531    19.193  0.0844  0.3647  0.9273
 
              Baa    -0.1007   -13.515    -4.822    -4.508  0.1908  0.9287 -0.3179
    12 C(13)  Bbb    -0.0888   -11.913    -4.251    -3.974  0.9811 -0.1908  0.0316
              Bcc     0.1895    25.428     9.073     8.482  0.0313  0.3180  0.9476
 
              Baa    -0.0043    -2.297    -0.820    -0.766  0.5987 -0.2681  0.7548
    13 H(1)   Bbb    -0.0029    -1.546    -0.552    -0.516 -0.2435  0.8368  0.4904
              Bcc     0.0072     3.842     1.371     1.282  0.7631  0.4773 -0.4357
 
              Baa    -0.0015    -0.812    -0.290    -0.271  0.0595 -0.2994  0.9523
    14 H(1)   Bbb    -0.0013    -0.698    -0.249    -0.233  0.0763  0.9525  0.2948
              Bcc     0.0028     1.510     0.539     0.504  0.9953 -0.0552 -0.0795
 
              Baa    -0.0028    -1.487    -0.531    -0.496  0.4268 -0.0364  0.9036
    15 H(1)   Bbb    -0.0019    -1.001    -0.357    -0.334  0.1705  0.9845 -0.0408
              Bcc     0.0047     2.489     0.888     0.830  0.8881 -0.1715 -0.4264
 
              Baa    -0.0031    -1.628    -0.581    -0.543 -0.1913  0.4260  0.8843
    16 H(1)   Bbb    -0.0010    -0.537    -0.192    -0.179  0.3506  0.8711 -0.3438
              Bcc     0.0041     2.165     0.773     0.722  0.9168 -0.2443  0.3160
 
              Baa    -0.0027    -1.438    -0.513    -0.480  0.2102  0.1376  0.9679
    17 H(1)   Bbb    -0.0014    -0.740    -0.264    -0.247  0.3543  0.9120 -0.2066
              Bcc     0.0041     2.178     0.777     0.726  0.9112 -0.3863 -0.1429
 
              Baa    -0.0301   -16.063    -5.732    -5.358  0.9789  0.1407 -0.1482
    18 H(1)   Bbb    -0.0021    -1.145    -0.409    -0.382  0.0916  0.3466  0.9335
              Bcc     0.0323    17.208     6.140     5.740 -0.1827  0.9274 -0.3264
 
              Baa    -0.0154    -8.191    -2.923    -2.732 -0.6056  0.7604 -0.2348
    19 H(1)   Bbb    -0.0038    -2.012    -0.718    -0.671  0.0912  0.3594  0.9287
              Bcc     0.0191    10.203     3.641     3.403  0.7906  0.5410 -0.2870
 
              Baa    -0.0334   -17.812    -6.356    -5.941  0.9761  0.1610 -0.1459
    20 H(1)   Bbb    -0.0020    -1.080    -0.386    -0.360  0.0791  0.3621  0.9288
              Bcc     0.0354    18.892     6.741     6.302 -0.2024  0.9181 -0.3407
 

 ---------------------------------------------------------------------------------

 Running external command "gaunbo6 R"
         input file       "/home/rpaton/arbr500/xtb/fukui/Gau-2145598.EIn"
         output file      "/home/rpaton/arbr500/xtb/fukui/Gau-2145598.EOu"
         message file     "/home/rpaton/arbr500/xtb/fukui/Gau-2145598.EMs"
         fchk file        "/home/rpaton/arbr500/xtb/fukui/Gau-2145598.EFC"
         mat. el file     "/home/rpaton/arbr500/xtb/fukui/Gau-2145598.EUF"

 Writing WrtUnf unformatted file "/home/rpaton/arbr500/xtb/fukui/Gau-2145598.EUF"
 Gaussian matrix elements                                         Version   2 NLab=11 Len12L=8 Len4L=8
 Write SHELL TO ATOM MAP                   from file      0 offset           0 length                  83 to matrix element file.
 Write SHELL TYPES                         from file      0 offset           0 length                  83 to matrix element file.
 Write NUMBER OF PRIMITIVES PER SHELL      from file      0 offset           0 length                  83 to matrix element file.
 Write PRIMITIVE EXPONENTS                 from file      0 offset           0 length                 149 to matrix element file.
 Write CONTRACTION COEFFICIENTS            from file      0 offset           0 length                 149 to matrix element file.
 Write P(S=P) CONTRACTION COEFFICIENTS     from file      0 offset           0 length                 149 to matrix element file.
 Write COORDINATES OF EACH SHELL           from file      0 offset           0 length                 249 to matrix element file.
 Write BONDS PER ATOM                      from file      0 offset           0 length                  20 to matrix element file.
 Write BONDED ATOMS                        from file      0 offset           0 length                  42 to matrix element file.
 Write BOND TYPES                          from file      0 offset           0 length                  42 to matrix element file.
 Write ONIOM CHARGE/MULT                   from file      0 offset           0 length                  32 to matrix element file.
 Write ONIOM ATOM LAYERS                   from file      0 offset           0 length                  20 to matrix element file.
 Write ONIOM ATOM MODIFIERS                from file      0 offset           0 length                  20 to matrix element file.
 Write ONIOM ATOM TYPES                    from file      0 offset           0 length                  20 to matrix element file.
 Write ONIOM LINK ATOMS                    from file      0 offset           0 length                  20 to matrix element file.
 Write ONIOM LINK CHARGES                  from file      0 offset           0 length                  20 to matrix element file.
 Write ONIOM LINK DISTANCES                from file      0 offset           0 length                  80 to matrix element file.
 Write SYMINF INTS                         from file      0 offset           0 length                  26 to matrix element file.
 Write ROTTR TO SO                         from file      0 offset           0 length                  12 to matrix element file.
 Write GAUSSIAN SCALARS                    from file    501 offset           0 to matrix element file.
 Write OPTIMIZATION FLAGS                  from file      0 offset           0 length                  20 to matrix element file.
 Write INTEGER ISO                         from file      0 offset           0 length                  20 to matrix element file.
 Write INTEGER SPIN                        from file      0 offset           0 length                  20 to matrix element file.
 Write REAL ZEFFECTIVE                     from file      0 offset           0 length                  20 to matrix element file.
 Write REAL QUADRUPOLEMOMENT               from file      0 offset           0 length                  20 to matrix element file.
 Write REAL GFACTOR                        from file      0 offset           0 length                  20 to matrix element file.
 Write REAL ZNUCLEAR                       from file      0 offset           0 length                  20 to matrix element file.
 Write MULLIKEN CHARGES                    from file      0 offset           0 length                  20 to matrix element file.
 Write TYPE 6 CHARGES                      from file      0 offset           0 length                  20 to matrix element file.
 Write TYPE 7 CHARGES                      from file      0 offset           0 length                  20 to matrix element file.
 Write NUCLEAR GRADIENT                    from file  10584 offset           0 length                  60 to matrix element file.
 Array NUCLEAR FORCE CONSTANTS              on  file  10585 does not exist.
 Write ELECTRIC DIPOLE MOMENT              from file      0 offset           0 length                   3 to matrix element file.
 Write NON-ADIABATIC COUPLING              from file  10810 offset           0 length                  60 to matrix element file.
 Write FINITE EM FIELD                     from file  10521 offset           0 length                  35 to matrix element file.
 Write OVERLAP                             from file  10514 offset           0 length               10878 to matrix element file.
 Write CORE HAMILTONIAN ALPHA              from file  10515 offset           0 length               10878 to matrix element file.
 Write CORE HAMILTONIAN BETA               from file  10515 offset       10878 length               10878 to matrix element file.
 Write KINETIC ENERGY                      from file  10516 offset           0 length               10878 to matrix element file.
 Write ORTHOGONAL BASIS                    from file  10685 offset           0 length               21609 to matrix element file.
 Write DIPOLE INTEGRALS                    from file  10518 offset           0 length               32634 to matrix element file.
 Array DIP VEL INTEGRALS                    on  file  10572 does not exist.
 Array R X DEL INTEGRALS                    on  file  10572 does not exist.
 Write ALPHA ORBITAL ENERGIES              from file      0 offset           0 length                 147 to matrix element file.
 Write BETA ORBITAL ENERGIES               from file      0 offset           0 length                 147 to matrix element file.
 Write ALPHA MO COEFFICIENTS               from file  10524 offset           0 length               21609 to matrix element file.
 Write BETA MO COEFFICIENTS                from file  10526 offset           0 length               21609 to matrix element file.
 Write ALPHA DENSITY MATRIX                from file      0 offset           0 length               10878 to matrix element file.
 Write BETA DENSITY MATRIX                 from file      0 offset           0 length               10878 to matrix element file.
 Write ALPHA FOCK MATRIX                   from file  10536 offset           0 length               10878 to matrix element file.
 Write BETA FOCK MATRIX                    from file  10538 offset           0 length               10878 to matrix element file.
 Write ENERGY-WEIGHTED DENSITY             from file  10571 offset           0 length               10878 to matrix element file.
 Write ALPHA SCF DENSITY MATRIX            from file      0 offset           0 length               10878 to matrix element file.
 Write BETA SCF DENSITY MATRIX             from file      0 offset           0 length               10878 to matrix element file.
 No 2e integrals to process.
 Perform NBO analysis...

 *********************************** NBO 7.0 ***********************************
             N A T U R A L   A T O M I C   O R B I T A L   A N D
          N A T U R A L   B O N D   O R B I T A L   A N A L Y S I S
 **************************** Robert Paton (I101709) ***************************
  (c) Copyright 1996-2019 Board of Regents of the University of Wisconsin System
      on behalf of the Theoretical Chemistry Institute.  All rights reserved.

          Cite this program [NBO 7.0.5 (4-Jun-2019)] as:

          NBO 7.0.  E. D. Glendening, J. K. Badenhoop, A. E. Reed,
          J. E. Carpenter, J. A. Bohmann, C. M. Morales, P. Karafiloglou,
          C. R. Landis, and F. Weinhold, Theoretical Chemistry Institute,
          University of Wisconsin, Madison, WI (2018)

 Filename set to /home/rpaton/arbr500/xtb/fukui/Gau-2145598

 Job title:  energy: -32.469090060500 gnorm: 0.000424945565 xtb: 6.7.0 (08769fc)


 NATURAL POPULATIONS:  Natural atomic orbital occupancies

  NAO Atom No lang   Type(AO)    Occupancy     Spin
 -----------------------------------------------------
   1    N  1  s      Cor( 1s)     1.99991     0.00000
   2    N  1  s      Val( 2s)     1.57975     0.00040
   3    N  1  s      Ryd( 3s)     0.00976     0.00026
   4    N  1  px     Val( 2p)     1.14112     0.00364
   5    N  1  px     Ryd( 3p)     0.00025     0.00004
   6    N  1  py     Val( 2p)     1.27290     0.00466
   7    N  1  py     Ryd( 3p)     0.00069     0.00009
   8    N  1  pz     Val( 2p)     1.36771     0.01122
   9    N  1  pz     Ryd( 3p)     0.00102     0.00001
  10    N  1  dxy    Ryd( 3d)     0.00180    -0.00001
  11    N  1  dxz    Ryd( 3d)     0.00266     0.00000
  12    N  1  dyz    Ryd( 3d)     0.00377     0.00001
  13    N  1  dx2y2  Ryd( 3d)     0.00177     0.00000
  14    N  1  dz2    Ryd( 3d)     0.00377     0.00001

  15    C  2  s      Cor( 1s)     1.99987     0.00000
  16    C  2  s      Val( 2s)     0.84004     0.00917
  17    C  2  s      Ryd( 3s)     0.01136     0.00204
  18    C  2  px     Val( 2p)     0.91537     0.00000
  19    C  2  px     Ryd( 3p)     0.00332    -0.00002
  20    C  2  py     Val( 2p)     0.93804    -0.00235
  21    C  2  py     Ryd( 3p)     0.00965     0.00001
  22    C  2  pz     Val( 2p)     0.96341     0.00974
  23    C  2  pz     Ryd( 3p)     0.01280     0.00008

  24    C  3  s      Cor( 1s)     1.99974     0.00000
  25    C  3  s      Val( 2s)     0.96134    -0.00194
  26    C  3  s      Ryd( 3s)     0.00116     0.00020
  27    C  3  px     Val( 2p)     1.10223    -0.00370
  28    C  3  px     Ryd( 3p)     0.00131     0.00000
  29    C  3  py     Val( 2p)     1.12039    -0.00205
  30    C  3  py     Ryd( 3p)     0.00363    -0.00001
  31    C  3  pz     Val( 2p)     1.18942     0.00057
  32    C  3  pz     Ryd( 3p)     0.00305     0.00022

  33    C  4  s      Cor( 1s)     1.99976     0.00000
  34    C  4  s      Val( 2s)     1.02891    -0.00012
  35    C  4  s      Ryd( 3s)     0.00074     0.00011
  36    C  4  px     Val( 2p)     1.16903     0.00022
  37    C  4  px     Ryd( 3p)     0.00254     0.00039
  38    C  4  py     Val( 2p)     1.05101     0.00053
  39    C  4  py     Ryd( 3p)     0.00135     0.00003
  40    C  4  pz     Val( 2p)     1.20612    -0.00017
  41    C  4  pz     Ryd( 3p)     0.00174     0.00002

  42    C  5  s      Cor( 1s)     1.99976     0.00000
  43    C  5  s      Val( 2s)     1.02001     0.00024
  44    C  5  s      Ryd( 3s)     0.00064     0.00006
  45    C  5  px     Val( 2p)     1.09904     0.00140
  46    C  5  px     Ryd( 3p)     0.00155     0.00000
  47    C  5  py     Val( 2p)     1.17554     0.00172
  48    C  5  py     Ryd( 3p)     0.00290     0.00023
  49    C  5  pz     Val( 2p)     1.19403     0.00074
  50    C  5  pz     Ryd( 3p)     0.00102     0.00000

  51    C  6  s      Cor( 1s)     1.99991     0.00000
  52    C  6  s      Val( 2s)     0.83727    -0.00522
  53    C  6  s      Ryd( 3s)     0.00113     0.00006
  54    C  6  px     Val( 2p)     1.06312    -0.00403
  55    C  6  px     Ryd( 3p)     0.00448     0.00004
  56    C  6  py     Val( 2p)     1.09018    -0.01120
  57    C  6  py     Ryd( 3p)     0.00399    -0.00002
  58    C  6  pz     Val( 2p)     1.01892    -0.04188
  59    C  6  pz     Ryd( 3p)     0.00189     0.00000

  60    C  7  s      Cor( 1s)     1.99984     0.00000
  61    C  7  s      Val( 2s)     0.90043     0.01212
  62    C  7  s      Ryd( 3s)     0.00078    -0.00001
  63    C  7  px     Val( 2p)     1.06862     0.00713
  64    C  7  px     Ryd( 3p)     0.00557     0.00002
  65    C  7  py     Val( 2p)     1.18598     0.04597
  66    C  7  py     Ryd( 3p)     0.00451     0.00051
  67    C  7  pz     Val( 2p)     1.23939     0.28150
  68    C  7  pz     Ryd( 3p)     0.00406     0.00316

  69    C  8  s      Cor( 1s)     1.99986     0.00000
  70    C  8  s      Val( 2s)     0.92048     0.00440
  71    C  8  s      Ryd( 3s)     0.00081    -0.00001
  72    C  8  px     Val( 2p)     1.15263     0.00060
  73    C  8  px     Ryd( 3p)     0.00581    -0.00002
  74    C  8  py     Val( 2p)     1.11600     0.02183
  75    C  8  py     Ryd( 3p)     0.00458     0.00025
  76    C  8  pz     Val( 2p)     1.13715     0.13445
  77    C  8  pz     Ryd( 3p)     0.00267     0.00156

  78    C  9  s      Cor( 1s)     1.99989     0.00000
  79    C  9  s      Val( 2s)     0.92416    -0.00563
  80    C  9  s      Ryd( 3s)     0.00053     0.00000
  81    C  9  px     Val( 2p)     0.95050    -0.00282
  82    C  9  px     Ryd( 3p)     0.00611     0.00007
  83    C  9  py     Val( 2p)     1.10428    -0.01049
  84    C  9  py     Ryd( 3p)     0.00584     0.00002
  85    C  9  pz     Val( 2p)     1.10931    -0.03066
  86    C  9  pz     Ryd( 3p)     0.00145     0.00016

  87   Br 10  s      Cor( 3s)     2.00000     0.00000
  88   Br 10  s      Cor( 1s)     2.00000     0.00000
  89   Br 10  s      Cor( 2s)     1.99999     0.00000
  90   Br 10  s      Val( 4s)     1.86480    -0.00007
  91   Br 10  s      Ryd( 5s)     0.00263    -0.00001
  92   Br 10  px     Cor( 3p)     2.00000     0.00000
  93   Br 10  px     Cor( 2p)     1.99999     0.00000
  94   Br 10  px     Val( 4p)     1.29881     0.00071
  95   Br 10  px     Ryd( 5p)     0.00280     0.00000
  96   Br 10  py     Cor( 3p)     2.00000     0.00000
  97   Br 10  py     Cor( 2p)     1.99999     0.00000
  98   Br 10  py     Val( 4p)     1.89310    -0.00023
  99   Br 10  py     Ryd( 5p)     0.00135     0.00000
 100   Br 10  pz     Cor( 3p)     2.00000     0.00000
 101   Br 10  pz     Cor( 2p)     2.00000     0.00000
 102   Br 10  pz     Val( 4p)     1.96464    -0.00174
 103   Br 10  pz     Ryd( 5p)     0.00075    -0.00001
 104   Br 10  dxy    Cor( 3d)     1.99961     0.00000
 105   Br 10  dxy    Ryd( 4d)     0.00240    -0.00002
 106   Br 10  dxz    Cor( 3d)     1.99987     0.00000
 107   Br 10  dxz    Ryd( 4d)     0.00211    -0.00009
 108   Br 10  dyz    Cor( 3d)     1.99997     0.00000
 109   Br 10  dyz    Ryd( 4d)     0.00053     0.00022
 110   Br 10  dx2y2  Cor( 3d)     1.99955     0.00000
 111   Br 10  dx2y2  Ryd( 4d)     0.00305     0.00004
 112   Br 10  dz2    Cor( 3d)     1.99981     0.00000
 113   Br 10  dz2    Ryd( 4d)     0.00160     0.00011

 114    C 11  s      Cor( 1s)     1.99984     0.00000
 115    C 11  s      Val( 2s)     0.89705     0.01357
 116    C 11  s      Ryd( 3s)     0.00105    -0.00002
 117    C 11  px     Val( 2p)     1.06660     0.00815
 118    C 11  px     Ryd( 3p)     0.00656     0.00003
 119    C 11  py     Val( 2p)     1.20134     0.05374
 120    C 11  py     Ryd( 3p)     0.00473     0.00051
 121    C 11  pz     Val( 2p)     1.24874     0.31682
 122    C 11  pz     Ryd( 3p)     0.00538     0.00448

 123    C 12  s      Cor( 1s)     1.99988     0.00000
 124    C 12  s      Val( 2s)     0.81592     0.00421
 125    C 12  s      Ryd( 3s)     0.00150     0.00020
 126    C 12  px     Val( 2p)     1.06016    -0.00050
 127    C 12  px     Ryd( 3p)     0.00460     0.00000
 128    C 12  py     Val( 2p)     1.06908     0.01747
 129    C 12  py     Ryd( 3p)     0.00422     0.00015
 130    C 12  pz     Val( 2p)     1.15422     0.13326
 131    C 12  pz     Ryd( 3p)     0.00278     0.00095

 132    H 13  s      Val( 1s)     0.73304     0.02139
 133    H 13  s      Ryd( 2s)     0.00503     0.00341

 134    H 14  s      Val( 1s)     0.76046     0.00420
 135    H 14  s      Ryd( 2s)     0.00232     0.00092

 136    H 15  s      Val( 1s)     0.75284     0.00121
 137    H 15  s      Ryd( 2s)     0.00192     0.00013

 138    H 16  s      Val( 1s)     0.75420     0.00137
 139    H 16  s      Ryd( 2s)     0.00284     0.00102

 140    H 17  s      Val( 1s)     0.76122     0.00332
 141    H 17  s      Ryd( 2s)     0.00271     0.00127

 142    H 18  s      Val( 1s)     0.79309    -0.01150
 143    H 18  s      Ryd( 2s)     0.00088     0.00000

 144    H 19  s      Val( 1s)     0.77807    -0.00558
 145    H 19  s      Ryd( 2s)     0.00125     0.00001

 146    H 20  s      Val( 1s)     0.77703    -0.01273
 147    H 20  s      Ryd( 2s)     0.00121     0.00004


 Summary of Natural Population Analysis:

                                     Natural Population                 Natural
             Natural    ---------------------------------------------    Spin
  Atom No    Charge        Core      Valence    Rydberg      Total      Density
 -------------------------------------------------------------------------------
    N  1   -0.38688      1.99991     5.36148    0.02549     7.38688     0.02033
    C  2    0.30613      1.99987     3.65686    0.03713     5.69387     0.01870
    C  3   -0.38227      1.99974     4.37337    0.00915     6.38227    -0.00671
    C  4   -0.46121      1.99976     4.45508    0.00637     6.46121     0.00101
    C  5   -0.49449      1.99976     4.48862    0.00611     6.49449     0.00438
    C  6   -0.02090      1.99991     4.00950    0.01149     6.02090    -0.06226
    C  7   -0.40920      1.99984     4.39443    0.01493     6.40920     0.35041
    C  8   -0.33999      1.99986     4.32626    0.01387     6.33999     0.16306
    C  9   -0.10208      1.99989     4.08826    0.01392     6.10208    -0.04935
   Br 10   -0.03732     27.99877     7.02134    0.01721    35.03732    -0.00108
    C 11   -0.43130      1.99984     4.41374    0.01772     6.43130     0.39728
    C 12   -0.11236      1.99988     4.09938    0.01310     6.11236     0.15573
    H 13    0.26192      0.00000     0.73304    0.00503     0.73808     0.02481
    H 14    0.23722      0.00000     0.76046    0.00232     0.76278     0.00513
    H 15    0.24524      0.00000     0.75284    0.00192     0.75476     0.00134
    H 16    0.24296      0.00000     0.75420    0.00284     0.75704     0.00239
    H 17    0.23606      0.00000     0.76122    0.00271     0.76394     0.00459
    H 18    0.20603      0.00000     0.79309    0.00088     0.79397    -0.01150
    H 19    0.22068      0.00000     0.77807    0.00125     0.77932    -0.00558
    H 20    0.22175      0.00000     0.77703    0.00121     0.77825    -0.01269
 ===============================================================================
 * Total * -1.00000     49.99704    60.79829    0.20467   111.00000     1.00000

                                 Natural Population
 ---------------------------------------------------------
   Core                      49.99704 ( 99.9941% of   50)
   Valence                   60.79829 ( 99.6693% of   61)
   Natural Minimal Basis    110.79533 ( 99.8156% of  111)
   Natural Rydberg Basis      0.20467 (  0.1844% of  111)
 ---------------------------------------------------------

    Atom No         Natural Electron Configuration
 ----------------------------------------------------------------------------
      N  1      [core]2s( 1.58)2p( 3.78)3s( 0.01)3d( 0.01)
      C  2      [core]2s( 0.84)2p( 2.82)3s( 0.01)3p( 0.03)
      C  3      [core]2s( 0.96)2p( 3.41)3p( 0.01)
      C  4      [core]2s( 1.03)2p( 3.43)3p( 0.01)
      C  5      [core]2s( 1.02)2p( 3.47)3p( 0.01)
      C  6      [core]2s( 0.84)2p( 3.17)3p( 0.01)
      C  7      [core]2s( 0.90)2p( 3.49)3p( 0.01)
      C  8      [core]2s( 0.92)2p( 3.41)3p( 0.01)
      C  9      [core]2s( 0.92)2p( 3.16)3p( 0.01)
     Br 10      [core]4s( 1.86)4p( 5.16)4d( 0.01)
      C 11      [core]2s( 0.90)2p( 3.52)3p( 0.02)
      C 12      [core]2s( 0.82)2p( 3.28)3p( 0.01)
      H 13            1s( 0.73)2s( 0.01)
      H 14            1s( 0.76)
      H 15            1s( 0.75)
      H 16            1s( 0.75)
      H 17            1s( 0.76)
      H 18            1s( 0.79)
      H 19            1s( 0.78)
      H 20            1s( 0.78)


 ***************************************************
 *******         Alpha spin orbitals         *******
 ***************************************************


 NATURAL POPULATIONS:  Natural atomic orbital occupancies

  NAO Atom No lang   Type(AO)    Occupancy      Energy
 -------------------------------------------------------
   1    N  1  s      Cor( 1s)     0.99996     -14.18580
   2    N  1  s      Val( 2s)     0.79007      -0.28208
   3    N  1  s      Ryd( 3s)     0.00501       1.39806
   4    N  1  px     Val( 2p)     0.57238      -0.01206
   5    N  1  px     Ryd( 3p)     0.00015       1.51649
   6    N  1  py     Val( 2p)     0.63878      -0.02816
   7    N  1  py     Ryd( 3p)     0.00039       1.59565
   8    N  1  pz     Val( 2p)     0.68947      -0.04024
   9    N  1  pz     Ryd( 3p)     0.00052       1.64742
  10    N  1  dxy    Ryd( 3d)     0.00089       2.18397
  11    N  1  dxz    Ryd( 3d)     0.00133       2.24299
  12    N  1  dyz    Ryd( 3d)     0.00189       2.72050
  13    N  1  dx2y2  Ryd( 3d)     0.00089       2.18794
  14    N  1  dz2    Ryd( 3d)     0.00189       2.29909

  15    C  2  s      Cor( 1s)     0.99994     -10.11175
  16    C  2  s      Val( 2s)     0.42461       0.10667
  17    C  2  s      Ryd( 3s)     0.00670       0.91356
  18    C  2  px     Val( 2p)     0.45769       0.07263
  19    C  2  px     Ryd( 3p)     0.00165       1.11947
  20    C  2  py     Val( 2p)     0.46785       0.14711
  21    C  2  py     Ryd( 3p)     0.00483       1.20676
  22    C  2  pz     Val( 2p)     0.48657       0.18996
  23    C  2  pz     Ryd( 3p)     0.00644       1.25250

  24    C  3  s      Cor( 1s)     0.99987     -10.12827
  25    C  3  s      Val( 2s)     0.47970       0.03932
  26    C  3  s      Ryd( 3s)     0.00068       1.41096
  27    C  3  px     Val( 2p)     0.54926       0.04596
  28    C  3  px     Ryd( 3p)     0.00066       1.18096
  29    C  3  py     Val( 2p)     0.55917       0.04728
  30    C  3  py     Ryd( 3p)     0.00181       1.26120
  31    C  3  pz     Val( 2p)     0.59499       0.02930
  32    C  3  pz     Ryd( 3p)     0.00163       1.29965

  33    C  4  s      Cor( 1s)     0.99988     -10.11069
  34    C  4  s      Val( 2s)     0.51440      -0.03666
  35    C  4  s      Ryd( 3s)     0.00042       1.35884
  36    C  4  px     Val( 2p)     0.58463       0.03374
  37    C  4  px     Ryd( 3p)     0.00147       1.19831
  38    C  4  py     Val( 2p)     0.52577       0.04913
  39    C  4  py     Ryd( 3p)     0.00069       1.11483
  40    C  4  pz     Val( 2p)     0.60298       0.02305
  41    C  4  pz     Ryd( 3p)     0.00088       1.21119

  42    C  5  s      Cor( 1s)     0.99988     -10.09404
  43    C  5  s      Val( 2s)     0.51013      -0.00601
  44    C  5  s      Ryd( 3s)     0.00035       1.36606
  45    C  5  px     Val( 2p)     0.55022       0.06658
  46    C  5  px     Ryd( 3p)     0.00077       1.07846
  47    C  5  py     Val( 2p)     0.58863       0.04628
  48    C  5  py     Ryd( 3p)     0.00156       1.21157
  49    C  5  pz     Val( 2p)     0.59738       0.04034
  50    C  5  pz     Ryd( 3p)     0.00051       1.19733

  51    C  6  s      Cor( 1s)     0.99996     -10.06284
  52    C  6  s      Val( 2s)     0.41602       0.17196
  53    C  6  s      Ryd( 3s)     0.00060       0.92343
  54    C  6  px     Val( 2p)     0.52955       0.15495
  55    C  6  px     Ryd( 3p)     0.00226       1.72849
  56    C  6  py     Val( 2p)     0.53949       0.14864
  57    C  6  py     Ryd( 3p)     0.00198       1.42875
  58    C  6  pz     Val( 2p)     0.48852       0.09114
  59    C  6  pz     Ryd( 3p)     0.00094       1.23419

  60    C  7  s      Cor( 1s)     0.99992     -10.02288
  61    C  7  s      Val( 2s)     0.45628       0.14661
  62    C  7  s      Ryd( 3s)     0.00039       0.91022
  63    C  7  px     Val( 2p)     0.53788       0.17813
  64    C  7  px     Ryd( 3p)     0.00280       1.21576
  65    C  7  py     Val( 2p)     0.61598       0.11745
  66    C  7  py     Ryd( 3p)     0.00251       1.52555
  67    C  7  pz     Val( 2p)     0.76045       0.01673
  68    C  7  pz     Ryd( 3p)     0.00361       1.17998

  69    C  8  s      Cor( 1s)     0.99993     -10.04107
  70    C  8  s      Val( 2s)     0.46244       0.12636
  71    C  8  s      Ryd( 3s)     0.00040       0.90702
  72    C  8  px     Val( 2p)     0.57662       0.14198
  73    C  8  px     Ryd( 3p)     0.00289       1.40657
  74    C  8  py     Val( 2p)     0.56891       0.13080
  75    C  8  py     Ryd( 3p)     0.00241       1.30279
  76    C  8  pz     Val( 2p)     0.63580       0.04321
  77    C  8  pz     Ryd( 3p)     0.00212       1.15847

  78    C  9  s      Cor( 1s)     0.99995     -10.10525
  79    C  9  s      Val( 2s)     0.45927       0.06144
  80    C  9  s      Ryd( 3s)     0.00026       0.89930
  81    C  9  px     Val( 2p)     0.47384       0.08105
  82    C  9  px     Ryd( 3p)     0.00309       1.50752
  83    C  9  py     Val( 2p)     0.54690       0.11301
  84    C  9  py     Ryd( 3p)     0.00293       1.29185
  85    C  9  pz     Val( 2p)     0.53932       0.04713
  86    C  9  pz     Ryd( 3p)     0.00081       1.15166

  87   Br 10  s      Cor( 3s)     1.00000     -20.68059
  88   Br 10  s      Cor( 1s)     1.00000    -450.84065
  89   Br 10  s      Cor( 2s)     1.00000     -79.62667
  90   Br 10  s      Val( 4s)     0.93236      -0.61609
  91   Br 10  s      Ryd( 5s)     0.00131       0.99410
  92   Br 10  px     Cor( 3p)     1.00000      -6.93367
  93   Br 10  px     Cor( 2p)     0.99999     -55.59420
  94   Br 10  px     Val( 4p)     0.64976      -0.10776
  95   Br 10  px     Ryd( 5p)     0.00140       0.88252
  96   Br 10  py     Cor( 3p)     1.00000      -6.92387
  97   Br 10  py     Cor( 2p)     1.00000     -55.59177
  98   Br 10  py     Val( 4p)     0.94643      -0.19805
  99   Br 10  py     Ryd( 5p)     0.00068       0.90286
 100   Br 10  pz     Cor( 3p)     1.00000      -6.92240
 101   Br 10  pz     Cor( 2p)     1.00000     -55.59136
 102   Br 10  pz     Val( 4p)     0.98145      -0.20940
 103   Br 10  pz     Ryd( 5p)     0.00037       0.87959
 104   Br 10  dxy    Cor( 3d)     0.99980      -2.61519
 105   Br 10  dxy    Ryd( 4d)     0.00119       1.08929
 106   Br 10  dxz    Cor( 3d)     0.99993      -2.61400
 107   Br 10  dxz    Ryd( 4d)     0.00101       0.88926
 108   Br 10  dyz    Cor( 3d)     0.99998      -2.60634
 109   Br 10  dyz    Ryd( 4d)     0.00037       0.82314
 110   Br 10  dx2y2  Cor( 3d)     0.99977      -2.61524
 111   Br 10  dx2y2  Ryd( 4d)     0.00155       1.11266
 112   Br 10  dz2    Cor( 3d)     0.99991      -2.60859
 113   Br 10  dz2    Ryd( 4d)     0.00085       0.91212

 114    C 11  s      Cor( 1s)     0.99992     -10.02517
 115    C 11  s      Val( 2s)     0.45531       0.14606
 116    C 11  s      Ryd( 3s)     0.00051       0.89498
 117    C 11  px     Val( 2p)     0.53738       0.17084
 118    C 11  px     Ryd( 3p)     0.00330       1.18830
 119    C 11  py     Val( 2p)     0.62754       0.10524
 120    C 11  py     Ryd( 3p)     0.00262       1.51134
 121    C 11  pz     Val( 2p)     0.78278       0.00606
 122    C 11  pz     Ryd( 3p)     0.00493       1.17477

 123    C 12  s      Cor( 1s)     0.99994     -10.05014
 124    C 12  s      Val( 2s)     0.41007       0.17604
 125    C 12  s      Ryd( 3s)     0.00085       0.97993
 126    C 12  px     Val( 2p)     0.52983       0.16066
 127    C 12  px     Ryd( 3p)     0.00230       1.68375
 128    C 12  py     Val( 2p)     0.54327       0.14001
 129    C 12  py     Ryd( 3p)     0.00218       1.47287
 130    C 12  pz     Val( 2p)     0.64374       0.04499
 131    C 12  pz     Ryd( 3p)     0.00187       1.25933

 132    H 13  s      Val( 1s)     0.37722       0.25357
 133    H 13  s      Ryd( 2s)     0.00422       0.74675

 134    H 14  s      Val( 1s)     0.38233       0.24242
 135    H 14  s      Ryd( 2s)     0.00162       0.74165

 136    H 15  s      Val( 1s)     0.37703       0.24555
 137    H 15  s      Ryd( 2s)     0.00102       0.73812

 138    H 16  s      Val( 1s)     0.37779       0.25453
 139    H 16  s      Ryd( 2s)     0.00193       0.75900

 140    H 17  s      Val( 1s)     0.38227       0.25163
 141    H 17  s      Ryd( 2s)     0.00199       0.74461

 142    H 18  s      Val( 1s)     0.39080       0.29388
 143    H 18  s      Ryd( 2s)     0.00044       0.79505

 144    H 19  s      Val( 1s)     0.38624       0.29578
 145    H 19  s      Ryd( 2s)     0.00063       0.78277

 146    H 20  s      Val( 1s)     0.38215       0.30217
 147    H 20  s      Ryd( 2s)     0.00063       0.80449


 Summary of Natural Population Analysis:

                                     Natural Population
             Natural    ---------------------------------------------
  Atom No    Charge        Core      Valence    Rydberg      Total
 --------------------------------------------------------------------
    N  1   -0.20360      0.99996     2.69070    0.01295     3.70360
    C  2    0.14372      0.99994     1.83672    0.01963     2.85628
    C  3   -0.18778      0.99987     2.18313    0.00478     3.18778
    C  4   -0.23111      0.99988     2.22777    0.00346     3.23111
    C  5   -0.24944      0.99988     2.24636    0.00320     3.24944
    C  6    0.02068      0.99996     1.97359    0.00578     2.97932
    C  7   -0.37980      0.99992     2.37058    0.00930     3.37980
    C  8   -0.25153      0.99993     2.24377    0.00782     3.25153
    C  9   -0.02636      0.99995     2.01933    0.00709     3.02636
   Br 10   -0.01812     13.99939     3.51001    0.00873    17.51812
    C 11   -0.41429      0.99992     2.40301    0.01136     3.41429
    C 12   -0.13404      0.99994     2.12691    0.00720     3.13404
    H 13    0.11856      0.00000     0.37722    0.00422     0.38144
    H 14    0.11605      0.00000     0.38233    0.00162     0.38395
    H 15    0.12195      0.00000     0.37703    0.00102     0.37805
    H 16    0.12028      0.00000     0.37779    0.00193     0.37972
    H 17    0.11574      0.00000     0.38227    0.00199     0.38426
    H 18    0.10876      0.00000     0.39080    0.00044     0.39124
    H 19    0.11313      0.00000     0.38624    0.00063     0.38687
    H 20    0.11722      0.00000     0.38215    0.00063     0.38278
[...]
   47. BD ( 1) C  7- H 18      71. BD*( 1) C  6- C 12      1.39    1.25   0.052
   47. BD ( 1) C  7- H 18      72. BD*( 1) C  7- C  8      0.61    1.27   0.035
   47. BD ( 1) C  7- H 18      74. BD*( 1) C  8- C  9      1.32    1.24   0.051
   47. BD ( 1) C  7- H 18     107. RY ( 1) C  6            0.66    2.06   0.047
   47. BD ( 1) C  7- H 18     108. RY ( 2) C  6            0.25    1.87   0.027
   47. BD ( 1) C  7- H 18     115. RY ( 1) C  8            0.59    1.89   0.042
   48. BD ( 1) C  8- C  9      72. BD*( 1) C  7- C  8      1.68    1.41   0.061
   48. BD ( 1) C  8- C  9      73. BD*( 1) C  7- H 18      0.85    1.28   0.042
   48. BD ( 1) C  8- C  9      76. BD*( 1) C  8- H 19      1.11    1.27   0.047
   48. BD ( 1) C  8- C  9      78. BD*( 1) C  9- C 11      2.26    1.39   0.071
   48. BD ( 1) C  8- C  9      81. BD*( 1) C 11- H 20      0.94    1.28   0.044
   48. BD ( 1) C  8- C  9     111. RY ( 1) C  7            0.38    2.12   0.036
   48. BD ( 1) C  8- C  9     112. RY ( 2) C  7            0.87    1.71   0.049
   48. BD ( 1) C  8- C  9     132. RY ( 1) C 11            0.58    2.05   0.044
   48. BD ( 1) C  8- C  9     133. RY ( 2) C 11            0.34    1.74   0.031
   49. BD ( 2) C  8- C  9      70. BD*( 2) C  6- C  7     14.61    0.42   0.099
   49. BD ( 2) C  8- C  9      80. BD*( 2) C 11- C 12     16.44    0.44   0.107
   49. BD ( 2) C  8- C  9     114. RY ( 4) C  7            0.40    1.28   0.029
   49. BD ( 2) C  8- C  9     123. RY ( 1)Br 10            0.98    0.98   0.039
   49. BD ( 2) C  8- C  9     135. RY ( 4) C 11            0.75    1.29   0.039
   50. BD ( 1) C  8- H 19      69. BD*( 1) C  6- C  7      1.24    1.29   0.051
   50. BD ( 1) C  8- H 19      72. BD*( 1) C  7- C  8      0.59    1.28   0.035
   50. BD ( 1) C  8- H 19      74. BD*( 1) C  8- C  9      0.52    1.25   0.032
   50. BD ( 1) C  8- H 19      77. BD*( 1) C  9-Br 10      0.46    0.74   0.023
   50. BD ( 1) C  8- H 19      78. BD*( 1) C  9- C 11      1.24    1.26   0.050
   50. BD ( 1) C  8- H 19     111. RY ( 1) C  7            0.64    1.99   0.045
   50. BD ( 1) C  8- H 19     120. RY ( 2) C  9            0.76    1.93   0.048
   51. BD ( 1) C  9-Br 10      72. BD*( 1) C  7- C  8      0.97    1.35   0.046
   51. BD ( 1) C  9-Br 10      79. BD*( 1) C 11- C 12      0.96    1.37   0.046
   51. BD ( 1) C  9-Br 10     115. RY ( 1) C  8            1.11    1.98   0.059
   51. BD ( 1) C  9-Br 10     132. RY ( 1) C 11            1.12    1.99   0.060
   52. BD ( 1) C  9- C 11      61. BD*( 1) C  3- C 12      1.79    1.18   0.058
   52. BD ( 1) C  9- C 11      74. BD*( 1) C  8- C  9      2.26    1.37   0.070
   52. BD ( 1) C  9- C 11      76. BD*( 1) C  8- H 19      0.93    1.26   0.043
   52. BD ( 1) C  9- C 11      79. BD*( 1) C 11- C 12      1.98    1.42   0.067
   52. BD ( 1) C  9- C 11      81. BD*( 1) C 11- H 20      1.27    1.27   0.051
   52. BD ( 1) C  9- C 11     115. RY ( 1) C  8            0.67    2.03   0.047
   52. BD ( 1) C  9- C 11     116. RY ( 2) C  8            0.33    1.75   0.030
   52. BD ( 1) C  9- C 11     137. RY ( 2) C 12            1.42    2.01   0.067
   53. BD ( 1) C 11- C 12      61. BD*( 1) C  3- C 12      1.47    1.16   0.052
   53. BD ( 1) C 11- C 12      66. BD*( 1) C  5- C  6      0.75    1.17   0.038
   53. BD ( 1) C 11- C 12      71. BD*( 1) C  6- C 12      2.80    1.36   0.078
   53. BD ( 1) C 11- C 12      77. BD*( 1) C  9-Br 10      2.25    0.84   0.055
   53. BD ( 1) C 11- C 12      78. BD*( 1) C  9- C 11      2.07    1.35   0.067
   53. BD ( 1) C 11- C 12      81. BD*( 1) C 11- H 20      1.27    1.25   0.050
   53. BD ( 1) C 11- C 12      95. RY ( 1) C  3            0.48    1.71   0.036
   53. BD ( 1) C 11- C 12     107. RY ( 1) C  6            0.93    2.17   0.057
   53. BD ( 1) C 11- C 12     119. RY ( 1) C  9            1.04    1.77   0.054
   53. BD ( 1) C 11- C 12     120. RY ( 2) C  9            0.35    2.03   0.034
   54. BD ( 2) C 11- C 12      57. BD*( 2) N  1- C  2      0.86    0.43   0.024
   54. BD ( 2) C 11- C 12      58. BD*( 3) N  1- C  2      0.67    0.43   0.021
   54. BD ( 2) C 11- C 12      59. BD*( 1) C  2- C  3      2.05    0.82   0.052
   54. BD ( 2) C 11- C 12      62. BD*( 1) C  3- H 13      0.87    0.77   0.033
   54. BD ( 2) C 11- C 12      70. BD*( 2) C  6- C  7     18.13    0.38   0.105
   54. BD ( 2) C 11- C 12      75. BD*( 2) C  8- C  9     17.71    0.35   0.099
   54. BD ( 2) C 11- C 12     109. RY ( 3) C  6            0.34    1.27   0.026
   55. BD ( 1) C 11- H 20      61. BD*( 1) C  3- C 12      0.28    1.05   0.021
   55. BD ( 1) C 11- H 20      71. BD*( 1) C  6- C 12      1.47    1.24   0.054
   55. BD ( 1) C 11- H 20      74. BD*( 1) C  8- C  9      1.17    1.24   0.048
   55. BD ( 1) C 11- H 20      77. BD*( 1) C  9-Br 10      0.41    0.72   0.022
   55. BD ( 1) C 11- H 20      78. BD*( 1) C  9- C 11      0.64    1.24   0.036
   55. BD ( 1) C 11- H 20      79. BD*( 1) C 11- C 12      0.86    1.29   0.042
   55. BD ( 1) C 11- H 20     120. RY ( 2) C  9            0.81    1.92   0.050
   55. BD ( 1) C 11- H 20     136. RY ( 1) C 12            0.67    2.03   0.046
   55. BD ( 1) C 11- H 20     137. RY ( 2) C 12            0.26    1.88   0.028


 NATURAL BOND ORBITALS (Summary):

                                                     Principal Delocalizations
           NBO                 Occupancy    Energy   (geminal,vicinal,remote)
 ===============================================================================
 Molecular unit  1  (C10H8NBr)
 ------ Lewis --------------------------------------
    1. CR ( 1) N  1             0.99995   -14.18538
    2. CR ( 1) C  2             0.99994   -10.11139
    3. CR ( 1) C  3             0.99987   -10.12852
    4. CR ( 1) C  4             0.99988   -10.11072  101(g)
    5. CR ( 1) C  5             0.99988   -10.09401
    6. CR ( 1) C  6             0.99996   -10.06391
    7. CR ( 1) C  7             0.99992   -10.01827
    8. CR ( 1) C  8             0.99993   -10.03893
    9. CR ( 1) C  9             0.99995   -10.10613
   10. CR ( 1)Br 10             1.00000   -20.68060
   11. CR ( 2)Br 10             1.00000  -450.84065
   12. CR ( 3)Br 10             1.00000   -79.62667
   13. CR ( 4)Br 10             1.00000    -6.93367
   14. CR ( 5)Br 10             0.99999   -55.59420
   15. CR ( 6)Br 10             1.00000    -6.92387
   16. CR ( 7)Br 10             1.00000   -55.59177
   17. CR ( 8)Br 10             1.00000    -6.92242
   18. CR ( 9)Br 10             1.00000   -55.59138
   19. CR (10)Br 10             0.99980    -2.61520
   20. CR (11)Br 10             0.99993    -2.61401
   21. CR (12)Br 10             0.99998    -2.60635
   22. CR (13)Br 10             0.99978    -2.61524  125(g)
   23. CR (14)Br 10             0.99991    -2.60860
   24. CR ( 1) C 11             0.99992   -10.02000
   25. CR ( 1) C 12             0.99994   -10.04798
   26. LP ( 1) N  1             0.98751    -0.34159  91(v),59(v),92(v)
   27. LP ( 1)Br 10             0.99877    -0.60333  120(v)
   28. LP ( 2)Br 10             0.99353    -0.21235  74(v),78(v),119(v)
   29. LP ( 3)Br 10             0.98261    -0.20995  75(v)
   30. BD ( 1) N  1- C  2       0.99767    -0.81920  59(g),95(v)
   31. BD ( 2) N  1- C  2       0.99539    -0.28105  62(v),61(v)
   32. BD ( 3) N  1- C  2       0.99469    -0.28232  60(v),61(v)
   33. BD ( 1) C  2- C  3       0.99000    -0.56050  82(v),56(g),80(v),61(g)
                                                     138(v),60(g),65(v),99(v)
                                                     62(g)
   34. BD ( 1) C  3- C  4       0.98230    -0.47285  58(v),56(v),79(v),61(g)
                                                     59(g),92(v),68(v),62(g)
                                                     66(v),63(g),137(v),93(v)
                                                     71(v),65(g),64(g)
   35. BD ( 1) C  3- C 12       0.97622    -0.45619  57(v),56(v),79(g),58(v)
                                                     59(g),71(g),69(v),62(g)
                                                     93(v),60(g),132(v),64(v)
                                                     107(v),78(v),63(v),92(v)
                                                     140(v),133(v),66(v),108(v)
   36. BD ( 1) C  3- H 13       0.98150    -0.42924  57(v),56(v),80(v),58(v)
                                                     63(v),61(g),71(v),94(v)
                                                     59(g),136(v),60(g),91(v)
   37. BD ( 1) C  4- C  5       0.99268    -0.47353  69(v),62(v),66(g),61(v)
                                                     60(g),64(g),65(g),108(v)
                                                     67(g),68(g),71(v),97(v)
   38. BD ( 1) C  4- H 14       0.99516    -0.43994  66(v),61(v),59(v),105(v)
   39. BD ( 1) C  4- H 15       0.99272    -0.43330  59(v),67(v),58(r),103(v)
   40. BD ( 1) C  5- C  6       0.98846    -0.46688  69(g),79(v),71(g),111(v)
                                                     64(v),72(v),60(v),68(g)
                                                     63(g),67(g),136(v),137(v)
                                                     61(v),143(v)
   41. BD ( 1) C  5- H 16       0.98970    -0.41632  70(v),65(v),66(g),109(v)
                                                     99(v)
   42. BD ( 1) C  5- H 17       0.99261    -0.42459  70(v),60(v),71(v),66(g)
                                                     109(v)
   43. BD ( 1) C  6- C  7       0.98569    -0.49387  71(g),72(g),66(g),116(v)
                                                     73(g),136(v),61(v),76(v)
                                                     103(v)
   44. BD ( 2) C  6- C  7       0.82381    -0.11045  75(v),80(v),67(v),68(v)
                                                     138(v),117(v)
   45. BD ( 1) C  6- C 12       0.98115    -0.48440  79(g),69(g),73(v),81(v)
                                                     61(g),133(v),66(g),112(v)
                                                     111(v),63(v),68(v),62(v)
                                                     60(v),103(v),96(v)
   46. BD ( 1) C  7- C  8       0.98347    -0.48325  77(v),69(g),74(g),66(v)
                                                     108(v),73(g),76(g),119(v)
                                                     120(v)
   47. BD ( 1) C  7- H 18       0.99108    -0.38140  71(v),74(v),69(g),107(v)
                                                     72(g),115(v),108(v)
   48. BD ( 1) C  8- C  9       0.98916    -0.52217  78(g),72(g),76(g),81(v)
                                                     112(v),73(v),132(v),111(v)
                                                     133(v)
   49. BD ( 2) C  8- C  9       0.85782    -0.13965  80(v),70(v),123(v),135(v)
                                                     114(v)
   50. BD ( 1) C  8- H 19       0.99110    -0.39334  69(v),78(v),120(v),111(v)
                                                     72(g),74(g),77(v)
   51. BD ( 1) C  9-Br 10       0.99438    -0.46321  132(v),115(v),72(v),79(v)
   52. BD ( 1) C  9- C 11       0.98766    -0.51296  74(g),79(g),61(v),137(v)
                                                     81(g),76(v),115(v),116(v)
   53. BD ( 1) C 11- C 12       0.98160    -0.49126  71(g),77(v),78(g),61(g)
                                                     81(g),119(v),107(v),66(v)
                                                     95(v),120(v)
   54. BD ( 2) C 11- C 12       0.80778    -0.09832  70(v),75(v),59(v),62(v)
                                                     57(r),58(r),109(v)
   55. BD ( 1) C 11- H 20       0.99013    -0.38022  71(v),74(v),79(g),120(v)
                                                     136(v),78(g),77(v),61(v)
                                                     137(v)
 ------ non-Lewis ----------------------------------
   56. BD*( 1) N  1- C  2       0.00530     1.16934
   57. BD*( 2) N  1- C  2       0.01743     0.32863
   58. BD*( 3) N  1- C  2       0.01610     0.32841
   59. BD*( 1) C  2- C  3       0.01481     0.71733
   60. BD*( 1) C  3- C  4       0.00982     0.57125
   61. BD*( 1) C  3- C 12       0.01453     0.66595
   62. BD*( 1) C  3- H 13       0.00938     0.67508
   63. BD*( 1) C  4- C  5       0.00545     0.58842
   64. BD*( 1) C  4- H 14       0.00417     0.66794
   65. BD*( 1) C  4- H 15       0.00435     0.66413
   66. BD*( 1) C  5- C  6       0.01057     0.67944
   67. BD*( 1) C  5- H 16       0.00783     0.67010
   68. BD*( 1) C  5- H 17       0.00579     0.67715
   69. BD*( 1) C  6- C  7       0.01143     0.90042
   70. BD*( 2) C  6- C  7       0.16609     0.28461
   71. BD*( 1) C  6- C 12       0.01383     0.86443
   72. BD*( 1) C  7- C  8       0.00837     0.88919
   73. BD*( 1) C  7- H 18       0.00631     0.75286
   74. BD*( 1) C  8- C  9       0.01100     0.86096
   75. BD*( 2) C  8- C  9       0.20374     0.24671
   76. BD*( 1) C  8- H 19       0.00594     0.75092
   77. BD*( 1) C  9-Br 10       0.01525     0.34382
   78. BD*( 1) C  9- C 11       0.01071     0.86330
   79. BD*( 1) C 11- C 12       0.01190     0.90827
   80. BD*( 2) C 11- C 12       0.14898     0.29801
   81. BD*( 1) C 11- H 20       0.00658     0.75480
   82. RY ( 1) N  1             0.00227     1.71350
   83. RY ( 2) N  1             0.00003     1.81707
   84. RY ( 3) N  1             0.00002     1.66661
   85. RY ( 4) N  1             0.00002     2.16258
   86. RY ( 5) N  1             0.00001     1.50712
   87. RY ( 6) N  1             0.00001     1.76340
   88. RY ( 7) N  1             0.00001     3.02667
   89. RY ( 8) N  1             0.00000     2.06918
   90. RY ( 9) N  1             0.00000     2.06629
   91. RY ( 1) C  2             0.00844     1.07461
   92. RY ( 2) C  2             0.00191     1.21485
   93. RY ( 3) C  2             0.00099     1.10767
   94. RY ( 4) C  2             0.00065     1.09473
   95. RY ( 1) C  3             0.00132     1.22345
   96. RY ( 2) C  3             0.00100     1.36515
   97. RY ( 3) C  3             0.00056     1.21728
   98. RY ( 4) C  3             0.00020     1.35048
   99. RY ( 1) C  4             0.00125     1.32982
  100. RY ( 2) C  4             0.00046     1.12519
  101. RY ( 3) C  4             0.00031     1.32137
  102. RY ( 4) C  4             0.00021     1.10550
  103. RY ( 1) C  5             0.00115     1.24660
  104. RY ( 2) C  5             0.00053     1.13960
  105. RY ( 3) C  5             0.00046     1.18756
  106. RY ( 4) C  5             0.00010     1.27591
  107. RY ( 1) C  6             0.00213     1.67674
  108. RY ( 2) C  6             0.00180     1.49044
  109. RY ( 3) C  6             0.00071     1.16929
  110. RY ( 4) C  6             0.00034     0.97690
  111. RY ( 1) C  7             0.00214     1.60059
  112. RY ( 2) C  7             0.00166     1.18772
  113. RY ( 3) C  7             0.00021     0.92059
  114. RY ( 4) C  7             0.00015     1.14504
  115. RY ( 1) C  8             0.00244     1.51212
  116. RY ( 2) C  8             0.00169     1.23741
  117. RY ( 3) C  8             0.00024     1.12807
  118. RY ( 4) C  8             0.00021     0.90423
  119. RY ( 1) C  9             0.00280     1.27585
  120. RY ( 2) C  9             0.00242     1.54153
  121. RY ( 3) C  9             0.00024     1.12873
  122. RY ( 4) C  9             0.00020     0.89783
  123. RY ( 1)Br 10             0.00148     0.83940
  124. RY ( 2)Br 10             0.00054     0.90266
  125. RY ( 3)Br 10             0.00030     1.18889
  126. RY ( 4)Br 10             0.00019     1.06487
  127. RY ( 5)Br 10             0.00005     1.07876
  128. RY ( 6)Br 10             0.00003     0.80005
  129. RY ( 7)Br 10             0.00002     0.82799
  130. RY ( 8)Br 10             0.00001     0.90933
  131. RY ( 9)Br 10             0.00000     0.85852
  132. RY ( 1) C 11             0.00237     1.52560
  133. RY ( 2) C 11             0.00180     1.21663
  134. RY ( 3) C 11             0.00029     0.90411
  135. RY ( 4) C 11             0.00017     1.14813
  136. RY ( 1) C 12             0.00216     1.64742
  137. RY ( 2) C 12             0.00192     1.49980
  138. RY ( 3) C 12             0.00076     1.24113
  139. RY ( 4) C 12             0.00048     1.02946
  140. RY ( 1) H 13             0.00076     0.73875
  141. RY ( 1) H 14             0.00070     0.73937
  142. RY ( 1) H 15             0.00089     0.73691
  143. RY ( 1) H 16             0.00091     0.75606
  144. RY ( 1) H 17             0.00072     0.74187
  145. RY ( 1) H 18             0.00043     0.79531
  146. RY ( 1) H 19             0.00062     0.78225
  147. RY ( 1) H 20             0.00058     0.80434
          -------------------------------
                 Total Lewis   54.19485  ( 98.5361%)
           Valence non-Lewis    0.74567  (  1.3558%)
           Rydberg non-Lewis    0.05947  (  0.1081%)
          -------------------------------
               Total unit  1   55.00000  (100.0000%)
              Charge unit  1    0.00000

 $CHOOSE
  ALPHA
   LONE 1 1 7 1 10 3 11 1 END
   BOND T 1 2 S 2 3 S 3 4 S 3 12 S 3 13 S 4 5 S 4 14 S 4 15 S 5 6 S 5 16 S 5 17
        S 6 7 D 6 12 S 7 8 S 7 18 D 8 9 S 8 19 S 9 10 S 9 11 S 11 12 S 11 20
        END
  END
  BETA
   LONE 1 1 10 3 END
   BOND T 1 2 S 2 3 S 3 4 S 3 12 S 3 13 S 4 5 S 4 14 S 4 15 S 5 6 S 5 16 S 5 17
        D 6 7 S 6 12 S 7 8 S 7 18 D 8 9 S 8 19 S 9 10 S 9 11 D 11 12 S 11 20
        END
  END
 $END

 NBO analysis completed in 0.76 CPU seconds (1 wall second)
 Maximum scratch memory used by NBO was 640950 words (4.89 MB)
 Maximum scratch memory used by G16NBO was 52370 words (0.40 MB)

 Opening RunExU unformatted file "/home/rpaton/arbr500/xtb/fukui/Gau-2145598.EUF"
 Read unf file /home/rpaton/arbr500/xtb/fukui/Gau-2145598.EUF:
 Label Gaussian matrix elements                                         IVers= 2 NLab= 2 Version=ES64L-G16RevC.01
 Title energy: -32.469090060500 gnorm: 0.000424945565 xtb: 6.7.0 (08769
 NAtoms=    20 NBasis=   147 NBsUse=   147 ICharg=    -1 Multip=     2 NE=   111 Len12L=8 Len4L=8 IOpCl= 1 ICGU=112
 GAUSSIAN SCALARS                    NI= 1 NR= 1 NTot=       1 LenBuf=    2 NRI=1 N=    1000
 NPA CHARGES                         NI= 0 NR= 1 NTot=      20 LenBuf= 2048 NRI=1 N=      20
 Recovered energy= -2999.91180139     dipole=      0.316702212104      0.471704221784      0.967315368142
 Unable to Open any file for archive entry.
 1\1\GINC-DYNAMO\SP\UwB97XD\MIDIx\C10H8Br1N1(1-,2)\RPATON\28-Sep-2024\0
 \\# wb97xd midix pop(nbo6,hirshfeld)\\energy: -32.469090060500 gnorm: 
 0.000424945565 xtb: 6.7.0 (08769fc)\\-1,2\N,0,-3.07938,-2.31462,-1.170
 37\C,0,-2.77038,-1.61756,-0.31936\C,0,-2.37976,-0.71122,0.73706\C,0,-3
 .36403,0.47612,0.83781\C,0,-2.78417,1.55749,-0.08723\C,0,-1.31851,1.24
 183,-0.12189\C,0,-0.26758,2.02836,-0.55083\C,0,1.02168,1.51821,-0.5023
 5\C,0,1.23573,0.23336,-0.03289\Br,0,3.015,-0.44763,0.03086\C,0,0.19201
 ,-0.57471,0.39677\C,0,-1.0806,-0.04672,0.35001\H,0,-2.30765,-1.28005,1
 .66891\H,0,-4.37759,0.18958,0.56017\H,0,-3.37633,0.83589,1.86776\H,0,-
 3.19874,1.46947,-1.09545\H,0,-2.98828,2.56528,0.27364\H,0,-0.4391,3.02
 876,-0.91769\H,0,1.85771,2.11757,-0.82779\H,0,0.37815,-1.57614,0.75384
 \\Version=ES64L-G16RevC.01\State=2-A\HF=-2999.9118014\S2=0.761366\S2-1
 =0.\S2A=0.750066\RMSD=4.733e-09\Dipole=0.3347464,0.472708,0.9607269\Qu
 adrupole=-6.3447173,0.2409735,6.1037439,-6.8524172,-5.5252287,-4.37961
 61\PG=C01 [X(C10H8Br1N1)]\\@
 The archive entry for this job was punched.


 When I told the people of Northern Ireland that I was
 an atheist, a woman in the audience stood up and said,
 "Yes, but is it the God of the Catholics or the God
 of the Protestants in whom you don't believe?"
                               -- Quentin Crisp
 Job cpu time:       0 days  0 hours 12 minutes 24.7 seconds.
 Elapsed time:       0 days  0 hours  0 minutes 31.3 seconds.
 File lengths (MBytes):  RWF=     26 Int=      0 D2E=      0 Chk=      3 Scr=      1
 Normal termination of Gaussian 16 at Sat Sep 28 19:25:16 2024.
