 Entering Gaussian System, Link 0=/usr/local/Gaussian/G16C/g16/g16
 Input=arbr42_xtbopt_red.com
 Output=arbr42_xtbopt_red.log
 Initial command:
 /usr/local/Gaussian/G16C/g16/l1.exe "/home/rpaton/arbr500/xtb/fukui/Gau-2147204.inp" -scrdir="/home/rpaton/arbr500/xtb/fukui/"
 Entering Link 1 = /usr/local/Gaussian/G16C/g16/l1.exe PID=   2147205.
  
 Copyright (c) 1988-2019, Gaussian, Inc.  All Rights Reserved.
  
 This is part of the Gaussian(R) 16 program.  It is based on
 the Gaussian(R) 09 system (copyright 2009, Gaussian, Inc.),
 the Gaussian(R) 03 system (copyright 2003, Gaussian, Inc.),
 the Gaussian(R) 98 system (copyright 1998, Gaussian, Inc.),
 the Gaussian(R) 94 system (copyright 1995, Gaussian, Inc.),
 the Gaussian 92(TM) system (copyright 1992, Gaussian, Inc.),
 the Gaussian 90(TM) system (copyright 1990, Gaussian, Inc.),
 the Gaussian 88(TM) system (copyright 1988, Gaussian, Inc.),
 the Gaussian 86(TM) system (copyright 1986, Carnegie Mellon
 University), and the Gaussian 82(TM) system (copyright 1983,
 Carnegie Mellon University). Gaussian is a federally registered
 trademark of Gaussian, Inc.
  
 This software contains proprietary and confidential information,
 including trade secrets, belonging to Gaussian, Inc.
  
 This software is provided under written license and may be
 used, copied, transmitted, or stored only in accord with that
 written license.
  
 The following legend is applicable only to US Government
 contracts under FAR:
  
                    RESTRICTED RIGHTS LEGEND
  
 Use, reproduction and disclosure by the US Government is
 subject to restrictions as set forth in subparagraphs (a)
 and (c) of the Commercial Computer Software - Restricted
 Rights clause in FAR 52.227-19.
  
 Gaussian, Inc.
 340 Quinnipiac St., Bldg. 40, Wallingford CT 06492
  
  
 ---------------------------------------------------------------
 Warning -- This program may not be used in any manner that
 competes with the business of Gaussian, Inc. or will provide
 assistance to any competitor of Gaussian, Inc.  The licensee
 of this program is prohibited from giving any competitor of
 Gaussian, Inc. access to this program.  By using this program,
 the user acknowledges that Gaussian, Inc. is engaged in the
 business of creating and licensing software in the field of
 computational chemistry and represents and warrants to the
 licensee that it is not a competitor of Gaussian, Inc. and that
 it will not use this program in any manner prohibited above.
 ---------------------------------------------------------------
  

 Cite this work as:
 Gaussian 16, Revision C.01,
 M. J. Frisch, G. W. Trucks, H. B. Schlegel, G. E. Scuseria, 
 M. A. Robb, J. R. Cheeseman, G. Scalmani, V. Barone, 
 G. A. Petersson, H. Nakatsuji, X. Li, M. Caricato, A. V. Marenich, 
 J. Bloino, B. G. Janesko, R. Gomperts, B. Mennucci, H. P. Hratchian, 
 J. V. Ortiz, A. F. Izmaylov, J. L. Sonnenberg, D. Williams-Young, 
 F. Ding, F. Lipparini, F. Egidi, J. Goings, B. Peng, A. Petrone, 
 T. Henderson, D. Ranasinghe, V. G. Zakrzewski, J. Gao, N. Rega, 
 G. Zheng, W. Liang, M. Hada, M. Ehara, K. Toyota, R. Fukuda, 
 J. Hasegawa, M. Ishida, T. Nakajima, Y. Honda, O. Kitao, H. Nakai, 
 T. Vreven, K. Throssell, J. A. Montgomery, Jr., J. E. Peralta, 
 F. Ogliaro, M. J. Bearpark, J. J. Heyd, E. N. Brothers, K. N. Kudin, 
 V. N. Staroverov, T. A. Keith, R. Kobayashi, J. Normand, 
 K. Raghavachari, A. P. Rendell, J. C. Burant, S. S. Iyengar, 
 J. Tomasi, M. Cossi, J. M. Millam, M. Klene, C. Adamo, R. Cammi, 
 J. W. Ochterski, R. L. Martin, K. Morokuma, O. Farkas, 
 J. B. Foresman, and D. J. Fox, Gaussian, Inc., Wallingford CT, 2019.
 
 ******************************************
 Gaussian 16:  ES64L-G16RevC.01  3-Jul-2019
                28-Sep-2024 
 ******************************************
 %nprocshared=24
 Will use up to   24 processors via shared memory.
 ----------------------------------
 # wb97xd midix pop(nbo6,hirshfeld)
 ----------------------------------
 1/38=1,172=1/1;
 2/12=2,17=6,18=5,40=1/2;
 3/5=20,11=2,25=1,30=1,74=-58/1,2,3;
 4//1;
 5/5=2,38=5/2;
 6/7=2,8=2,9=2,10=2,28=1,40=1,79=1,113=1,114=1,124=3103,126=1/1,12;
 99/5=1,9=1/99;
 -------------------------------------------------------------------
 energy: -44.567785349378 gnorm: 0.000473625240 xtb: 6.7.0 (08769fc)
 -------------------------------------------------------------------
 Symbolic Z-matrix:
 Charge = -1 Multiplicity = 2
 Br                   -3.39367  -0.60336  -0.04621 
 C                    -1.76131   0.37734  -0.02985 
 C                    -1.79339   1.75393   0.10409 
 C                    -0.59771   2.44498   0.11267 
 C                     0.6248    1.79091  -0.0038 
 C                     0.63224   0.40349  -0.13462 
 C                    -0.56466  -0.30035  -0.14609 
 C                     1.92928  -0.38605  -0.1951 
 C                     3.10324   0.50838  -0.61011 
 C                     3.11929   1.74705   0.2733 
 C                     1.89151   2.59764  -0.02493 
 O                     1.77654  -1.48125  -1.07777 
 C                     2.32221  -2.62242  -0.45567 
 C                     2.11245  -2.33071   1.03161 
 O                     2.20545  -0.92663   1.09922 
 H                    -2.73428   2.27386   0.19918 
 H                    -0.61116   3.52057   0.21283 
 H                    -0.55261  -1.37277  -0.26252 
 H                     4.02775  -0.06036  -0.50203 
 H                     2.97486   0.77618  -1.66024 
 H                     4.02729   2.32613   0.09935 
 H                     3.10551   1.42691   1.31636 
 H                     1.81314   3.41916   0.69027 
 H                     1.99339   3.04166  -1.02137 
 H                     1.78497  -3.49926  -0.81642 
 H                     3.39066  -2.71702  -0.69269 
 H                     2.88049  -2.76046   1.67596 
 H                     1.12062  -2.66291   1.36719 
 
                          Input orientation:                          
 ---------------------------------------------------------------------
 Center     Atomic      Atomic             Coordinates (Angstroms)
 Number     Number       Type             X           Y           Z
 ---------------------------------------------------------------------
      1         35           0       -3.393670   -0.603360   -0.046210
      2          6           0       -1.761310    0.377340   -0.029850
      3          6           0       -1.793390    1.753930    0.104090
      4          6           0       -0.597710    2.444980    0.112670
      5          6           0        0.624800    1.790910   -0.003800
      6          6           0        0.632240    0.403490   -0.134620
      7          6           0       -0.564660   -0.300350   -0.146090
      8          6           0        1.929280   -0.386050   -0.195100
      9          6           0        3.103240    0.508380   -0.610110
     10          6           0        3.119290    1.747050    0.273300
     11          6           0        1.891510    2.597640   -0.024930
     12          8           0        1.776540   -1.481250   -1.077770
     13          6           0        2.322210   -2.622420   -0.455670
     14          6           0        2.112450   -2.330710    1.031610
     15          8           0        2.205450   -0.926630    1.099220
     16          1           0       -2.734280    2.273860    0.199180
     17          1           0       -0.611160    3.520570    0.212830
     18          1           0       -0.552610   -1.372770   -0.262520
     19          1           0        4.027750   -0.060360   -0.502030
     20          1           0        2.974860    0.776180   -1.660240
     21          1           0        4.027290    2.326130    0.099350
     22          1           0        3.105510    1.426910    1.316360
     23          1           0        1.813140    3.419160    0.690270
     24          1           0        1.993390    3.041660   -1.021370
     25          1           0        1.784970   -3.499260   -0.816420
     26          1           0        3.390660   -2.717020   -0.692690
     27          1           0        2.880490   -2.760460    1.675960
     28          1           0        1.120620   -2.662910    1.367190
 ---------------------------------------------------------------------
                    Distance matrix (angstroms):
                    1          2          3          4          5
     1  Br   0.000000
     2  C    1.904374   0.000000
     3  C    2.853122   1.383463   0.000000
     4  C    4.139446   2.376849   1.381041   0.000000
     5  C    4.677866   2.773514   2.420878   1.391368   0.000000
     6  C    4.150845   2.395985   2.786459   2.396166   1.393594
     7  C    2.846944   1.380126   2.406748   2.757696   2.410068
     8  C    5.329464   3.772337   4.304335   3.807247   2.545077
     9  C    6.615421   4.900788   5.102790   4.239087   2.855724
    10  C    6.931462   5.078214   4.915598   3.785366   2.510217
    11  C    6.178995   4.274675   3.782457   2.497690   1.501937
    12  O    5.344706   4.131450   4.960603   4.740200   3.631384
    13  C    6.075816   5.084783   6.033567   5.876009   4.750039
    14  C    5.870502   4.844197   5.727143   5.567462   4.502547
    15  O    5.724217   4.325543   4.915934   4.494301   3.331686
    16  H    2.961994   2.143808   1.079186   2.145157   3.399685
    17  H    4.981592   3.355836   2.128499   1.080327   2.136878
    18  H    2.951339   2.139621   3.383813   3.836407   3.385573
    19  H    7.455206   5.824753   6.127373   5.296175   3.905829
    20  H    6.713151   5.024794   5.177361   4.323351   3.048976
    21  H    7.979583   6.109203   5.848739   4.626546   3.445873
    22  H    6.943913   5.157501   5.057248   4.024820   2.833591
    23  H    6.620721   4.748467   4.015427   2.663615   2.131920
    24  H    6.577045   4.709510   4.155071   2.890653   2.114914
    25  H    5.983124   5.312516   6.422461   6.471040   5.476518
    26  H    7.135309   6.046256   6.891925   6.572819   5.333478
    27  H    6.854490   5.856781   6.685480   6.452779   5.350206
    28  H    5.159289   4.415921   5.440161   5.533265   4.686359
                    6          7          8          9         10
     6  C    0.000000
     7  C    1.388557   0.000000
     8  C    1.519653   2.495893   0.000000
     9  C    2.518518   3.784554   1.533108   0.000000
    10  C    2.856041   4.235472   2.487094   1.521504   0.000000
    11  C    2.532210   3.800763   2.988777   2.485102   1.523118
    12  O    2.398166   2.782763   1.414885   2.436692   3.748371
    13  C    3.480690   3.717777   2.285529   3.230444   4.501000
    14  C    3.320687   3.560373   2.306528   3.425980   4.268125
    15  O    2.401368   3.101054   1.429602   2.405637   2.943775
    16  H    3.865639   3.384231   5.383249   6.152114   5.877695
    17  H    3.373863   3.838022   4.677812   4.852555   4.131015
    18  H    2.139002   1.078789   2.671692   4.126110   4.848013
    19  H    3.446685   4.612431   2.145660   1.090809   2.166372
    20  H    2.820334   3.997470   2.142581   1.091316   2.168415
    21  H    3.908664   5.295719   3.441550   2.159031   1.090897
    22  H    3.044634   4.311883   2.637205   2.134242   1.091171
    23  H    3.342040   4.493126   3.908579   3.439184   2.162370
    24  H    3.098225   4.298693   3.526475   2.796142   2.149380
    25  H    4.126148   4.025311   3.177883   4.223929   5.521926
    26  H    4.202131   4.667293   2.795827   3.239234   4.575445
    27  H    4.282920   4.608803   3.169146   3.995128   4.726746
    28  H    3.449168   3.272900   2.877286   4.230553   4.963771
                   11         12         13         14         15
    11  C    0.000000
    12  O    4.214147   0.000000
    13  C    5.255480   1.409622   0.000000
    14  C    5.045168   2.298674   1.530064   0.000000
    15  O    3.712513   2.287106   2.303697   1.408780   0.000000
    16  H    4.642520   6.006576   7.068980   6.736898   5.954338
    17  H    2.678001   5.690779   6.840167   6.505838   5.338218
    18  H    4.668439   2.470089   3.140624   3.113674   3.108098
    19  H    3.443270   2.723665   3.078176   3.342890   2.575889
    20  H    2.676864   2.621304   3.664345   4.200306   3.332593
    21  H    2.156553   4.576858   5.263411   5.120730   3.859960
    22  H    2.154870   3.994423   4.488956   3.897045   2.529112
    23  H    1.092038   5.209734   6.170334   5.767764   4.382583
    24  H    1.095640   4.528457   5.701749   5.752500   4.504353
    25  H    6.148983   2.034881   1.089778   2.210875   3.234951
    26  H    5.562281   2.069009   1.098505   2.180887   2.796634
    27  H    5.707919   3.230807   2.207845   1.090760   2.037459
    28  H    5.495967   2.793632   2.183638   1.098498   2.064784
                   16         17         18         19         20
    16  H    0.000000
    17  H    2.462135   0.000000
    18  H    4.274431   4.916723   0.000000
    19  H    7.187860   5.903691   4.770690   0.000000
    20  H    6.188277   4.888722   4.360579   1.774775   0.000000
    21  H    6.762509   4.791115   5.898160   2.461096   2.570236
    22  H    6.005711   4.406226   4.869591   2.523696   3.049699
    23  H    4.715073   2.472946   5.428368   4.293383   3.722880
    24  H    4.942684   2.921692   5.152200   3.745779   2.550262
    25  H    7.401620   7.488578   3.208278   4.117637   4.517439
    26  H    7.951051   7.466060   4.188249   2.738627   3.648491
    27  H    7.684458   7.333738   4.179661   3.653818   4.862814
    28  H    6.371515   6.524342   2.668354   4.326506   4.942760
                   21         22         23         24         25
    21  H    0.000000
    22  H    1.771832   0.000000
    23  H    2.538969   2.455864   0.000000
    24  H    2.429968   3.051100   1.762018   0.000000
    25  H    6.308867   5.528085   7.080639   6.547448   0.000000
    26  H    5.144510   4.614082   6.484894   5.934879   1.790377
    27  H    5.447407   4.208802   6.348112   6.459654   2.820983
    28  H    5.911571   4.546317   6.158683   6.245724   2.430842
                   26         27         28
    26  H    0.000000
    27  H    2.423358   0.000000
    28  H    3.065798   1.789413   0.000000
 Stoichiometry    C12H13BrO2(1-,2)
 Framework group  C1[X(C12H13BrO2)]
 Deg. of freedom    78
 Full point group                 C1      NOp   1
 Largest Abelian subgroup         C1      NOp   1
 Largest concise Abelian subgroup C1      NOp   1
                         Standard orientation:                         
 ---------------------------------------------------------------------
 Center     Atomic      Atomic             Coordinates (Angstroms)
 Number     Number       Type             X           Y           Z
 ---------------------------------------------------------------------
      1         35           0       -3.419817   -0.548321   -0.014354
      2          6           0       -1.773366    0.408657   -0.008799
      3          6           0       -1.784656    1.785588    0.125002
      4          6           0       -0.579072    2.459264    0.125675
      5          6           0        0.633067    1.787554    0.001463
      6          6           0        0.619584    0.400151   -0.129056
      7          6           0       -0.587424   -0.286297   -0.132608
      8          6           0        1.904645   -0.408085   -0.197728
      9          6           0        3.088714    0.469198   -0.620546
     10          6           0        3.128402    1.707644    0.262432
     11          6           0        1.911154    2.575865   -0.028062
     12          8           0        1.730365   -1.501098   -1.079118
     13          6           0        2.263480   -2.649948   -0.460276
     14          6           0        2.067592   -2.355001    1.028257
     15          8           0        2.181335   -0.952403    1.094914
     16          1           0       -2.717289    2.319094    0.226047
     17          1           0       -0.576308    3.534952    0.225652
     18          1           0       -0.591647   -1.358797   -0.248845
     19          1           0        4.005578   -0.112844   -0.518307
     20          1           0        2.957429    0.738664   -1.669891
     21          1           0        4.043541    2.273496    0.082467
     22          1           0        3.116742    1.387899    1.305639
     23          1           0        1.849310    3.398545    0.687425
     24          1           0        2.012998    3.018209   -1.025251
     25          1           0        1.711285   -3.518978   -0.817324
     26          1           0        3.328893   -2.760037   -0.704179
     27          1           0        2.833488   -2.795720    1.667733
     28          1           0        1.073252   -2.672761    1.370329
 ---------------------------------------------------------------------
 Rotational constants (GHZ):           0.7732849           0.2930148           0.2262166
 Standard basis: MIDIx (5D, 7F)
 There are   193 symmetry adapted cartesian basis functions of A   symmetry.
 There are   189 symmetry adapted basis functions of A   symmetry.
   189 basis functions,   324 primitive gaussians,   193 cartesian basis functions
    69 alpha electrons       68 beta electrons
       nuclear repulsion energy      1336.1224202725 Hartrees.
 NAtoms=   28 NActive=   28 NUniq=   28 SFac= 1.00D+00 NAtFMM=   60 NAOKFM=F Big=F
 Integral buffers will be    131072 words long.
 Raffenetti 2 integral format.
 Two-electron integral symmetry is turned on.
 Nuclear repulsion after empirical dispersion term =     1336.1006557531 Hartrees.
 One-electron integrals computed using PRISM.
 NBasis=   189 RedAO= T EigKep=  1.10D-03  NBF=   189
 NBsUse=   189 1.00D-06 EigRej= -1.00D+00 NBFU=   189
 ExpMin= 1.47D-01 ExpMax= 6.10D+03 ExpMxC= 6.10D+03 IAcc=3 IRadAn=         5 AccDes= 0.00D+00
 Harris functional with IExCor= 4639 and IRadAn=       5 diagonalized for initial guess.
 HarFok:  IExCor= 4639 AccDes= 0.00D+00 IRadAn=         5 IDoV= 1 UseB2=F ITyADJ=14
 ICtDFT=  3500011 ScaDFX=  1.000000  1.000000  1.000000  1.000000
 FoFCou: FMM=F IPFlag=           0 FMFlag=      100000 FMFlg1=           0
         NFxFlg=           0 DoJE=T BraDBF=F KetDBF=T FulRan=T
         wScrn=  0.000000 ICntrl=       500 IOpCl=  0 I1Cent=   200000004 NGrid=           0
         NMat0=    1 NMatS0=      1 NMatT0=    0 NMatD0=    1 NMtDS0=    0 NMtDT0=    0
 Petite list used in FoFCou.
 Initial guess <Sx>= 0.0000 <Sy>= 0.0000 <Sz>= 0.5000 <S**2>= 0.7500 S= 0.5000
 Requested convergence on RMS density matrix=1.00D-08 within 128 cycles.
 Requested convergence on MAX density matrix=1.00D-06.
 Requested convergence on             energy=1.00D-06.
 No special actions if energy rises.
 Integral accuracy reduced to 1.0D-05 until final iterations.
 Rare condition: small coef for last iteration:  0.000D+00
 Initial convergence to 2.5D-05 achieved.  Increase integral accuracy.
 SCF Done:  E(UwB97XD) =  -3173.77842819     A.U. after   40 cycles
            NFock= 40  Conv=0.87D-08     -V/T= 2.0027
 <Sx>= 0.0000 <Sy>= 0.0000 <Sz>= 0.5000 <S**2>= 0.7614 S= 0.5057
 <L.S>= 0.000000000000E+00
 Annihilation of the first spin contaminant:
 S**2 before annihilation     0.7614,   after     0.7501

 **********************************************************************

            Population analysis using the SCF Density.

 **********************************************************************

 Orbital symmetries:
 Alpha Orbitals:
       Occupied  (A) (A) (A) (A) (A) (A) (A) (A) (A) (A) (A) (A)
                 (A) (A) (A) (A) (A) (A) (A) (A) (A) (A) (A) (A)
                 (A) (A) (A) (A) (A) (A) (A) (A) (A) (A) (A) (A)
                 (A) (A) (A) (A) (A) (A) (A) (A) (A) (A) (A) (A)
                 (A) (A) (A) (A) (A) (A) (A) (A) (A) (A) (A) (A)
                 (A) (A) (A) (A) (A) (A) (A) (A) (A)
       Virtual   (A) (A) (A) (A) (A) (A) (A) (A) (A) (A) (A) (A)
                 (A) (A) (A) (A) (A) (A) (A) (A) (A) (A) (A) (A)
                 (A) (A) (A) (A) (A) (A) (A) (A) (A) (A) (A) (A)
                 (A) (A) (A) (A) (A) (A) (A) (A) (A) (A) (A) (A)
                 (A) (A) (A) (A) (A) (A) (A) (A) (A) (A) (A) (A)
                 (A) (A) (A) (A) (A) (A) (A) (A) (A) (A) (A) (A)
                 (A) (A) (A) (A) (A) (A) (A) (A) (A) (A) (A) (A)
                 (A) (A) (A) (A) (A) (A) (A) (A) (A) (A) (A) (A)
                 (A) (A) (A) (A) (A) (A) (A) (A) (A) (A) (A) (A)
                 (A) (A) (A) (A) (A) (A) (A) (A) (A) (A) (A) (A)
 Beta  Orbitals:
       Occupied  (A) (A) (A) (A) (A) (A) (A) (A) (A) (A) (A) (A)
                 (A) (A) (A) (A) (A) (A) (A) (A) (A) (A) (A) (A)
                 (A) (A) (A) (A) (A) (A) (A) (A) (A) (A) (A) (A)
                 (A) (A) (A) (A) (A) (A) (A) (A) (A) (A) (A) (A)
                 (A) (A) (A) (A) (A) (A) (A) (A) (A) (A) (A) (A)
                 (A) (A) (A) (A) (A) (A) (A) (A)
       Virtual   (A) (A) (A) (A) (A) (A) (A) (A) (A) (A) (A) (A)
                 (A) (A) (A) (A) (A) (A) (A) (A) (A) (A) (A) (A)
                 (A) (A) (A) (A) (A) (A) (A) (A) (A) (A) (A) (A)
                 (A) (A) (A) (A) (A) (A) (A) (A) (A) (A) (A) (A)
                 (A) (A) (A) (A) (A) (A) (A) (A) (A) (A) (A) (A)
                 (A) (A) (A) (A) (A) (A) (A) (A) (A) (A) (A) (A)
                 (A) (A) (A) (A) (A) (A) (A) (A) (A) (A) (A) (A)
                 (A) (A) (A) (A) (A) (A) (A) (A) (A) (A) (A) (A)
                 (A) (A) (A) (A) (A) (A) (A) (A) (A) (A) (A) (A)
                 (A) (A) (A) (A) (A) (A) (A) (A) (A) (A) (A) (A)
                 (A)
 The electronic state is 2-A.
 Alpha  occ. eigenvalues -- -479.98309 -62.41714 -56.00574 -56.00208 -56.00188
 Alpha  occ. eigenvalues --  -19.01979 -19.00706 -10.17841 -10.16204 -10.15688
 Alpha  occ. eigenvalues --  -10.09535 -10.09362 -10.08808 -10.08483 -10.05464
 Alpha  occ. eigenvalues --  -10.02824 -10.02586 -10.01811 -10.01499  -8.72547
 Alpha  occ. eigenvalues --   -6.50901  -6.49667  -6.49664  -2.61235  -2.60795
 Alpha  occ. eigenvalues --   -2.60766  -2.59760  -2.59755  -1.05691  -0.95821
 Alpha  occ. eigenvalues --   -0.80931  -0.77733  -0.74381  -0.72490  -0.67526
 Alpha  occ. eigenvalues --   -0.66390  -0.63363  -0.60295  -0.56058  -0.55348
 Alpha  occ. eigenvalues --   -0.51760  -0.48526  -0.47056  -0.45794  -0.42221
 Alpha  occ. eigenvalues --   -0.41961  -0.40411  -0.39030  -0.37532  -0.36348
 Alpha  occ. eigenvalues --   -0.35330  -0.34567  -0.33179  -0.32144  -0.30333
 Alpha  occ. eigenvalues --   -0.30166  -0.29224  -0.28298  -0.28075  -0.26938
 Alpha  occ. eigenvalues --   -0.24370  -0.23662  -0.22001  -0.20420  -0.20313
 Alpha  occ. eigenvalues --   -0.17274  -0.14857  -0.13351   0.06159
 Alpha virt. eigenvalues --    0.25416   0.26101   0.28293   0.30551   0.31976
 Alpha virt. eigenvalues --    0.33880   0.34722   0.35582   0.35842   0.36131
 Alpha virt. eigenvalues --    0.37410   0.38205   0.39892   0.40139   0.40514
 Alpha virt. eigenvalues --    0.42931   0.43307   0.44747   0.46017   0.48078
 Alpha virt. eigenvalues --    0.48744   0.50519   0.52569   0.53070   0.55762
 Alpha virt. eigenvalues --    0.56537   0.59297   0.60986   0.63080   0.66132
 Alpha virt. eigenvalues --    0.72988   0.75207   0.76916   0.77652   0.78093
 Alpha virt. eigenvalues --    0.80050   0.80512   0.81424   0.83133   0.84198
 Alpha virt. eigenvalues --    0.84614   0.85751   0.86381   0.87671   0.89547
 Alpha virt. eigenvalues --    0.90271   0.93114   0.93897   0.94281   0.96824
 Alpha virt. eigenvalues --    0.97747   0.98802   1.00411   1.02043   1.04074
 Alpha virt. eigenvalues --    1.04347   1.05044   1.06067   1.07596   1.07742
 Alpha virt. eigenvalues --    1.10532   1.11257   1.12780   1.13135   1.14091
 Alpha virt. eigenvalues --    1.14807   1.15005   1.15288   1.15764   1.17181
 Alpha virt. eigenvalues --    1.17965   1.18393   1.19699   1.20137   1.21070
 Alpha virt. eigenvalues --    1.21477   1.21796   1.22587   1.24080   1.24950
 Alpha virt. eigenvalues --    1.28058   1.29191   1.29500   1.32320   1.33437
 Alpha virt. eigenvalues --    1.33717   1.35841   1.40497   1.42696   1.50541
 Alpha virt. eigenvalues --    1.54558   1.55994   1.59910   1.60904   1.65120
 Alpha virt. eigenvalues --    1.69606   1.73956   1.76707   1.78218   1.82814
 Alpha virt. eigenvalues --    1.87330   1.90105   1.92456   1.97388   1.99511
 Alpha virt. eigenvalues --    2.02765   2.05845   2.10775   2.11803   2.18062
 Alpha virt. eigenvalues --    2.23542   2.26914   2.28687   2.30019   2.42092
 Alpha virt. eigenvalues --    2.56294   2.63467   2.65261   2.79278   2.88046
  Beta  occ. eigenvalues -- -479.98309 -62.41715 -56.00574 -56.00208 -56.00190
  Beta  occ. eigenvalues --  -19.01955 -19.00619 -10.17848 -10.16197 -10.15678
  Beta  occ. eigenvalues --  -10.09656 -10.09362 -10.08807 -10.08479 -10.05520
  Beta  occ. eigenvalues --  -10.02564 -10.02395 -10.01358 -10.01012  -8.72547
  Beta  occ. eigenvalues --   -6.50900  -6.49668  -6.49667  -2.61235  -2.60795
  Beta  occ. eigenvalues --   -2.60767  -2.59762  -2.59757  -1.05569  -0.95663
  Beta  occ. eigenvalues --   -0.80604  -0.77441  -0.74290  -0.72288  -0.67328
  Beta  occ. eigenvalues --   -0.65392  -0.63059  -0.60167  -0.55833  -0.54873
  Beta  occ. eigenvalues --   -0.51200  -0.48335  -0.46896  -0.45666  -0.42029
  Beta  occ. eigenvalues --   -0.41806  -0.40226  -0.38917  -0.37434  -0.36091
  Beta  occ. eigenvalues --   -0.35116  -0.34341  -0.32951  -0.31809  -0.30223
  Beta  occ. eigenvalues --   -0.30069  -0.29073  -0.28166  -0.27263  -0.26808
  Beta  occ. eigenvalues --   -0.24166  -0.23426  -0.21461  -0.20272  -0.20054
  Beta  occ. eigenvalues --   -0.17022  -0.12116  -0.11051
  Beta virt. eigenvalues --    0.25609   0.26023   0.27386   0.28439   0.30612
  Beta virt. eigenvalues --    0.32138   0.34004   0.34804   0.35659   0.36040
  Beta virt. eigenvalues --    0.36960   0.37816   0.38456   0.40295   0.40421
  Beta virt. eigenvalues --    0.40706   0.43448   0.43594   0.45766   0.46318
  Beta virt. eigenvalues --    0.48280   0.49331   0.50672   0.52830   0.53176
  Beta virt. eigenvalues --    0.56541   0.56969   0.59588   0.61425   0.63595
  Beta virt. eigenvalues --    0.66560   0.73081   0.75606   0.77072   0.78141
  Beta virt. eigenvalues --    0.78376   0.80081   0.80477   0.81485   0.83253
  Beta virt. eigenvalues --    0.84289   0.84731   0.85856   0.86629   0.87624
  Beta virt. eigenvalues --    0.89585   0.90388   0.93289   0.94053   0.94507
  Beta virt. eigenvalues --    0.96870   0.97809   0.98909   1.00602   1.02171
  Beta virt. eigenvalues --    1.04476   1.04543   1.05348   1.06552   1.07727
  Beta virt. eigenvalues --    1.08103   1.10667   1.11479   1.12934   1.13607
  Beta virt. eigenvalues --    1.14664   1.14979   1.15370   1.15869   1.15921
  Beta virt. eigenvalues --    1.17574   1.18117   1.18815   1.19965   1.20600
  Beta virt. eigenvalues --    1.21483   1.21739   1.22349   1.22698   1.24595
  Beta virt. eigenvalues --    1.25218   1.28373   1.29542   1.29723   1.32535
  Beta virt. eigenvalues --    1.33676   1.33820   1.36099   1.40900   1.42959
  Beta virt. eigenvalues --    1.50670   1.54788   1.56118   1.60071   1.61104
  Beta virt. eigenvalues --    1.65221   1.69718   1.74065   1.76805   1.78414
  Beta virt. eigenvalues --    1.83080   1.87570   1.90251   1.92543   1.97479
  Beta virt. eigenvalues --    1.99705   2.02827   2.05952   2.10845   2.11862
  Beta virt. eigenvalues --    2.18163   2.23744   2.27038   2.28806   2.30082
  Beta virt. eigenvalues --    2.42324   2.56392   2.63573   2.65381   2.79342
  Beta virt. eigenvalues --    2.88123
          Condensed to atoms (all electrons):
               1          2          3          4          5          6
     1  Br  35.114575   0.182760  -0.036081   0.001943   0.000374   0.002251
     2  C    0.182760   5.063517   0.434941  -0.014582  -0.059114  -0.009588
     3  C   -0.036081   0.434941   5.198126   0.374723  -0.020647  -0.032449
     4  C    0.001943  -0.014582   0.374723   5.029172   0.532806  -0.032252
     5  C    0.000374  -0.059114  -0.020647   0.532806   5.079544   0.371125
     6  C    0.002251  -0.009588  -0.032449  -0.032252   0.371125   5.382796
     7  C   -0.041668   0.503526  -0.054290  -0.027005   0.012551   0.316135
     8  C   -0.000063   0.000718   0.000892  -0.000135   0.006499   0.371074
     9  C    0.000000   0.000140  -0.000061   0.000154  -0.008256  -0.106204
    10  C    0.000000  -0.000077   0.000003   0.001854  -0.065683  -0.001385
    11  C    0.000003   0.000814   0.000861  -0.022941   0.297437  -0.005991
    12  O   -0.000001   0.000752  -0.000017   0.000016   0.000659  -0.058047
    13  C   -0.000000  -0.000048   0.000001  -0.000001  -0.000074   0.010010
    14  C    0.000001   0.000034   0.000001  -0.000001   0.000033   0.002576
    15  O    0.000000   0.000082  -0.000023   0.000054  -0.004008  -0.057292
    16  H   -0.001652  -0.030818   0.405388  -0.024885   0.004024   0.000103
    17  H   -0.000091   0.004462  -0.030539   0.405868  -0.035460   0.003972
    18  H   -0.001111  -0.020011   0.002626   0.000344   0.003121  -0.026836
    19  H   -0.000000  -0.000002   0.000001  -0.000005  -0.000526   0.007721
    20  H   -0.000000  -0.000009   0.000007  -0.000190  -0.000095   0.002705
    21  H    0.000000   0.000001  -0.000001   0.000002   0.006355  -0.000783
    22  H   -0.000000  -0.000004  -0.000002  -0.000037   0.000235   0.001542
    23  H   -0.000000   0.000002   0.000074  -0.004659  -0.033859   0.003239
    24  H   -0.000000   0.000003   0.000051  -0.005638  -0.035816  -0.002352
    25  H    0.000000  -0.000014   0.000000  -0.000000   0.000007   0.000234
    26  H   -0.000000   0.000002  -0.000000  -0.000000   0.000010  -0.000810
    27  H   -0.000000   0.000001  -0.000000   0.000000  -0.000010  -0.000706
    28  H   -0.000013   0.000027   0.000001  -0.000004   0.000142   0.000888
               7          8          9         10         11         12
     1  Br  -0.041668  -0.000063   0.000000   0.000000   0.000003  -0.000001
     2  C    0.503526   0.000718   0.000140  -0.000077   0.000814   0.000752
     3  C   -0.054290   0.000892  -0.000061   0.000003   0.000861  -0.000017
     4  C   -0.027005  -0.000135   0.000154   0.001854  -0.022941   0.000016
     5  C    0.012551   0.006499  -0.008256  -0.065683   0.297437   0.000659
     6  C    0.316135   0.371074  -0.106204  -0.001385  -0.005991  -0.058047
     7  C    5.084048  -0.007779   0.001914   0.000240   0.000033  -0.003506
     8  C   -0.007779   4.569093   0.350298  -0.065634  -0.015195   0.189535
     9  C    0.001914   0.350298   5.397967   0.244453  -0.085321  -0.044583
    10  C    0.000240  -0.065634   0.244453   5.369590   0.282642   0.003421
    11  C    0.000033  -0.015195  -0.085321   0.282642   5.177923  -0.000171
    12  O   -0.003506   0.189535  -0.044583   0.003421  -0.000171   8.524420
    13  C    0.000075  -0.070255  -0.005204  -0.000078   0.000014   0.181877
    14  C   -0.001384  -0.051428   0.007772  -0.000086  -0.000040  -0.028542
    15  O    0.000458   0.129074  -0.061698  -0.004181   0.000003  -0.046420
    16  H    0.003397   0.000004   0.000000   0.000001  -0.000068   0.000000
    17  H    0.000140  -0.000087   0.000016   0.000249  -0.009417   0.000000
    18  H    0.386572  -0.008373   0.000720  -0.000044  -0.000106   0.015327
    19  H   -0.000038  -0.032701   0.362424  -0.037636   0.008057   0.000263
    20  H   -0.000090  -0.030230   0.360884  -0.029827  -0.004471   0.002606
    21  H   -0.000006   0.007633  -0.037352   0.387757  -0.040986  -0.000037
    22  H   -0.000138  -0.011349  -0.037918   0.373147  -0.029867   0.000112
    23  H   -0.000051  -0.000618   0.007784  -0.040764   0.391897  -0.000001
    24  H   -0.000036   0.000380  -0.005662  -0.036150   0.385756   0.000007
    25  H    0.000147   0.006814  -0.000552   0.000013   0.000000  -0.026528
    26  H    0.000002   0.000570   0.003861  -0.000287   0.000001  -0.031984
    27  H    0.000113   0.006239   0.000672  -0.000019   0.000002   0.002196
    28  H    0.001963  -0.000389  -0.000567  -0.000038   0.000003  -0.001045
              13         14         15         16         17         18
     1  Br  -0.000000   0.000001   0.000000  -0.001652  -0.000091  -0.001111
     2  C   -0.000048   0.000034   0.000082  -0.030818   0.004462  -0.020011
     3  C    0.000001   0.000001  -0.000023   0.405388  -0.030539   0.002626
     4  C   -0.000001  -0.000001   0.000054  -0.024885   0.405868   0.000344
     5  C   -0.000074   0.000033  -0.004008   0.004024  -0.035460   0.003121
     6  C    0.010010   0.002576  -0.057292   0.000103   0.003972  -0.026836
     7  C    0.000075  -0.001384   0.000458   0.003397   0.000140   0.386572
     8  C   -0.070255  -0.051428   0.129074   0.000004  -0.000087  -0.008373
     9  C   -0.005204   0.007772  -0.061698   0.000000   0.000016   0.000720
    10  C   -0.000078  -0.000086  -0.004181   0.000001   0.000249  -0.000044
    11  C    0.000014  -0.000040   0.000003  -0.000068  -0.009417  -0.000106
    12  O    0.181877  -0.028542  -0.046420   0.000000   0.000000   0.015327
    13  C    4.918568   0.346415  -0.026569  -0.000000  -0.000000  -0.001924
    14  C    0.346415   4.885061   0.177575   0.000000  -0.000000  -0.000199
    15  O   -0.026569   0.177575   8.602581  -0.000000   0.000001  -0.000347
    16  H   -0.000000   0.000000  -0.000000   0.541800  -0.006255  -0.000104
    17  H   -0.000000  -0.000000   0.000001  -0.006255   0.564981   0.000010
    18  H   -0.001924  -0.000199  -0.000347  -0.000104   0.000010   0.527037
    19  H    0.002078  -0.000410   0.005887   0.000000  -0.000000  -0.000025
    20  H    0.000461  -0.000243   0.003583  -0.000000  -0.000001  -0.000015
    21  H   -0.000003   0.000011  -0.000120  -0.000000  -0.000005   0.000000
    22  H    0.000083  -0.000293   0.014658   0.000000  -0.000007   0.000001
    23  H    0.000000  -0.000002   0.000040  -0.000009   0.004657   0.000002
    24  H   -0.000001   0.000001  -0.000014   0.000002   0.001120   0.000004
    25  H    0.380123  -0.030295   0.002019  -0.000000   0.000000  -0.000589
    26  H    0.364020  -0.047787  -0.001023   0.000000   0.000000   0.000243
    27  H   -0.034167   0.369065  -0.028617  -0.000000   0.000000   0.000068
    28  H   -0.044063   0.374968  -0.029651  -0.000000  -0.000000   0.001830
              19         20         21         22         23         24
     1  Br  -0.000000  -0.000000   0.000000  -0.000000  -0.000000  -0.000000
     2  C   -0.000002  -0.000009   0.000001  -0.000004   0.000002   0.000003
     3  C    0.000001   0.000007  -0.000001  -0.000002   0.000074   0.000051
     4  C   -0.000005  -0.000190   0.000002  -0.000037  -0.004659  -0.005638
     5  C   -0.000526  -0.000095   0.006355   0.000235  -0.033859  -0.035816
     6  C    0.007721   0.002705  -0.000783   0.001542   0.003239  -0.002352
     7  C   -0.000038  -0.000090  -0.000006  -0.000138  -0.000051  -0.000036
     8  C   -0.032701  -0.030230   0.007633  -0.011349  -0.000618   0.000380
     9  C    0.362424   0.360884  -0.037352  -0.037918   0.007784  -0.005662
    10  C   -0.037636  -0.029827   0.387757   0.373147  -0.040764  -0.036150
    11  C    0.008057  -0.004471  -0.040986  -0.029867   0.391897   0.385756
    12  O    0.000263   0.002606  -0.000037   0.000112  -0.000001   0.000007
    13  C    0.002078   0.000461  -0.000003   0.000083   0.000000  -0.000001
    14  C   -0.000410  -0.000243   0.000011  -0.000293  -0.000002   0.000001
    15  O    0.005887   0.003583  -0.000120   0.014658   0.000040  -0.000014
    16  H    0.000000  -0.000000  -0.000000   0.000000  -0.000009   0.000002
    17  H   -0.000000  -0.000001  -0.000005  -0.000007   0.004657   0.001120
    18  H   -0.000025  -0.000015   0.000000   0.000001   0.000002   0.000004
    19  H    0.575165  -0.022480  -0.004177  -0.000373  -0.000181  -0.000207
    20  H   -0.022480   0.539375  -0.003055   0.005065  -0.000042   0.005438
    21  H   -0.004177  -0.003055   0.575075  -0.027665  -0.001357  -0.004349
    22  H   -0.000373   0.005065  -0.027665   0.524730  -0.004324   0.004911
    23  H   -0.000181  -0.000042  -0.001357  -0.004324   0.552038  -0.029355
    24  H   -0.000207   0.005438  -0.004349   0.004911  -0.029355   0.560278
    25  H    0.000058   0.000008  -0.000000  -0.000002  -0.000000   0.000000
    26  H   -0.000396  -0.000066   0.000008   0.000016  -0.000000   0.000000
    27  H   -0.000381  -0.000017  -0.000000  -0.000085   0.000000  -0.000000
    28  H    0.000103   0.000029  -0.000000   0.000059  -0.000000   0.000000
              25         26         27         28
     1  Br   0.000000  -0.000000  -0.000000  -0.000013
     2  C   -0.000014   0.000002   0.000001   0.000027
     3  C    0.000000  -0.000000  -0.000000   0.000001
     4  C   -0.000000  -0.000000   0.000000  -0.000004
     5  C    0.000007   0.000010  -0.000010   0.000142
     6  C    0.000234  -0.000810  -0.000706   0.000888
     7  C    0.000147   0.000002   0.000113   0.001963
     8  C    0.006814   0.000570   0.006239  -0.000389
     9  C   -0.000552   0.003861   0.000672  -0.000567
    10  C    0.000013  -0.000287  -0.000019  -0.000038
    11  C    0.000000   0.000001   0.000002   0.000003
    12  O   -0.026528  -0.031984   0.002196  -0.001045
    13  C    0.380123   0.364020  -0.034167  -0.044063
    14  C   -0.030295  -0.047787   0.369065   0.374968
    15  O    0.002019  -0.001023  -0.028617  -0.029651
    16  H   -0.000000   0.000000  -0.000000  -0.000000
    17  H    0.000000   0.000000   0.000000  -0.000000
    18  H   -0.000589   0.000243   0.000068   0.001830
    19  H    0.000058  -0.000396  -0.000381   0.000103
    20  H    0.000008  -0.000066  -0.000017   0.000029
    21  H   -0.000000   0.000008  -0.000000  -0.000000
    22  H   -0.000002   0.000016  -0.000085   0.000059
    23  H   -0.000000  -0.000000   0.000000  -0.000000
    24  H    0.000000   0.000000  -0.000000   0.000000
    25  H    0.550536  -0.041807   0.001287  -0.002068
    26  H   -0.041807   0.615389  -0.002715   0.004535
    27  H    0.001287  -0.002715   0.589254  -0.043652
    28  H   -0.002068   0.004535  -0.043652   0.572166
          Atomic-Atomic Spin Densities.
               1          2          3          4          5          6
     1  Br  -0.004428   0.006610  -0.000761   0.000069  -0.000013   0.000140
     2  C    0.006610  -0.126826  -0.036902  -0.000788   0.006197  -0.013483
     3  C   -0.000761  -0.036902   0.657836  -0.157545  -0.015261   0.016252
     4  C    0.000069  -0.000788  -0.157545   0.276563   0.055416  -0.028101
     5  C   -0.000013   0.006197  -0.015261   0.055416  -0.057598  -0.057838
     6  C    0.000140  -0.013483   0.016252  -0.028101  -0.057838   0.582634
     7  C   -0.002158   0.044502  -0.029210   0.013193   0.000516  -0.145805
     8  C    0.000001   0.000104   0.000084  -0.000136  -0.003481   0.052124
     9  C   -0.000000  -0.000003   0.000001  -0.000098  -0.001126  -0.002896
    10  C    0.000000   0.000002   0.000026   0.000144   0.005538  -0.003320
    11  C   -0.000000  -0.000041   0.000193  -0.002713  -0.005580   0.006425
    12  O    0.000000   0.000007  -0.000002   0.000008   0.000545  -0.012519
    13  C   -0.000000   0.000001   0.000000  -0.000000  -0.000036   0.000924
    14  C    0.000001  -0.000010   0.000003  -0.000002   0.000032   0.002187
    15  O   -0.000000   0.000014  -0.000009   0.000021  -0.000249  -0.021116
    16  H    0.000488  -0.002296   0.002279  -0.002176  -0.000004  -0.000050
    17  H    0.000002   0.000065  -0.001600   0.002545  -0.001553   0.000048
    18  H    0.000396  -0.001699   0.000091  -0.000036   0.000168  -0.002502
    19  H   -0.000000   0.000000  -0.000000  -0.000002  -0.000190   0.000630
    20  H   -0.000000  -0.000001   0.000002  -0.000024  -0.000266   0.000850
    21  H    0.000000  -0.000000   0.000000   0.000001   0.000075  -0.000066
    22  H   -0.000000   0.000001  -0.000007   0.000074  -0.000309  -0.000481
    23  H   -0.000000  -0.000001  -0.000057   0.000348   0.001293   0.000135
    24  H    0.000000  -0.000005   0.000025  -0.000721   0.000431   0.000746
    25  H    0.000000   0.000000  -0.000000   0.000000   0.000001  -0.000047
    26  H    0.000000  -0.000000   0.000000   0.000000   0.000001  -0.000021
    27  H   -0.000000   0.000000  -0.000000   0.000000  -0.000001  -0.000167
    28  H   -0.000002   0.000015  -0.000002   0.000001  -0.000010  -0.000381
               7          8          9         10         11         12
     1  Br  -0.002158   0.000001  -0.000000   0.000000  -0.000000   0.000000
     2  C    0.044502   0.000104  -0.000003   0.000002  -0.000041   0.000007
     3  C   -0.029210   0.000084   0.000001   0.000026   0.000193  -0.000002
     4  C    0.013193  -0.000136  -0.000098   0.000144  -0.002713   0.000008
     5  C    0.000516  -0.003481  -0.001126   0.005538  -0.005580   0.000545
     6  C   -0.145805   0.052124  -0.002896  -0.003320   0.006425  -0.012519
     7  C    0.346087  -0.013383   0.000234  -0.000067  -0.000035   0.002467
     8  C   -0.013383   0.053985  -0.008696   0.011361  -0.005160  -0.014517
     9  C    0.000234  -0.008696   0.006073  -0.009554   0.006620   0.000411
    10  C   -0.000067   0.011361  -0.009554   0.040440  -0.030772   0.000436
    11  C   -0.000035  -0.005160   0.006620  -0.030772   0.031365  -0.000123
    12  O    0.002467  -0.014517   0.000411   0.000436  -0.000123   0.038494
    13  C   -0.000217   0.002287  -0.000065  -0.000040   0.000009  -0.005346
    14  C   -0.001195   0.007712  -0.000464   0.000217  -0.000037   0.001589
    15  O    0.004229  -0.054657   0.004844  -0.002877   0.000675  -0.007150
    16  H    0.000027  -0.000000  -0.000000   0.000000   0.000001   0.000000
    17  H   -0.000034   0.000003  -0.000001   0.000005   0.000307   0.000000
    18  H    0.002075   0.000664  -0.000019   0.000007  -0.000007   0.000290
    19  H   -0.000015  -0.002447  -0.000582  -0.001658   0.000703  -0.000880
    20  H   -0.000053  -0.000329   0.000818  -0.000395   0.000426  -0.000266
    21  H    0.000000   0.000280  -0.000645   0.002691  -0.001833   0.000004
    22  H    0.000032  -0.002208   0.001857  -0.004463   0.002657  -0.000031
    23  H    0.000008  -0.000152   0.000145  -0.002467   0.000854  -0.000001
    24  H   -0.000006  -0.000131   0.000521  -0.002192   0.002111  -0.000002
    25  H    0.000011  -0.000202   0.000004   0.000002  -0.000000   0.000666
    26  H    0.000002  -0.000007  -0.000009   0.000001  -0.000000   0.000104
    27  H    0.000077  -0.001185   0.000060  -0.000031   0.000003  -0.000306
    28  H    0.000473  -0.000420   0.000018  -0.000008   0.000002  -0.000251
              13         14         15         16         17         18
     1  Br  -0.000000   0.000001  -0.000000   0.000488   0.000002   0.000396
     2  C    0.000001  -0.000010   0.000014  -0.002296   0.000065  -0.001699
     3  C    0.000000   0.000003  -0.000009   0.002279  -0.001600   0.000091
     4  C   -0.000000  -0.000002   0.000021  -0.002176   0.002545  -0.000036
     5  C   -0.000036   0.000032  -0.000249  -0.000004  -0.001553   0.000168
     6  C    0.000924   0.002187  -0.021116  -0.000050   0.000048  -0.002502
     7  C   -0.000217  -0.001195   0.004229   0.000027  -0.000034   0.002075
     8  C    0.002287   0.007712  -0.054657  -0.000000   0.000003   0.000664
     9  C   -0.000065  -0.000464   0.004844  -0.000000  -0.000001  -0.000019
    10  C   -0.000040   0.000217  -0.002877   0.000000   0.000005   0.000007
    11  C    0.000009  -0.000037   0.000675   0.000001   0.000307  -0.000007
    12  O   -0.005346   0.001589  -0.007150   0.000000   0.000000   0.000290
    13  C    0.007450  -0.000002   0.000970  -0.000000  -0.000000  -0.000037
    14  C   -0.000002   0.016972  -0.013770   0.000000   0.000000   0.000093
    15  O    0.000970  -0.013770   0.100763  -0.000000  -0.000000  -0.000217
    16  H   -0.000000   0.000000  -0.000000  -0.024569   0.000358   0.000002
    17  H   -0.000000   0.000000  -0.000000   0.000358  -0.011118   0.000000
    18  H   -0.000037   0.000093  -0.000217   0.000002   0.000000  -0.013171
    19  H    0.000163  -0.000312   0.001227  -0.000000  -0.000000  -0.000001
    20  H    0.000036  -0.000009   0.000089   0.000000  -0.000000  -0.000001
    21  H   -0.000000   0.000003  -0.000033   0.000000   0.000001   0.000000
    22  H    0.000005  -0.000100   0.000794  -0.000000  -0.000001  -0.000001
    23  H    0.000000  -0.000001   0.000012  -0.000000  -0.000060  -0.000000
    24  H    0.000000  -0.000000   0.000004  -0.000000  -0.000030  -0.000000
    25  H   -0.000989  -0.000293  -0.000239   0.000000   0.000000   0.000036
    26  H    0.000237   0.000057  -0.000047   0.000000   0.000000   0.000000
    27  H   -0.001440  -0.006343   0.001621  -0.000000  -0.000000  -0.000014
    28  H    0.000123  -0.000835   0.001261  -0.000000  -0.000000  -0.000067
              19         20         21         22         23         24
     1  Br  -0.000000  -0.000000   0.000000  -0.000000  -0.000000   0.000000
     2  C    0.000000  -0.000001  -0.000000   0.000001  -0.000001  -0.000005
     3  C   -0.000000   0.000002   0.000000  -0.000007  -0.000057   0.000025
     4  C   -0.000002  -0.000024   0.000001   0.000074   0.000348  -0.000721
     5  C   -0.000190  -0.000266   0.000075  -0.000309   0.001293   0.000431
     6  C    0.000630   0.000850  -0.000066  -0.000481   0.000135   0.000746
     7  C   -0.000015  -0.000053   0.000000   0.000032   0.000008  -0.000006
     8  C   -0.002447  -0.000329   0.000280  -0.002208  -0.000152  -0.000131
     9  C   -0.000582   0.000818  -0.000645   0.001857   0.000145   0.000521
    10  C   -0.001658  -0.000395   0.002691  -0.004463  -0.002467  -0.002192
    11  C    0.000703   0.000426  -0.001833   0.002657   0.000854   0.002111
    12  O   -0.000880  -0.000266   0.000004  -0.000031  -0.000001  -0.000002
    13  C    0.000163   0.000036  -0.000000   0.000005   0.000000   0.000000
    14  C   -0.000312  -0.000009   0.000003  -0.000100  -0.000001  -0.000000
    15  O    0.001227   0.000089  -0.000033   0.000794   0.000012   0.000004
    16  H   -0.000000   0.000000   0.000000  -0.000000  -0.000000  -0.000000
    17  H   -0.000000  -0.000000   0.000001  -0.000001  -0.000060  -0.000030
    18  H   -0.000001  -0.000001   0.000000  -0.000001  -0.000000  -0.000000
    19  H    0.004243   0.000156  -0.000317   0.000369   0.000013   0.000022
    20  H    0.000156  -0.000329  -0.000053   0.000027   0.000013   0.000008
    21  H   -0.000317  -0.000053   0.001447  -0.000612  -0.000105  -0.000237
    22  H    0.000369   0.000027  -0.000612   0.001796   0.000362  -0.000003
    23  H    0.000013   0.000013  -0.000105   0.000362  -0.002782   0.001376
    24  H    0.000022   0.000008  -0.000237  -0.000003   0.001376  -0.003240
    25  H   -0.000023  -0.000002   0.000000  -0.000000  -0.000000  -0.000000
    26  H    0.000003  -0.000000   0.000000  -0.000000   0.000000  -0.000000
    27  H    0.000124   0.000002  -0.000001   0.000022   0.000000   0.000000
    28  H    0.000008   0.000001  -0.000000   0.000002   0.000000  -0.000000
              25         26         27         28
     1  Br   0.000000   0.000000  -0.000000  -0.000002
     2  C    0.000000  -0.000000   0.000000   0.000015
     3  C   -0.000000   0.000000  -0.000000  -0.000002
     4  C    0.000000   0.000000   0.000000   0.000001
     5  C    0.000001   0.000001  -0.000001  -0.000010
     6  C   -0.000047  -0.000021  -0.000167  -0.000381
     7  C    0.000011   0.000002   0.000077   0.000473
     8  C   -0.000202  -0.000007  -0.001185  -0.000420
     9  C    0.000004  -0.000009   0.000060   0.000018
    10  C    0.000002   0.000001  -0.000031  -0.000008
    11  C   -0.000000  -0.000000   0.000003   0.000002
    12  O    0.000666   0.000104  -0.000306  -0.000251
    13  C   -0.000989   0.000237  -0.001440   0.000123
    14  C   -0.000293   0.000057  -0.006343  -0.000835
    15  O   -0.000239  -0.000047   0.001621   0.001261
    16  H    0.000000   0.000000  -0.000000  -0.000000
    17  H    0.000000   0.000000  -0.000000  -0.000000
    18  H    0.000036   0.000000  -0.000014  -0.000067
    19  H   -0.000023   0.000003   0.000124   0.000008
    20  H   -0.000002  -0.000000   0.000002   0.000001
    21  H    0.000000   0.000000  -0.000001  -0.000000
    22  H   -0.000000  -0.000000   0.000022   0.000002
    23  H   -0.000000   0.000000   0.000000   0.000000
    24  H   -0.000000  -0.000000   0.000000  -0.000000
    25  H    0.002519   0.000050  -0.000395  -0.000251
    26  H    0.000050  -0.000645  -0.000068  -0.000026
    27  H   -0.000395  -0.000068   0.010744   0.000971
    28  H   -0.000251  -0.000026   0.000971  -0.001114
 Mulliken charges and spin densities:
               1          2
     1  Br  -0.221228   0.000346
     2  C   -0.057516  -0.124537
     3  C   -0.243587   0.435436
     4  C   -0.214603   0.156039
     5  C   -0.051373  -0.073298
     6  C   -0.141678   0.374303
     7  C   -0.175322   0.221758
     8  C    0.655416   0.021494
     9  C   -0.345684  -0.002553
    10  C   -0.381480   0.003026
    11  C   -0.330874   0.006048
    12  O   -0.680309   0.003628
    13  C   -0.021340   0.004031
    14  C   -0.002803   0.005492
    15  O   -0.676053   0.016160
    16  H    0.109070  -0.025941
    17  H    0.096386  -0.011064
    18  H    0.121778  -0.013951
    19  H    0.137781   0.001235
    20  H    0.170669   0.000698
    21  H    0.143053   0.000599
    22  H    0.187504  -0.000219
    23  H    0.155489  -0.001068
    24  H    0.161628  -0.001324
    25  H    0.160608   0.000848
    26  H    0.138218  -0.000370
    27  H    0.141471   0.003673
    28  H    0.164776  -0.000491
 Sum of Mulliken charges =  -1.00000   1.00000
 Mulliken charges and spin densities with hydrogens summed into heavy atoms:
               1          2
     1  Br  -0.221228   0.000346
     2  C   -0.057516  -0.124537
     3  C   -0.134517   0.409495
     4  C   -0.118217   0.144975
     5  C   -0.051373  -0.073298
     6  C   -0.141678   0.374303
     7  C   -0.053544   0.207807
     8  C    0.655416   0.021494
     9  C   -0.037234  -0.000620
    10  C   -0.050922   0.003406
    11  C   -0.013757   0.003657
    12  O   -0.680309   0.003628
    13  C    0.277486   0.004509
    14  C    0.303444   0.008674
    15  O   -0.676053   0.016160
 Electronic spatial extent (au):  <R**2>=           4528.3490
 Charge=             -1.0000 electrons
 Dipole moment (field-independent basis, Debye):
    X=              3.1964    Y=             -3.5293    Z=              0.1608  Tot=              4.7643
 Quadrupole moment (field-independent basis, Debye-Ang):
   XX=           -124.5501   YY=           -107.2326   ZZ=           -110.6132
   XY=             -0.6997   XZ=             -0.4957   YZ=             -1.7576
 Traceless Quadrupole moment (field-independent basis, Debye-Ang):
   XX=            -10.4181   YY=              6.8994   ZZ=              3.5188
   XY=             -0.6997   XZ=             -0.4957   YZ=             -1.7576
 Octapole moment (field-independent basis, Debye-Ang**2):
  XXX=            -71.6515  YYY=            -71.4835  ZZZ=              0.3443  XYY=            -21.7735
  XXY=            -22.3429  XXZ=             -1.7003  XZZ=            -33.5017  YZZ=            -13.2240
  YYZ=              3.7981  XYZ=             -3.4634
 Hexadecapole moment (field-independent basis, Debye-Ang**3):
 XXXX=          -3617.2211 YYYY=          -1729.5178 ZZZZ=           -299.0626 XXXY=             15.1496
 XXXZ=             -1.3694 YYYX=             11.9857 YYYZ=              2.8829 ZZZX=              6.9225
 ZZZY=             -4.8855 XXYY=           -863.2819 XXZZ=           -648.5528 YYZZ=           -348.3201
 XXYZ=             -6.1016 YYXZ=              7.1059 ZZXY=             24.2807
 N-N= 1.336100655753D+03 E-N=-1.024083222774D+04  KE= 3.165165027197D+03
 There are a total of      636960 grid points.
 ElSum from          density=      136.9999549217
 ElSum from atomic densities=      135.9999376265
 Hirshfeld populations at iteration   1 (CA, CB, DipXYZ):
               1          2          3          4          5
     1  Br  17.582487  17.583704   0.098613   0.056941  -0.000192
     2  C    3.013675   3.010530  -0.070348  -0.031362  -0.001714
     3  C    3.222605   2.949441   0.027169   0.013633  -0.000282
     4  C    3.135652   2.996422  -0.020717   0.013545  -0.000277
     5  C    3.031728   3.006491   0.073467   0.021944  -0.004226
     6  C    3.183955   2.936548   0.016635  -0.015738   0.018300
     7  C    3.148784   2.982031   0.036258   0.006067   0.000326
     8  C    2.950574   2.912911   0.030943  -0.054097   0.004548
     9  C    3.034591   3.028478  -0.019774   0.028370   0.023334
    10  C    3.027251   3.024541  -0.030294  -0.008146  -0.025914
    11  C    3.027650   3.023302   0.008588  -0.033841   0.011064
    12  O    4.095742   4.086545   0.050017  -0.002293   0.113687
    13  C    2.991311   2.988010  -0.024179   0.009590   0.005270
    14  C    2.992119   2.986817   0.004820   0.011890  -0.010548
    15  O    4.113815   4.088028  -0.034683  -0.069162  -0.101661
    16  H    0.513433   0.493457  -0.111937   0.085959   0.013860
    17  H    0.505926   0.496064  -0.008184   0.133776   0.012892
    18  H    0.504676   0.493045   0.000957  -0.132893  -0.012592
    19  H    0.496765   0.495840   0.109097  -0.063233   0.012529
    20  H    0.491543   0.488746  -0.011577   0.033591  -0.131751
    21  H    0.497524   0.496857   0.105548   0.066964  -0.023277
    22  H    0.490629   0.489543   0.002384  -0.027019   0.130562
    23  H    0.492887   0.492734  -0.002868   0.097818   0.087648
    24  H    0.494249   0.493785   0.013443   0.053821  -0.117274
    25  H    0.485846   0.484921  -0.068718  -0.111936  -0.040500
    26  H    0.494347   0.494269   0.117800  -0.021309  -0.022507
    27  H    0.491489   0.488483   0.088166  -0.057322   0.074534
    28  H    0.488722   0.488437  -0.113216  -0.048928   0.042455
       Tot  68.999976  67.999979   0.267409  -0.043368   0.058295

 Dip from Atomic Chgs              0.990312  -1.345149   0.004926
         Total Dipole              1.257722  -1.388517   0.063221

 Hirshfeld charges, spin densities, dipoles, and CM5 charges using IRadAn=      5:
              Q-H        S-H        Dx         Dy         Dz        Q-CM5   
     1  Br  -0.166191  -0.001217   0.098613   0.056941  -0.000192  -0.151535
     2  C   -0.024205   0.003145  -0.070348  -0.031362  -0.001714  -0.045278
     3  C   -0.172046   0.273164   0.027169   0.013633  -0.000282  -0.226321
     4  C   -0.132074   0.139230  -0.020717   0.013545  -0.000277  -0.186199
     5  C   -0.038219   0.025237   0.073467   0.021944  -0.004226  -0.050479
     6  C   -0.120503   0.247407   0.016635  -0.015738   0.018300  -0.122435
     7  C   -0.130816   0.166753   0.036258   0.006067   0.000326  -0.180763
     8  C    0.136515   0.037662   0.030943  -0.054097   0.004548   0.168558
     9  C   -0.063068   0.006113  -0.019774   0.028370   0.023334  -0.162905
    10  C   -0.051792   0.002709  -0.030294  -0.008146  -0.025914  -0.160069
    11  C   -0.050952   0.004349   0.008588  -0.033841   0.011064  -0.154389
    12  O   -0.182287   0.009197   0.050017  -0.002293   0.113687  -0.267556
    13  C    0.020679   0.003301  -0.024179   0.009590   0.005270  -0.056117
    14  C    0.021064   0.005303   0.004820   0.011890  -0.010548  -0.055369
    15  O   -0.201843   0.025787  -0.034683  -0.069162  -0.101661  -0.285654
    16  H   -0.006890   0.019976  -0.111937   0.085959   0.013860   0.050566
    17  H   -0.001990   0.009861  -0.008184   0.133776   0.012892   0.055572
    18  H    0.002279   0.011631   0.000957  -0.132893  -0.012592   0.066317
    19  H    0.007395   0.000925   0.109097  -0.063233   0.012529   0.067978
    20  H    0.019711   0.002797  -0.011577   0.033591  -0.131751   0.079534
    21  H    0.005619   0.000667   0.105548   0.066964  -0.023277   0.060587
    22  H    0.019827   0.001086   0.002384  -0.027019   0.130562   0.080207
    23  H    0.014380   0.000153  -0.002868   0.097818   0.087648   0.070344
    24  H    0.011966   0.000464   0.013443   0.053821  -0.117274   0.068144
    25  H    0.029233   0.000925  -0.068718  -0.111936  -0.040500   0.092675
    26  H    0.011384   0.000078   0.117800  -0.021309  -0.022507   0.074883
    27  H    0.020028   0.003006   0.088166  -0.057322   0.074534   0.083301
    28  H    0.022841   0.000285  -0.113216  -0.048928   0.042455   0.086448
       Tot  -0.999955   0.999997   0.267409  -0.043368   0.058295  -0.999955
 Hirshfeld charges and spin densities with hydrogens summed into heavy atoms:
              Q-H        S-H       Q-CM5   
     1  Br  -0.166191  -0.001217  -0.151535
     2  C   -0.024205   0.003145  -0.045278
     3  C   -0.178935   0.293140  -0.175755
     4  C   -0.134064   0.149091  -0.130627
     5  C   -0.038219   0.025237  -0.050479
     6  C   -0.120503   0.247407  -0.122435
     7  C   -0.128537   0.178384  -0.114447
     8  C    0.136515   0.037662   0.168558
     9  C   -0.035962   0.009835  -0.015393
    10  C   -0.026346   0.004463  -0.019274
    11  C   -0.024606   0.004966  -0.015901
    12  O   -0.182287   0.009197  -0.267556
    13  C    0.061296   0.004304   0.111441
    14  C    0.063933   0.008594   0.114380
    15  O   -0.201843   0.025787  -0.285654
 
 EQQ= 0.980355355572E-01 EQD=-0.437210873464E-01 EDD=-0.268466118457E-02
 EQQ+QD+DD= 0.516297870262E-01
 
                          Isotropic Fermi Contact Couplings
        Atom                 a.u.       MegaHertz       Gauss      10(-4) cm-1
     1  Br(79)            -0.00190      -2.13856      -0.76309      -0.71335
     2  C(13)             -0.02162     -24.30674      -8.67325      -8.10786
     3  C(13)              0.03833      43.09450      15.37719      14.37478
     4  C(13)              0.00963      10.82304       3.86193       3.61018
     5  C(13)             -0.01288     -14.47509      -5.16507      -4.82837
     6  C(13)              0.03423      38.47955      13.73046      12.83540
     7  C(13)              0.01629      18.30997       6.53345       6.10755
     8  C(13)             -0.00736      -8.27928      -2.95425      -2.76167
     9  C(13)              0.00104       1.16638       0.41619       0.38906
    10  C(13)             -0.00064      -0.71925      -0.25664      -0.23991
    11  C(13)              0.00031       0.34548       0.12328       0.11524
    12  O(17)              0.02454     -14.87350      -5.30723      -4.96126
    13  C(13)              0.00103       1.15796       0.41319       0.38625
    14  C(13)              0.00300       3.37258       1.20342       1.12497
    15  O(17)              0.06281     -38.07567     -13.58634     -12.70067
    16  H(1)              -0.00508     -22.72491      -8.10881      -7.58021
    17  H(1)              -0.00220      -9.81369      -3.50177      -3.27349
    18  H(1)              -0.00285     -12.71915      -4.53851      -4.24265
    19  H(1)               0.00027       1.20547       0.43014       0.40210
    20  H(1)               0.00080       3.56653       1.27263       1.18967
    21  H(1)               0.00026       1.17117       0.41790       0.39066
    22  H(1)               0.00019       0.86757       0.30957       0.28939
    23  H(1)              -0.00044      -1.96610      -0.70155      -0.65582
    24  H(1)              -0.00007      -0.32752      -0.11687      -0.10925
    25  H(1)               0.00022       0.99023       0.35334       0.33030
    26  H(1)              -0.00008      -0.37802      -0.13489      -0.12609
    27  H(1)               0.00094       4.19608       1.49727       1.39966
    28  H(1)              -0.00008      -0.34170      -0.12193      -0.11398
 --------------------------------------------------------
       Center         ----  Spin Dipole Couplings  ----
                      3XX-RR        3YY-RR        3ZZ-RR
 --------------------------------------------------------
     1   Atom        0.032408      0.010920     -0.043328
     2   Atom        0.031875      0.041763     -0.073637
     3   Atom       -0.197704     -0.204664      0.402368
     4   Atom       -0.083516     -0.084190      0.167706
     5   Atom        0.007829      0.016605     -0.024434
     6   Atom       -0.187735     -0.196392      0.384126
     7   Atom       -0.112158     -0.107671      0.219829
     8   Atom       -0.009323     -0.013133      0.022456
     9   Atom        0.006598     -0.005005     -0.001593
    10   Atom        0.003347      0.000256     -0.003604
    11   Atom        0.002126      0.001219     -0.003345
    12   Atom       -0.010648      0.018080     -0.007432
    13   Atom       -0.002237      0.002759     -0.000522
    14   Atom       -0.004565      0.008731     -0.004165
    15   Atom        0.012481     -0.019431      0.006950
    16   Atom        0.018346     -0.016350     -0.001996
    17   Atom       -0.014273      0.018023     -0.003749
    18   Atom       -0.017655      0.021431     -0.003776
    19   Atom        0.003497     -0.001864     -0.001633
    20   Atom        0.004339     -0.003367     -0.000972
    21   Atom        0.001998     -0.000489     -0.001509
    22   Atom        0.003152     -0.001697     -0.001455
    23   Atom        0.001907      0.000589     -0.002496
    24   Atom        0.001679      0.000887     -0.002565
    25   Atom       -0.000959      0.002320     -0.001361
    26   Atom        0.000827      0.000397     -0.001224
    27   Atom       -0.000226      0.001237     -0.001011
    28   Atom       -0.001006      0.003015     -0.002009
 --------------------------------------------------------
                        XY            XZ            YZ
 --------------------------------------------------------
     1   Atom        0.017616      0.006537      0.009452
     2   Atom       -0.003376     -0.008460      0.008646
     3   Atom       -0.007969      0.035682     -0.059391
     4   Atom        0.002397      0.014013     -0.023063
     5   Atom       -0.004006     -0.003788      0.002856
     6   Atom       -0.005354      0.026945     -0.047517
     7   Atom        0.002669      0.012380     -0.039111
     8   Atom       -0.004637      0.002178      0.008929
     9   Atom        0.000356     -0.000967      0.000194
    10   Atom        0.001861      0.001013     -0.000180
    11   Atom        0.002227     -0.001076      0.001598
    12   Atom       -0.000409      0.001174      0.014210
    13   Atom       -0.004682      0.001897     -0.003326
    14   Atom       -0.002546      0.000358      0.002837
    15   Atom       -0.037028      0.056776     -0.034566
    16   Atom       -0.028403     -0.003626      0.000220
    17   Atom        0.001380      0.000387      0.001533
    18   Atom        0.002222      0.000725      0.002351
    19   Atom       -0.000777     -0.000567      0.000138
    20   Atom        0.000936     -0.003755     -0.001051
    21   Atom        0.001434      0.000115      0.000005
    22   Atom        0.002022      0.002405      0.001240
    23   Atom        0.003299      0.000992      0.001309
    24   Atom        0.002552     -0.001684     -0.001608
    25   Atom       -0.000971      0.000043      0.000686
    26   Atom       -0.001930     -0.000460      0.000330
    27   Atom       -0.001856      0.001154     -0.001187
    28   Atom       -0.000582      0.000529     -0.002257
 --------------------------------------------------------


 ---------------------------------------------------------------------------------
              Anisotropic Spin Dipole Couplings in Principal Axis System
 ---------------------------------------------------------------------------------

       Atom             a.u.   MegaHertz   Gauss  10(-4) cm-1        Axes

              Baa    -0.0451    -6.049    -2.159    -2.018 -0.0489 -0.1512  0.9873
     1 Br(79) Bbb     0.0016     0.210     0.075     0.070 -0.5099  0.8537  0.1055
              Bcc     0.0435     5.840     2.084     1.948  0.8588  0.4983  0.1189
 
              Baa    -0.0749   -10.052    -3.587    -3.353  0.0765 -0.0715  0.9945
     2 C(13)  Bbb     0.0311     4.173     1.489     1.392  0.9404  0.3367 -0.0482
              Bcc     0.0438     5.879     2.098     1.961 -0.3315  0.9389  0.0930
 
              Baa    -0.2121   -28.457   -10.154    -9.492  0.3443  0.9362  0.0705
     3 C(13)  Bbb    -0.1982   -26.600    -9.491    -8.873  0.9370 -0.3379 -0.0891
              Bcc     0.4103    55.057    19.646    18.365  0.0596 -0.0967  0.9935
 
              Baa    -0.0891   -11.951    -4.264    -3.986 -0.6044  0.7899  0.1039
     4 C(13)  Bbb    -0.0815   -10.934    -3.902    -3.647  0.7948  0.6067  0.0115
              Bcc     0.1705    22.885     8.166     7.634  0.0540 -0.0895  0.9945
 
              Baa    -0.0250    -3.356    -1.198    -1.119  0.1074 -0.0578  0.9925
     5 C(13)  Bbb     0.0065     0.868     0.310     0.290  0.9196  0.3852 -0.0771
              Bcc     0.0185     2.488     0.888     0.830 -0.3778  0.9210  0.0945
 
              Baa    -0.2011   -26.983    -9.628    -9.000  0.2525  0.9653  0.0668
     6 C(13)  Bbb    -0.1882   -25.255    -9.012    -8.424  0.9664 -0.2483 -0.0661
              Bcc     0.3893    52.238    18.640    17.425  0.0472 -0.0812  0.9956
 
              Baa    -0.1165   -15.637    -5.580    -5.216  0.7198 -0.6860 -0.1063
     7 C(13)  Bbb    -0.1083   -14.537    -5.187    -4.849  0.6933  0.7182  0.0594
              Bcc     0.2249    30.174    10.767    10.065  0.0355 -0.1165  0.9926
 
              Baa    -0.0181    -2.431    -0.867    -0.811  0.4965  0.8418 -0.2119
     8 C(13)  Bbb    -0.0065    -0.871    -0.311    -0.290  0.8675 -0.4900  0.0859
              Bcc     0.0246     3.302     1.178     1.101  0.0316  0.2265  0.9735
 
              Baa    -0.0050    -0.675    -0.241    -0.225 -0.0360  0.9971 -0.0665
     9 C(13)  Bbb    -0.0017    -0.227    -0.081    -0.076  0.1126  0.0702  0.9912
              Bcc     0.0067     0.902     0.322     0.301  0.9930  0.0282 -0.1148
 
              Baa    -0.0038    -0.510    -0.182    -0.170 -0.1702  0.1213  0.9779
    10 C(13)  Bbb    -0.0005    -0.068    -0.024    -0.023 -0.3888  0.9036 -0.1798
              Bcc     0.0043     0.579     0.206     0.193  0.9055  0.4108  0.1066
 
              Baa    -0.0043    -0.582    -0.208    -0.194  0.2743 -0.3660  0.8893
    11 C(13)  Bbb     0.0004     0.052     0.018     0.017 -0.5803  0.6744  0.4565
              Bcc     0.0040     0.530     0.189     0.177  0.7668  0.6413  0.0274
 
              Baa    -0.0142     1.028     0.367     0.343 -0.3291 -0.3839  0.8627
    12 O(17)  Bbb    -0.0102     0.739     0.264     0.247  0.9443 -0.1367  0.2994
              Bcc     0.0244    -1.767    -0.631    -0.589  0.0030  0.9132  0.4075
 
              Baa    -0.0050    -0.677    -0.242    -0.226  0.8523  0.5224  0.0266
    13 C(13)  Bbb    -0.0024    -0.318    -0.113    -0.106 -0.2476  0.3580  0.9003
              Bcc     0.0074     0.995     0.355     0.332 -0.4608  0.7739 -0.4345
 
              Baa    -0.0057    -0.770    -0.275    -0.257  0.7392  0.2525 -0.6243
    14 C(13)  Bbb    -0.0040    -0.537    -0.192    -0.179  0.6523 -0.0382  0.7570
              Bcc     0.0097     1.307     0.466     0.436 -0.1673  0.9668  0.1930
 
              Baa    -0.0472     3.414     1.218     1.139  0.7172  0.0974 -0.6901
    15 O(17)  Bbb    -0.0428     3.099     1.106     1.034  0.2290  0.9023  0.3653
              Bcc     0.0900    -6.513    -2.324    -2.172  0.6582 -0.4200  0.6248
 
              Baa    -0.0324   -17.270    -6.162    -5.760  0.4908  0.8697  0.0523
    16 H(1)   Bbb    -0.0022    -1.177    -0.420    -0.393  0.0521 -0.0892  0.9946
              Bcc     0.0346    18.446     6.582     6.153  0.8697 -0.4855 -0.0891
 
              Baa    -0.0143    -7.652    -2.731    -2.553  0.9987 -0.0411 -0.0305
    17 H(1)   Bbb    -0.0038    -2.054    -0.733    -0.685  0.0275 -0.0716  0.9971
              Bcc     0.0182     9.706     3.463     3.237  0.0432  0.9966  0.0704
 
              Baa    -0.0178    -9.501    -3.390    -3.169  0.9976 -0.0539 -0.0425
    18 H(1)   Bbb    -0.0040    -2.120    -0.757    -0.707  0.0373 -0.0953  0.9947
              Bcc     0.0218    11.621     4.147     3.876  0.0577  0.9940  0.0931
 
              Baa    -0.0020    -1.059    -0.378    -0.353  0.1182  0.9743 -0.1917
    19 H(1)   Bbb    -0.0017    -0.899    -0.321    -0.300  0.1330  0.1757  0.9754
              Bcc     0.0037     1.958     0.699     0.653  0.9840 -0.1408 -0.1088
 
              Baa    -0.0038    -2.037    -0.727    -0.680  0.1221  0.8678  0.4817
    20 H(1)   Bbb    -0.0026    -1.409    -0.503    -0.470  0.4649 -0.4788  0.7447
              Bcc     0.0065     3.446     1.230     1.150  0.8769  0.1330 -0.4619
 
              Baa    -0.0015    -0.809    -0.289    -0.270 -0.0706  0.0932  0.9931
    21 H(1)   Bbb    -0.0011    -0.607    -0.217    -0.203 -0.4096  0.9051 -0.1140
              Bcc     0.0027     1.416     0.505     0.472  0.9095  0.4148  0.0257
 
              Baa    -0.0028    -1.509    -0.538    -0.503 -0.0582 -0.6882  0.7232
    22 H(1)   Bbb    -0.0022    -1.160    -0.414    -0.387 -0.5041  0.6456  0.5737
              Bcc     0.0050     2.669     0.952     0.890  0.8617  0.3312  0.3845
 
              Baa    -0.0030    -1.599    -0.571    -0.533  0.1018 -0.4224  0.9007
    23 H(1)   Bbb    -0.0020    -1.045    -0.373    -0.348  0.6550 -0.6530 -0.3803
              Bcc     0.0050     2.644     0.943     0.882  0.7487  0.6287  0.2102
 
              Baa    -0.0033    -1.774    -0.633    -0.592  0.1949  0.2445  0.9499
    24 H(1)   Bbb    -0.0013    -0.690    -0.246    -0.230 -0.6680  0.7422 -0.0540
              Bcc     0.0046     2.464     0.879     0.822  0.7182  0.6240 -0.3080
 
              Baa    -0.0016    -0.852    -0.304    -0.284 -0.4567 -0.2622  0.8501
    25 H(1)   Bbb    -0.0011    -0.584    -0.208    -0.195  0.8532  0.1416  0.5020
              Bcc     0.0027     1.436     0.512     0.479 -0.2520  0.9546  0.1590
 
              Baa    -0.0014    -0.736    -0.263    -0.246  0.5825  0.5164  0.6277
    26 H(1)   Bbb    -0.0013    -0.670    -0.239    -0.224 -0.3386 -0.5479  0.7649
              Bcc     0.0026     1.407     0.502     0.469  0.7389 -0.6582 -0.1443
 
              Baa    -0.0018    -0.987    -0.352    -0.329 -0.6519 -0.1030  0.7513
    27 H(1)   Bbb    -0.0013    -0.690    -0.246    -0.230  0.5303  0.6464  0.5487
              Bcc     0.0031     1.677     0.598     0.559 -0.5421  0.7560 -0.3667
 
              Baa    -0.0029    -1.557    -0.556    -0.519 -0.1538  0.3381  0.9285
    28 H(1)   Bbb    -0.0011    -0.571    -0.204    -0.190  0.9773  0.1904  0.0925
              Bcc     0.0040     2.128     0.759     0.710 -0.1454  0.9216 -0.3597
 

 ---------------------------------------------------------------------------------

 Running external command "gaunbo6 R"
         input file       "/home/rpaton/arbr500/xtb/fukui/Gau-2147205.EIn"
         output file      "/home/rpaton/arbr500/xtb/fukui/Gau-2147205.EOu"
         message file     "/home/rpaton/arbr500/xtb/fukui/Gau-2147205.EMs"
         fchk file        "/home/rpaton/arbr500/xtb/fukui/Gau-2147205.EFC"
         mat. el file     "/home/rpaton/arbr500/xtb/fukui/Gau-2147205.EUF"

 Writing WrtUnf unformatted file "/home/rpaton/arbr500/xtb/fukui/Gau-2147205.EUF"
 Gaussian matrix elements                                         Version   2 NLab=11 Len12L=8 Len4L=8
 Write SHELL TO ATOM MAP                   from file      0 offset           0 length                 109 to matrix element file.
 Write SHELL TYPES                         from file      0 offset           0 length                 109 to matrix element file.
 Write NUMBER OF PRIMITIVES PER SHELL      from file      0 offset           0 length                 109 to matrix element file.
 Write PRIMITIVE EXPONENTS                 from file      0 offset           0 length                 192 to matrix element file.
 Write CONTRACTION COEFFICIENTS            from file      0 offset           0 length                 192 to matrix element file.
 Write P(S=P) CONTRACTION COEFFICIENTS     from file      0 offset           0 length                 192 to matrix element file.
 Write COORDINATES OF EACH SHELL           from file      0 offset           0 length                 327 to matrix element file.
 Write BONDS PER ATOM                      from file      0 offset           0 length                  28 to matrix element file.
 Write BONDED ATOMS                        from file      0 offset           0 length                  60 to matrix element file.
 Write BOND TYPES                          from file      0 offset           0 length                  60 to matrix element file.
 Write ONIOM CHARGE/MULT                   from file      0 offset           0 length                  32 to matrix element file.
 Write ONIOM ATOM LAYERS                   from file      0 offset           0 length                  28 to matrix element file.
 Write ONIOM ATOM MODIFIERS                from file      0 offset           0 length                  28 to matrix element file.
 Write ONIOM ATOM TYPES                    from file      0 offset           0 length                  28 to matrix element file.
 Write ONIOM LINK ATOMS                    from file      0 offset           0 length                  28 to matrix element file.
 Write ONIOM LINK CHARGES                  from file      0 offset           0 length                  28 to matrix element file.
 Write ONIOM LINK DISTANCES                from file      0 offset           0 length                 112 to matrix element file.
 Write SYMINF INTS                         from file      0 offset           0 length                  26 to matrix element file.
 Write ROTTR TO SO                         from file      0 offset           0 length                  12 to matrix element file.
 Write GAUSSIAN SCALARS                    from file    501 offset           0 to matrix element file.
 Write OPTIMIZATION FLAGS                  from file      0 offset           0 length                  28 to matrix element file.
 Write INTEGER ISO                         from file      0 offset           0 length                  28 to matrix element file.
 Write INTEGER SPIN                        from file      0 offset           0 length                  28 to matrix element file.
 Write REAL ZEFFECTIVE                     from file      0 offset           0 length                  28 to matrix element file.
 Write REAL QUADRUPOLEMOMENT               from file      0 offset           0 length                  28 to matrix element file.
 Write REAL GFACTOR                        from file      0 offset           0 length                  28 to matrix element file.
 Write REAL ZNUCLEAR                       from file      0 offset           0 length                  28 to matrix element file.
 Write MULLIKEN CHARGES                    from file      0 offset           0 length                  28 to matrix element file.
 Write TYPE 6 CHARGES                      from file      0 offset           0 length                  28 to matrix element file.
 Write TYPE 7 CHARGES                      from file      0 offset           0 length                  28 to matrix element file.
 Write NUCLEAR GRADIENT                    from file  10584 offset           0 length                  84 to matrix element file.
 Array NUCLEAR FORCE CONSTANTS              on  file  10585 does not exist.
 Write ELECTRIC DIPOLE MOMENT              from file      0 offset           0 length                   3 to matrix element file.
 Write NON-ADIABATIC COUPLING              from file  10810 offset           0 length                  84 to matrix element file.
 Write FINITE EM FIELD                     from file  10521 offset           0 length                  35 to matrix element file.
 Write OVERLAP                             from file  10514 offset           0 length               17955 to matrix element file.
 Write CORE HAMILTONIAN ALPHA              from file  10515 offset           0 length               17955 to matrix element file.
 Write CORE HAMILTONIAN BETA               from file  10515 offset       17955 length               17955 to matrix element file.
 Write KINETIC ENERGY                      from file  10516 offset           0 length               17955 to matrix element file.
 Write ORTHOGONAL BASIS                    from file  10685 offset           0 length               35721 to matrix element file.
 Write DIPOLE INTEGRALS                    from file  10518 offset           0 length               53865 to matrix element file.
 Array DIP VEL INTEGRALS                    on  file  10572 does not exist.
 Array R X DEL INTEGRALS                    on  file  10572 does not exist.
 Write ALPHA ORBITAL ENERGIES              from file      0 offset           0 length                 189 to matrix element file.
 Write BETA ORBITAL ENERGIES               from file      0 offset           0 length                 189 to matrix element file.
 Write ALPHA MO COEFFICIENTS               from file  10524 offset           0 length               35721 to matrix element file.
 Write BETA MO COEFFICIENTS                from file  10526 offset           0 length               35721 to matrix element file.
 Write ALPHA DENSITY MATRIX                from file      0 offset           0 length               17955 to matrix element file.
 Write BETA DENSITY MATRIX                 from file      0 offset           0 length               17955 to matrix element file.
 Write ALPHA FOCK MATRIX                   from file  10536 offset           0 length               17955 to matrix element file.
 Write BETA FOCK MATRIX                    from file  10538 offset           0 length               17955 to matrix element file.
 Write ENERGY-WEIGHTED DENSITY             from file  10571 offset           0 length               17955 to matrix element file.
 Write ALPHA SCF DENSITY MATRIX            from file      0 offset           0 length               17955 to matrix element file.
 Write BETA SCF DENSITY MATRIX             from file      0 offset           0 length               17955 to matrix element file.
 No 2e integrals to process.
 Perform NBO analysis...

 *********************************** NBO 7.0 ***********************************
             N A T U R A L   A T O M I C   O R B I T A L   A N D
          N A T U R A L   B O N D   O R B I T A L   A N A L Y S I S
 **************************** Robert Paton (I101709) ***************************
  (c) Copyright 1996-2019 Board of Regents of the University of Wisconsin System
      on behalf of the Theoretical Chemistry Institute.  All rights reserved.

          Cite this program [NBO 7.0.5 (4-Jun-2019)] as:

          NBO 7.0.  E. D. Glendening, J. K. Badenhoop, A. E. Reed,
          J. E. Carpenter, J. A. Bohmann, C. M. Morales, P. Karafiloglou,
          C. R. Landis, and F. Weinhold, Theoretical Chemistry Institute,
          University of Wisconsin, Madison, WI (2018)

 Filename set to /home/rpaton/arbr500/xtb/fukui/Gau-2147205

 Job title:  energy: -44.567785349378 gnorm: 0.000473625240 xtb: 6.7.0 (08769fc)


 NATURAL POPULATIONS:  Natural atomic orbital occupancies

  NAO Atom No lang   Type(AO)    Occupancy     Spin
 -----------------------------------------------------
   1   Br  1  s      Cor( 3s)     2.00000     0.00000
   2   Br  1  s      Cor( 1s)     2.00000     0.00000
   3   Br  1  s      Cor( 2s)     1.99999     0.00000
   4   Br  1  s      Val( 4s)     1.86386    -0.00008
   5   Br  1  s      Ryd( 5s)     0.00265    -0.00002
   6   Br  1  px     Cor( 3p)     2.00000     0.00000
   7   Br  1  px     Cor( 2p)     1.99999     0.00000
   8   Br  1  px     Val( 4p)     1.41052     0.00155
   9   Br  1  px     Ryd( 5p)     0.00256     0.00000
[...]
   60. BD ( 1) C 11- H 23      87. BD*( 1) C  9- C 10      1.26    1.02   0.045
   60. BD ( 1) C 11- H 23     125. RY ( 3) C  5            0.26    1.60   0.026
   61. BD ( 1) C 11- H 24      79. BD*( 2) C  5- C  6      2.66    0.71   0.055
   61. BD ( 1) C 11- H 24      80. BD*( 1) C  5- C 11      0.38    1.10   0.026
   61. BD ( 1) C 11- H 24      92. BD*( 1) C 10- H 22      1.22    1.08   0.046
   61. BD ( 1) C 11- H 24     125. RY ( 3) C  5            0.38    1.59   0.031
   62. BD ( 1) O 12- C 13      82. BD*( 1) C  6- C  8      0.52    1.35   0.034
   62. BD ( 1) O 12- C 13      86. BD*( 1) C  8- O 15      1.58    1.18   0.055
   62. BD ( 1) O 12- C 13      99. BD*( 1) C 14- O 15      1.06    1.19   0.045
   62. BD ( 1) O 12- C 13     100. BD*( 1) C 14- H 27      0.59    1.32   0.035
   62. BD ( 1) O 12- C 13     135. RY ( 1) C  8            0.56    2.00   0.042
   63. BD ( 1) C 13- C 14      97. BD*( 1) C 13- H 25      0.31    1.19   0.024
   63. BD ( 1) C 13- C 14     100. BD*( 1) C 14- H 27      0.26    1.18   0.022
   63. BD ( 1) C 13- C 14     137. RY ( 3) C  8            0.47    1.91   0.038
   64. BD ( 1) C 13- H 25      85. BD*( 1) C  8- O 12      0.73    1.00   0.034
   64. BD ( 1) C 13- H 25      99. BD*( 1) C 14- O 15      0.85    1.00   0.037
   65. BD ( 1) C 13- H 26     101. BD*( 1) C 14- H 28      0.88    1.12   0.040
   65. BD ( 1) C 13- H 26     165. RY ( 2) C 14            0.36    1.71   0.031
   66. BD ( 1) C 14- O 15      84. BD*( 1) C  8- C  9      0.37    1.26   0.027
   66. BD ( 1) C 14- O 15      85. BD*( 1) C  8- O 12      1.53    1.19   0.054
   66. BD ( 1) C 14- O 15      95. BD*( 1) O 12- C 13      1.07    1.17   0.045
   66. BD ( 1) C 14- O 15      97. BD*( 1) C 13- H 25      0.60    1.32   0.035
   66. BD ( 1) C 14- O 15     135. RY ( 1) C  8            0.66    2.00   0.046
   67. BD ( 1) C 14- H 27      86. BD*( 1) C  8- O 15      0.69    0.99   0.033
   67. BD ( 1) C 14- H 27      95. BD*( 1) O 12- C 13      0.89    0.98   0.037
   67. BD ( 1) C 14- H 27     168. RY ( 1) O 15            0.28    2.36   0.033
   68. BD ( 1) C 14- H 28      98. BD*( 1) C 13- H 26      0.94    1.09   0.040
   68. BD ( 1) C 14- H 28     161. RY ( 2) C 13            0.32    1.70   0.030


 NATURAL BOND ORBITALS (Summary):

                                                     Principal Delocalizations
           NBO                 Occupancy    Energy   (geminal,vicinal,remote)
 ===============================================================================
 Molecular unit  1  (C12H13O2Br)
 ------ Lewis --------------------------------------
    1. CR ( 1)Br  1             1.00000   -20.84495
    2. CR ( 2)Br  1             1.00000  -450.51201
    3. CR ( 3)Br  1             1.00000   -79.76789
    4. CR ( 4)Br  1             1.00000    -6.91734
    5. CR ( 5)Br  1             0.99999   -55.59288
    6. CR ( 6)Br  1             1.00000    -6.91113
    7. CR ( 7)Br  1             1.00000   -55.59135
    8. CR ( 8)Br  1             1.00000    -6.90794
    9. CR ( 9)Br  1             1.00000   -55.59051
   10. CR (10)Br  1             0.99974    -2.60754  104(g)
   11. CR (11)Br  1             0.99995    -2.60492
   12. CR (12)Br  1             0.99998    -2.60006
   13. CR (13)Br  1             0.99982    -2.60740
   14. CR (14)Br  1             0.99990    -2.60092
   15. CR ( 1) C  2             0.99995   -10.09473
   16. CR ( 1) C  3             0.99993   -10.00709
   17. CR ( 1) C  4             0.99993   -10.02086
   18. CR ( 1) C  5             0.99995   -10.05233
   19. CR ( 1) C  6             0.99993   -10.01068
   20. CR ( 1) C  7             0.99992   -10.02242
   21. CR ( 1) C  8             0.99988   -10.17522
   22. CR ( 1) C  9             0.99988   -10.08472  141(g)
   23. CR ( 1) C 10             0.99988   -10.09025  146(g)
   24. CR ( 1) C 11             0.99988   -10.08118
   25. CR ( 1) O 12             0.99993   -19.01644  153(g)
   26. CR ( 1) C 13             0.99989   -10.15855
   27. CR ( 1) C 14             0.99989   -10.15344
   28. CR ( 1) O 15             0.99992   -19.00286  170(g)
   29. LP ( 1)Br  1             0.99879    -0.59540  112(v)
   30. LP ( 2)Br  1             0.99362    -0.20508  71(v),70(v),111(v)
   31. LP ( 3)Br  1             0.98339    -0.20302  72(v)
   32. LP ( 1) O 12             0.98062    -0.42901  86(v),135(v),96(v),97(v)
                                                     160(v),82(v),98(v),137(v)
   33. LP ( 2) O 12             0.95538    -0.22012  98(v),84(v),82(v),96(v)
                                                     86(v),97(v),87(r),100(r)
                                                     99(r)
   34. LP ( 1) O 15             0.97922    -0.42535  85(v),96(v),135(v),164(v)
                                                     100(v),136(v),84(v),92(r)
                                                     137(v)
   35. LP ( 2) O 15             0.95885    -0.20854  101(v),82(v),84(v),100(v)
                                                     79(r),96(v),89(r),95(r)
   36. BD ( 1)Br  1- C  2       0.99455    -0.45607  115(v),81(v),73(v),131(v)
                                                     132(v)
   37. BD ( 1) C  2- C  3       0.98850    -0.50490  71(g),73(g),75(g),120(v)
                                                     132(v),83(v),77(v)
   38. BD ( 1) C  2- C  7       0.98850    -0.50977  70(g),81(g),83(g),128(v)
                                                     82(v),75(v),115(v),116(v)
   39. BD ( 2) C  2- C  7       0.86131    -0.12871  74(v),79(v),102(v),118(v)
   40. BD ( 1) C  3- C  4       0.98358    -0.47341  69(v),70(g),76(g),124(v)
                                                     80(v),75(g),111(v),77(g)
                                                     112(v),178(v)
   41. BD ( 2) C  3- C  4       0.81845    -0.08759  79(v),72(v),125(v)
   42. BD ( 1) C  3- H 16       0.99090    -0.37071  76(v),71(v),112(v),73(g)
                                                     119(v),70(g),69(v)
   43. BD ( 1) C  4- C  5       0.98526    -0.47519  78(g),73(g),82(v),116(v)
                                                     80(g),127(v),75(v),77(g)
                                                     147(v),90(v)
   44. BD ( 1) C  4- H 17       0.99137    -0.37949  70(v),78(v),123(v),115(v)
                                                     73(g),76(g),80(v)
   45. BD ( 1) C  5- C  6       0.98155    -0.47345  81(g),76(g),82(g),80(g)
                                                     77(v),83(v),119(v),131(v)
                                                     136(v),85(v),147(v),135(v)
                                                     93(v)
   46. BD ( 2) C  5- C  6       0.82201    -0.09263  72(v),74(v),86(v),94(v)
                                                     85(v),93(v),122(v),134(v)
   47. BD ( 1) C  5- C 11       0.98828    -0.45570  78(g),76(g),119(v),81(v)
                                                     128(v),73(v),91(v),90(g)
                                                     93(g),143(v),94(g),127(v)
                                                     185(v)
   48. BD ( 1) C  6- C  7       0.97957    -0.46537  78(g),69(v),71(g),80(v)
                                                     82(g),83(g),111(v),123(v)
                                                     137(v),112(v),84(v),85(v)
   49. BD ( 1) C  6- C  8       0.98486    -0.44744  81(g),78(g),131(v),71(v)
                                                     76(v),88(v),95(v),123(v)
                                                     169(v),84(g),139(v),124(v)
                                                     151(v),99(v)
   50. BD ( 1) C  7- H 18       0.99011    -0.37632  78(v),70(v),112(v),81(g)
                                                     71(g),69(v),127(v),82(v)
                                                     128(v)
   51. BD ( 1) C  8- C  9       0.99066    -0.48301  127(v),82(g),91(v),81(v)
                                                     143(v),168(v),87(g),88(g)
                                                     89(g),99(v),180(v)
   52. BD ( 1) C  8- O 12       0.99380    -0.67431  97(v),86(g),87(v),78(v)
                                                     96(v),79(v),161(v)
   53. BD ( 1) C  8- O 15       0.99239    -0.65053  79(v),100(v),89(v),85(g)
                                                     96(v)
   54. BD ( 1) C  9- C 10       0.99057    -0.47280  85(v),93(v),90(g),84(g)
                                                     148(v),88(g),136(v),91(g)
                                                     147(v),92(g),89(g),182(v)
   55. BD ( 1) C  9- H 19       0.99241    -0.41864  90(v),82(v),86(v)
   56. BD ( 1) C  9- H 20       0.99015    -0.41477  86(v),92(v),85(v),135(v)
   57. BD ( 1) C 10- C 11       0.99251    -0.46786  88(v),76(v),80(g),139(v)
                                                     87(g),91(g),124(v),92(g)
                                                     93(g),94(g),182(v)
   58. BD ( 1) C 10- H 21       0.99336    -0.42151  84(v),80(v),149(v)
   59. BD ( 1) C 10- H 22       0.99195    -0.41203  89(v),94(v)
   60. BD ( 1) C 11- H 23       0.99157    -0.40702  87(v),79(v),78(v),80(g)
                                                     125(v)
   61. BD ( 1) C 11- H 24       0.98845    -0.40265  79(v),92(v),125(v),80(g)
   62. BD ( 1) O 12- C 13       0.99231    -0.66253  86(v),99(v),100(v),135(v)
                                                     82(v)
   63. BD ( 1) C 13- C 14       0.99758    -0.52811  137(r),97(g),100(g)
   64. BD ( 1) C 13- H 25       0.99436    -0.47201  99(v),85(v)
   65. BD ( 1) C 13- H 26       0.99631    -0.46510  101(v),165(v)
   66. BD ( 1) C 14- O 15       0.99182    -0.65682  85(v),95(v),135(v),97(v)
                                                     84(v)
   67. BD ( 1) C 14- H 27       0.99428    -0.46765  95(v),86(v),168(v)
   68. BD ( 1) C 14- H 28       0.99602    -0.45435  98(v),161(v)
 ------ non-Lewis ----------------------------------
   69. BD*( 1)Br  1- C  2       0.01681     0.35317
   70. BD*( 1) C  2- C  3       0.01137     0.88038
   71. BD*( 1) C  2- C  7       0.01091     0.88344
   72. BD*( 2) C  2- C  7       0.19262     0.26504
   73. BD*( 1) C  3- C  4       0.00841     0.91266
   74. BD*( 2) C  3- C  4       0.13900     0.30557
   75. BD*( 1) C  3- H 16       0.00626     0.76608
   76. BD*( 1) C  4- C  5       0.01095     0.88764
   77. BD*( 1) C  4- H 17       0.00609     0.75291
   78. BD*( 1) C  5- C  6       0.01423     0.89666
   79. BD*( 2) C  5- C  6       0.17127     0.30256
   80. BD*( 1) C  5- C 11       0.01090     0.69333
   81. BD*( 1) C  6- C  7       0.01143     0.90474
   82. BD*( 1) C  6- C  8       0.02218     0.69037
   83. BD*( 1) C  7- H 18       0.00759     0.76193
   84. BD*( 1) C  8- C  9       0.02226     0.60447
   85. BD*( 1) C  8- O 12       0.02572     0.53248
   86. BD*( 1) C  8- O 15       0.03389     0.52077
   87. BD*( 1) C  9- C 10       0.00779     0.61314
   88. BD*( 1) C  9- H 19       0.00519     0.67058
   89. BD*( 1) C  9- H 20       0.00607     0.67491
   90. BD*( 1) C 10- C 11       0.00622     0.62283
   91. BD*( 1) C 10- H 21       0.00519     0.67095
   92. BD*( 1) C 10- H 22       0.00719     0.68110
   93. BD*( 1) C 11- H 23       0.00577     0.68050
   94. BD*( 1) C 11- H 24       0.00796     0.66768
   95. BD*( 1) O 12- C 13       0.00861     0.51305
   96. BD*( 1) C 13- C 14       0.01574     0.55997
   97. BD*( 1) C 13- H 25       0.00863     0.65877
   98. BD*( 1) C 13- H 26       0.01528     0.63522
   99. BD*( 1) C 14- O 15       0.00787     0.52334
  100. BD*( 1) C 14- H 27       0.00956     0.65606
  101. BD*( 1) C 14- H 28       0.01484     0.65322
  102. RY ( 1)Br  1             0.00154     0.84802
  103. RY ( 2)Br  1             0.00056     0.91308
  104. RY ( 3)Br  1             0.00031     1.14516
  105. RY ( 4)Br  1             0.00021     1.13436
  106. RY ( 5)Br  1             0.00006     1.09178
  107. RY ( 6)Br  1             0.00003     0.80504
  108. RY ( 7)Br  1             0.00002     0.83430
  109. RY ( 8)Br  1             0.00001     0.91729
  110. RY ( 9)Br  1             0.00000     0.86538
  111. RY ( 1) C  2             0.00282     1.27883
  112. RY ( 2) C  2             0.00238     1.55612
  113. RY ( 3) C  2             0.00023     1.13920
  114. RY ( 4) C  2             0.00021     0.90344
  115. RY ( 1) C  3             0.00239     1.52405
  116. RY ( 2) C  3             0.00166     1.25705
  117. RY ( 3) C  3             0.00023     0.91401
  118. RY ( 4) C  3             0.00019     1.15517
  119. RY ( 1) C  4             0.00242     1.55135
  120. RY ( 2) C  4             0.00156     1.27858
  121. RY ( 3) C  4             0.00020     0.94519
  122. RY ( 4) C  4             0.00014     1.13988
  123. RY ( 1) C  5             0.00232     1.62717
  124. RY ( 2) C  5             0.00210     1.57296
  125. RY ( 3) C  5             0.00075     1.19035
  126. RY ( 4) C  5             0.00025     1.00179
  127. RY ( 1) C  6             0.00270     1.64233
  128. RY ( 2) C  6             0.00203     1.60327
  129. RY ( 3) C  6             0.00068     1.11976
  130. RY ( 4) C  6             0.00049     1.20202
  131. RY ( 1) C  7             0.00300     1.51636
  132. RY ( 2) C  7             0.00224     1.30195
  133. RY ( 3) C  7             0.00034     0.93894
  134. RY ( 4) C  7             0.00027     1.14739
  135. RY ( 1) C  8             0.00481     1.33995
  136. RY ( 2) C  8             0.00303     1.38662
  137. RY ( 3) C  8             0.00201     1.38277
  138. RY ( 4) C  8             0.00073     1.42514
  139. RY ( 1) C  9             0.00183     1.37914
  140. RY ( 2) C  9             0.00082     1.17496
  141. RY ( 3) C  9             0.00039     1.37226
  142. RY ( 4) C  9             0.00028     1.10015
  143. RY ( 1) C 10             0.00148     1.40731
  144. RY ( 2) C 10             0.00039     1.14678
  145. RY ( 3) C 10             0.00034     1.10804
  146. RY ( 4) C 10             0.00014     1.34361
  147. RY ( 1) C 11             0.00149     1.28967
  148. RY ( 2) C 11             0.00077     1.25296
  149. RY ( 3) C 11             0.00046     1.14913
  150. RY ( 4) C 11             0.00014     1.30234
  151. RY ( 1) O 12             0.00088     1.89627
  152. RY ( 2) O 12             0.00064     1.75567
  153. RY ( 3) O 12             0.00021     2.35933
  154. RY ( 4) O 12             0.00013     2.30051
  155. RY ( 5) O 12             0.00010     2.48287
  156. RY ( 6) O 12             0.00006     2.22004
  157. RY ( 7) O 12             0.00003     2.19973
  158. RY ( 8) O 12             0.00002     2.10944
  159. RY ( 9) O 12             0.00001     2.17584
  160. RY ( 1) C 13             0.00173     1.04149
  161. RY ( 2) C 13             0.00092     1.25063
  162. RY ( 3) C 13             0.00032     1.11135
  163. RY ( 4) C 13             0.00020     1.15053
  164. RY ( 1) C 14             0.00170     1.03956
  165. RY ( 2) C 14             0.00092     1.24274
  166. RY ( 3) C 14             0.00035     1.09596
  167. RY ( 4) C 14             0.00021     1.15974
  168. RY ( 1) O 15             0.00101     1.89623
  169. RY ( 2) O 15             0.00079     1.84547
  170. RY ( 3) O 15             0.00023     2.39297
  171. RY ( 4) O 15             0.00012     2.36406
  172. RY ( 5) O 15             0.00011     2.46188
  173. RY ( 6) O 15             0.00007     2.19511
  174. RY ( 7) O 15             0.00002     2.19712
  175. RY ( 8) O 15             0.00001     2.09314
  176. RY ( 9) O 15             0.00001     2.19649
  177. RY ( 1) H 16             0.00059     0.80343
  178. RY ( 1) H 17             0.00051     0.80774
  179. RY ( 1) H 18             0.00179     0.85419
  180. RY ( 1) H 19             0.00174     0.77240
  181. RY ( 1) H 20             0.00119     0.78153
  182. RY ( 1) H 21             0.00084     0.74641
  183. RY ( 1) H 22             0.00186     0.79207
  184. RY ( 1) H 23             0.00083     0.77397
  185. RY ( 1) H 24             0.00096     0.77866
  186. RY ( 1) H 25             0.00071     0.69806
  187. RY ( 1) H 26             0.00138     0.72850
  188. RY ( 1) H 27             0.00087     0.69859
  189. RY ( 1) H 28             0.00137     0.74868
          -------------------------------
                 Total Lewis   67.06733  ( 98.6284%)
           Valence non-Lewis    0.85377  (  1.2555%)
           Rydberg non-Lewis    0.07890  (  0.1160%)
          -------------------------------
               Total unit  1   68.00000  (100.0000%)
              Charge unit  1    0.00000

 $CHOOSE
  ALPHA
   LONE 1 3 3 1 6 1 12 2 15 2 END
   BOND S 1 2 S 2 3 D 2 7 S 3 4 S 3 16 D 4 5 S 4 17 S 5 6 S 5 11 S 6 7 S 6 8
        S 7 18 S 8 9 S 8 12 S 8 15 S 9 10 S 9 19 S 9 20 S 10 11 S 10 21 S 10 22
        S 11 23 S 11 24 S 12 13 S 13 14 S 13 25 S 13 26 S 14 15 S 14 27 S 14 28
        END
  END
  BETA
   LONE 1 3 12 2 15 2 END
   BOND S 1 2 S 2 3 D 2 7 D 3 4 S 3 16 S 4 5 S 4 17 D 5 6 S 5 11 S 6 7 S 6 8
        S 7 18 S 8 9 S 8 12 S 8 15 S 9 10 S 9 19 S 9 20 S 10 11 S 10 21 S 10 22
        S 11 23 S 11 24 S 12 13 S 13 14 S 13 25 S 13 26 S 14 15 S 14 27 S 14 28
        END
  END
 $END

 NBO analysis completed in 1.45 CPU seconds (2 wall seconds)
 Maximum scratch memory used by NBO was 776050 words (5.92 MB)
 Maximum scratch memory used by G16NBO was 80940 words (0.62 MB)

 Opening RunExU unformatted file "/home/rpaton/arbr500/xtb/fukui/Gau-2147205.EUF"
 Read unf file /home/rpaton/arbr500/xtb/fukui/Gau-2147205.EUF:
 Label Gaussian matrix elements                                         IVers= 2 NLab= 2 Version=ES64L-G16RevC.01
 Title energy: -44.567785349378 gnorm: 0.000473625240 xtb: 6.7.0 (08769
 NAtoms=    28 NBasis=   189 NBsUse=   189 ICharg=    -1 Multip=     2 NE=   137 Len12L=8 Len4L=8 IOpCl= 1 ICGU=112
 GAUSSIAN SCALARS                    NI= 1 NR= 1 NTot=       1 LenBuf=    2 NRI=1 N=    1000
 NPA CHARGES                         NI= 0 NR= 1 NTot=      28 LenBuf= 2048 NRI=1 N=      28
 Recovered energy= -3173.77842819     dipole=      1.257554408416     -1.388540624518      0.063259098507
 Unable to Open any file for archive entry.
 1\1\GINC-DYNAMO\SP\UwB97XD\MIDIx\C12H13Br1O2(1-,2)\RPATON\28-Sep-2024\
 0\\# wb97xd midix pop(nbo6,hirshfeld)\\energy: -44.567785349378 gnorm:
  0.000473625240 xtb: 6.7.0 (08769fc)\\-1,2\Br,0,-3.39367,-0.60336,-0.0
 4621\C,0,-1.76131,0.37734,-0.02985\C,0,-1.79339,1.75393,0.10409\C,0,-0
 .59771,2.44498,0.11267\C,0,0.6248,1.79091,-0.0038\C,0,0.63224,0.40349,
 -0.13462\C,0,-0.56466,-0.30035,-0.14609\C,0,1.92928,-0.38605,-0.1951\C
 ,0,3.10324,0.50838,-0.61011\C,0,3.11929,1.74705,0.2733\C,0,1.89151,2.5
 9764,-0.02493\O,0,1.77654,-1.48125,-1.07777\C,0,2.32221,-2.62242,-0.45
 567\C,0,2.11245,-2.33071,1.03161\O,0,2.20545,-0.92663,1.09922\H,0,-2.7
 3428,2.27386,0.19918\H,0,-0.61116,3.52057,0.21283\H,0,-0.55261,-1.3727
 7,-0.26252\H,0,4.02775,-0.06036,-0.50203\H,0,2.97486,0.77618,-1.66024\
 H,0,4.02729,2.32613,0.09935\H,0,3.10551,1.42691,1.31636\H,0,1.81314,3.
 41916,0.69027\H,0,1.99339,3.04166,-1.02137\H,0,1.78497,-3.49926,-0.816
 42\H,0,3.39066,-2.71702,-0.69269\H,0,2.88049,-2.76046,1.67596\H,0,1.12
 062,-2.66291,1.36719\\Version=ES64L-G16RevC.01\State=2-A\HF=-3173.7784
 282\S2=0.761435\S2-1=0.\S2A=0.750064\RMSD=8.710e-09\Dipole=1.2770808,-
 1.3702146,0.0711795\Quadrupole=-7.7229293,5.1124168,2.6105125,-0.69771
 68,-0.4166114,-1.3158644\PG=C01 [X(C12H13Br1O2)]\\@
 The archive entry for this job was punched.


 DON'T WORRY CHARLIE BROWN...WE LEARN MORE FROM LOSING 
 THAN WE DO FROM WINNING.
 THEN THAT MAKES ME THE SMARTEST PERSON IN THE WORLD...
 CHARLES SCHULZ 'PEANUTS'
 Job cpu time:       0 days  0 hours 20 minutes 49.5 seconds.
 Elapsed time:       0 days  0 hours  0 minutes 52.5 seconds.
 File lengths (MBytes):  RWF=     39 Int=      0 D2E=      0 Chk=      4 Scr=      1
 Normal termination of Gaussian 16 at Sat Sep 28 19:28:52 2024.
