 Entering Gaussian System, Link 0=/usr/local/Gaussian/G16C/g16/g16
 Input=arbr79_xtbopt_red.com
 Output=arbr79_xtbopt_red.log
 Initial command:
 /usr/local/Gaussian/G16C/g16/l1.exe "/home/rpaton/arbr500/xtb/fukui/Gau-2300019.inp" -scrdir="/home/rpaton/arbr500/xtb/fukui/"
 Entering Link 1 = /usr/local/Gaussian/G16C/g16/l1.exe PID=   2300020.
  
 Copyright (c) 1988-2019, Gaussian, Inc.  All Rights Reserved.
  
 This is part of the Gaussian(R) 16 program.  It is based on
 the Gaussian(R) 09 system (copyright 2009, Gaussian, Inc.),
 the Gaussian(R) 03 system (copyright 2003, Gaussian, Inc.),
 the Gaussian(R) 98 system (copyright 1998, Gaussian, Inc.),
 the Gaussian(R) 94 system (copyright 1995, Gaussian, Inc.),
 the Gaussian 92(TM) system (copyright 1992, Gaussian, Inc.),
 the Gaussian 90(TM) system (copyright 1990, Gaussian, Inc.),
 the Gaussian 88(TM) system (copyright 1988, Gaussian, Inc.),
 the Gaussian 86(TM) system (copyright 1986, Carnegie Mellon
 University), and the Gaussian 82(TM) system (copyright 1983,
 Carnegie Mellon University). Gaussian is a federally registered
 trademark of Gaussian, Inc.
  
 This software contains proprietary and confidential information,
 including trade secrets, belonging to Gaussian, Inc.
  
 This software is provided under written license and may be
 used, copied, transmitted, or stored only in accord with that
 written license.
  
 The following legend is applicable only to US Government
 contracts under FAR:
  
                    RESTRICTED RIGHTS LEGEND
  
 Use, reproduction and disclosure by the US Government is
 subject to restrictions as set forth in subparagraphs (a)
 and (c) of the Commercial Computer Software - Restricted
 Rights clause in FAR 52.227-19.
  
 Gaussian, Inc.
 340 Quinnipiac St., Bldg. 40, Wallingford CT 06492
  
  
 ---------------------------------------------------------------
 Warning -- This program may not be used in any manner that
 competes with the business of Gaussian, Inc. or will provide
 assistance to any competitor of Gaussian, Inc.  The licensee
 of this program is prohibited from giving any competitor of
 Gaussian, Inc. access to this program.  By using this program,
 the user acknowledges that Gaussian, Inc. is engaged in the
 business of creating and licensing software in the field of
 computational chemistry and represents and warrants to the
 licensee that it is not a competitor of Gaussian, Inc. and that
 it will not use this program in any manner prohibited above.
 ---------------------------------------------------------------
  

 Cite this work as:
 Gaussian 16, Revision C.01,
 M. J. Frisch, G. W. Trucks, H. B. Schlegel, G. E. Scuseria, 
 M. A. Robb, J. R. Cheeseman, G. Scalmani, V. Barone, 
 G. A. Petersson, H. Nakatsuji, X. Li, M. Caricato, A. V. Marenich, 
 J. Bloino, B. G. Janesko, R. Gomperts, B. Mennucci, H. P. Hratchian, 
 J. V. Ortiz, A. F. Izmaylov, J. L. Sonnenberg, D. Williams-Young, 
 F. Ding, F. Lipparini, F. Egidi, J. Goings, B. Peng, A. Petrone, 
 T. Henderson, D. Ranasinghe, V. G. Zakrzewski, J. Gao, N. Rega, 
 G. Zheng, W. Liang, M. Hada, M. Ehara, K. Toyota, R. Fukuda, 
 J. Hasegawa, M. Ishida, T. Nakajima, Y. Honda, O. Kitao, H. Nakai, 
 T. Vreven, K. Throssell, J. A. Montgomery, Jr., J. E. Peralta, 
 F. Ogliaro, M. J. Bearpark, J. J. Heyd, E. N. Brothers, K. N. Kudin, 
 V. N. Staroverov, T. A. Keith, R. Kobayashi, J. Normand, 
 K. Raghavachari, A. P. Rendell, J. C. Burant, S. S. Iyengar, 
 J. Tomasi, M. Cossi, J. M. Millam, M. Klene, C. Adamo, R. Cammi, 
 J. W. Ochterski, R. L. Martin, K. Morokuma, O. Farkas, 
 J. B. Foresman, and D. J. Fox, Gaussian, Inc., Wallingford CT, 2019.
 
 ******************************************
 Gaussian 16:  ES64L-G16RevC.01  3-Jul-2019
                28-Sep-2024 
 ******************************************
 %nprocshared=24
 Will use up to   24 processors via shared memory.
 ----------------------------------
 # wb97xd midix pop(nbo6,hirshfeld)
 ----------------------------------
 1/38=1,172=1/1;
 2/12=2,17=6,18=5,40=1/2;
 3/5=20,11=2,25=1,30=1,74=-58/1,2,3;
 4//1;
 5/5=2,38=5/2;
 6/7=2,8=2,9=2,10=2,28=1,40=1,79=1,113=1,114=1,124=3103,126=1/1,12;
 99/5=1,9=1/99;
 -------------------------------------------------------------------
 energy: -30.071168380890 gnorm: 0.000653469021 xtb: 6.7.0 (08769fc)
 -------------------------------------------------------------------
 Symbolic Z-matrix:
 Charge = -1 Multiplicity = 2
 C                    -3.95261   1.37087  -0.0836 
 C                    -3.08472   0.36984   0.00706 
 C                    -3.44273  -1.09413   0.12662 
 C                    -2.12894  -1.86972  -0.07084 
 C                    -1.06756  -0.81339  -0.02446 
 C                     0.30108  -0.98564  -0.02751 
 C                     1.09697   0.15017   0.00147 
 Br                    2.99506  -0.0527    0.00488 
 C                     0.55823   1.42709   0.02873 
 C                    -0.8164    1.58945   0.02866 
 C                    -1.63093   0.46661   0.00371 
 H                    -3.63378   2.39548  -0.16331 
 H                    -5.01506   1.19716  -0.08267 
 H                    -3.85342  -1.28186   1.12134 
 H                    -4.2028   -1.37728  -0.60113 
 H                    -2.10807  -2.37277  -1.04087 
 H                    -1.97422  -2.62973   0.69621 
 H                     0.74537  -1.96921  -0.05069 
 H                     1.21194   2.28551   0.05219 
 H                    -1.24159   2.58082   0.05369 
 
                          Input orientation:                          
 ---------------------------------------------------------------------
 Center     Atomic      Atomic             Coordinates (Angstroms)
 Number     Number       Type             X           Y           Z
 ---------------------------------------------------------------------
      1          6           0       -3.952610    1.370870   -0.083600
      2          6           0       -3.084720    0.369840    0.007060
      3          6           0       -3.442730   -1.094130    0.126620
      4          6           0       -2.128940   -1.869720   -0.070840
      5          6           0       -1.067560   -0.813390   -0.024460
      6          6           0        0.301080   -0.985640   -0.027510
      7          6           0        1.096970    0.150170    0.001470
      8         35           0        2.995060   -0.052700    0.004880
      9          6           0        0.558230    1.427090    0.028730
     10          6           0       -0.816400    1.589450    0.028660
     11          6           0       -1.630930    0.466610    0.003710
     12          1           0       -3.633780    2.395480   -0.163310
     13          1           0       -5.015060    1.197160   -0.082670
     14          1           0       -3.853420   -1.281860    1.121340
     15          1           0       -4.202800   -1.377280   -0.601130
     16          1           0       -2.108070   -2.372770   -1.040870
     17          1           0       -1.974220   -2.629730    0.696210
     18          1           0        0.745370   -1.969210   -0.050690
     19          1           0        1.211940    2.285510    0.052190
     20          1           0       -1.241590    2.580820    0.053690
 ---------------------------------------------------------------------
                    Distance matrix (angstroms):
                    1          2          3          4          5
     1  C    0.000000
     2  C    1.327973   0.000000
     3  C    2.525944   1.511845   0.000000
     4  C    3.718516   2.436229   1.538367   0.000000
     5  C    3.619116   2.338795   2.396471   1.498169   0.000000
     6  C    4.863143   3.647213   3.748552   2.586208   1.379440
     7  C    5.195729   4.187460   4.708803   3.806794   2.369454
     8  Br   7.092566   6.094446   6.522617   5.437157   4.133327
     9  C    4.512589   3.793327   4.730097   4.254380   2.768713
    10  C    3.145821   2.575498   3.756169   3.701151   2.416515
    11  C    2.493092   1.457011   2.394501   2.389981   1.398778
    12  H    1.076026   2.105638   3.506842   4.523829   4.111157
    13  H    1.076557   2.102076   2.786760   4.211363   4.430401
    14  H    2.915252   2.135564   1.092418   2.177316   3.048498
    15  H    2.807625   2.161580   1.089725   2.196497   3.237321
    16  H    4.281768   3.094174   2.186154   1.092910   2.132467
    17  H    4.530666   3.271935   2.199778   1.090834   2.154179
    18  H    5.764394   4.488216   4.282217   2.876102   2.150191
    19  H    5.246673   4.704585   5.752691   5.333156   3.847750
    20  H    2.971945   2.878843   4.284343   4.539846   3.399567
                    6          7          8          9         10
     6  C    0.000000
     7  C    1.387208   0.000000
     8  Br   2.851132   1.908904   0.000000
     9  C    2.427047   1.386185   2.851050   0.000000
    10  C    2.807669   2.394421   4.150235   1.384185   0.000000
    11  C    2.417161   2.746193   4.655048   2.390726   1.387390
    12  H    5.189753   5.239138   7.068479   4.306693   2.936693
    13  H    5.747086   6.201627   8.107517   5.579143   4.218416
    14  H    4.320587   5.273631   7.046914   5.291017   4.319938
    15  H    4.557122   5.548314   7.343769   5.561351   4.545968
    16  H    2.958890   4.209986   5.702478   4.763626   4.302498
    17  H    2.898930   4.200323   5.640281   4.828729   4.425794
    18  H    1.079510   2.148980   2.955876   3.402379   3.887092
    19  H    3.396534   2.139034   2.940915   1.079246   2.144578
    20  H    3.886652   3.373374   4.988689   2.138006   1.078994
                   11         12         13         14         15
    11  C    0.000000
    12  H    2.785650   0.000000
    13  H    3.463163   1.830412   0.000000
    14  H    3.040675   3.901461   2.990750   0.000000
    15  H    3.221844   3.840467   2.748874   1.760135   0.000000
    16  H    3.062824   5.082727   4.702461   2.985211   2.360565
    17  H    3.191352   5.361497   4.949591   2.351357   2.866756
    18  H    3.403378   6.183863   6.573391   4.795307   5.013756
    19  H    3.375301   4.851756   6.322833   6.287057   6.569800
    20  H    2.150341   2.409152   4.021466   4.783496   4.986392
                   16         17         18         19         20
    16  H    0.000000
    17  H    1.761077   0.000000
    18  H    3.047201   2.896604   0.000000
    19  H    5.823815   5.892874   4.281462   0.000000
    20  H    5.146543   5.300888   4.966053   2.471238   0.000000
 Stoichiometry    C10H9Br(1-,2)
 Framework group  C1[X(C10H9Br)]
 Deg. of freedom    54
 Full point group                 C1      NOp   1
 Largest Abelian subgroup         C1      NOp   1
 Largest concise Abelian subgroup C1      NOp   1
                         Standard orientation:                         
 ---------------------------------------------------------------------
 Center     Atomic      Atomic             Coordinates (Angstroms)
 Number     Number       Type             X           Y           Z
 ---------------------------------------------------------------------
      1          6           0       -3.943562    1.383938   -0.080415
      2          6           0       -3.080490    0.378664    0.009279
      3          6           0       -3.445540   -1.083549    0.129060
      4          6           0       -2.135760   -1.865539   -0.069792
      5          6           0       -1.069178   -0.814420   -0.024378
      6          6           0        0.298599   -0.993365   -0.028818
      7          6           0        1.100067    0.138533   -0.000530
      8         35           0        2.997144   -0.073623    0.000955
      9          6           0        0.567610    1.418072    0.027392
     10          6           0       -0.806209    1.587157    0.028717
     11          6           0       -1.626248    0.468319    0.004479
     12          1           0       -3.619802    2.406983   -0.160348
     13          1           0       -5.006848    1.215429   -0.078434
     14          1           0       -3.856146   -1.269366    1.124174
     15          1           0       -4.207717   -1.362903   -0.597953
     16          1           0       -2.118326   -2.368588   -1.039890
     17          1           0       -1.983992   -2.626373    0.697030
     18          1           0        0.738047   -1.979096   -0.052537
     19          1           0        1.225536    2.273280    0.050277
     20          1           0       -1.226517    2.580593    0.054268
 ---------------------------------------------------------------------
 Rotational constants (GHZ):           2.5156325           0.3727280           0.3261492
 Standard basis: MIDIx (5D, 7F)
 There are   137 symmetry adapted cartesian basis functions of A   symmetry.
 There are   135 symmetry adapted basis functions of A   symmetry.
   135 basis functions,   240 primitive gaussians,   137 cartesian basis functions
    53 alpha electrons       52 beta electrons
       nuclear repulsion energy       787.6656810611 Hartrees.
 NAtoms=   20 NActive=   20 NUniq=   20 SFac= 1.00D+00 NAtFMM=   60 NAOKFM=F Big=F
 Integral buffers will be    131072 words long.
 Raffenetti 2 integral format.
 Two-electron integral symmetry is turned on.
 Nuclear repulsion after empirical dispersion term =      787.6533002744 Hartrees.
 One-electron integrals computed using PRISM.
 NBasis=   135 RedAO= T EigKep=  1.10D-03  NBF=   135
 NBsUse=   135 1.00D-06 EigRej= -1.00D+00 NBFU=   135
 ExpMin= 1.47D-01 ExpMax= 6.10D+03 ExpMxC= 6.10D+03 IAcc=3 IRadAn=         5 AccDes= 0.00D+00
 Harris functional with IExCor= 4639 and IRadAn=       5 diagonalized for initial guess.
 HarFok:  IExCor= 4639 AccDes= 0.00D+00 IRadAn=         5 IDoV= 1 UseB2=F ITyADJ=14
 ICtDFT=  3500011 ScaDFX=  1.000000  1.000000  1.000000  1.000000
 FoFCou: FMM=F IPFlag=           0 FMFlag=      100000 FMFlg1=           0
         NFxFlg=           0 DoJE=T BraDBF=F KetDBF=T FulRan=T
         wScrn=  0.000000 ICntrl=       500 IOpCl=  0 I1Cent=   200000004 NGrid=           0
         NMat0=    1 NMatS0=      1 NMatT0=    0 NMatD0=    1 NMtDS0=    0 NMtDT0=    0
 Petite list used in FoFCou.
 Initial guess <Sx>= 0.0000 <Sy>= 0.0000 <Sz>= 0.5000 <S**2>= 0.7500 S= 0.5000
 Requested convergence on RMS density matrix=1.00D-08 within 128 cycles.
 Requested convergence on MAX density matrix=1.00D-06.
 Requested convergence on             energy=1.00D-06.
 No special actions if energy rises.
 Integral accuracy reduced to 1.0D-05 until final iterations.
 Initial convergence to 1.0D-05 achieved.  Increase integral accuracy.
 SCF Done:  E(UwB97XD) =  -2946.09011475     A.U. after   27 cycles
            NFock= 27  Conv=0.79D-08     -V/T= 2.0018
 <Sx>= 0.0000 <Sy>= 0.0000 <Sz>= 0.5000 <S**2>= 0.7713 S= 0.5106
 <L.S>= 0.000000000000E+00
 Annihilation of the first spin contaminant:
 S**2 before annihilation     0.7713,   after     0.7502

 **********************************************************************

            Population analysis using the SCF Density.

 **********************************************************************

 Orbital symmetries:
 Alpha Orbitals:
       Occupied  (A) (A) (A) (A) (A) (A) (A) (A) (A) (A) (A) (A)
                 (A) (A) (A) (A) (A) (A) (A) (A) (A) (A) (A) (A)
                 (A) (A) (A) (A) (A) (A) (A) (A) (A) (A) (A) (A)
                 (A) (A) (A) (A) (A) (A) (A) (A) (A) (A) (A) (A)
                 (A) (A) (A) (A) (A)
       Virtual   (A) (A) (A) (A) (A) (A) (A) (A) (A) (A) (A) (A)
                 (A) (A) (A) (A) (A) (A) (A) (A) (A) (A) (A) (A)
                 (A) (A) (A) (A) (A) (A) (A) (A) (A) (A) (A) (A)
                 (A) (A) (A) (A) (A) (A) (A) (A) (A) (A) (A) (A)
                 (A) (A) (A) (A) (A) (A) (A) (A) (A) (A) (A) (A)
                 (A) (A) (A) (A) (A) (A) (A) (A) (A) (A) (A) (A)
                 (A) (A) (A) (A) (A) (A) (A) (A) (A) (A)
 Beta  Orbitals:
       Occupied  (A) (A) (A) (A) (A) (A) (A) (A) (A) (A) (A) (A)
                 (A) (A) (A) (A) (A) (A) (A) (A) (A) (A) (A) (A)
                 (A) (A) (A) (A) (A) (A) (A) (A) (A) (A) (A) (A)
                 (A) (A) (A) (A) (A) (A) (A) (A) (A) (A) (A) (A)
                 (A) (A) (A) (A)
       Virtual   (A) (A) (A) (A) (A) (A) (A) (A) (A) (A) (A) (A)
                 (A) (A) (A) (A) (A) (A) (A) (A) (A) (A) (A) (A)
                 (A) (A) (A) (A) (A) (A) (A) (A) (A) (A) (A) (A)
                 (A) (A) (A) (A) (A) (A) (A) (A) (A) (A) (A) (A)
                 (A) (A) (A) (A) (A) (A) (A) (A) (A) (A) (A) (A)
                 (A) (A) (A) (A) (A) (A) (A) (A) (A) (A) (A) (A)
                 (A) (A) (A) (A) (A) (A) (A) (A) (A) (A) (A)
 The electronic state is 2-A.
 Alpha  occ. eigenvalues -- -479.99006 -62.42396 -56.01253 -56.00897 -56.00872
 Alpha  occ. eigenvalues --  -10.09266 -10.08708 -10.08010 -10.06889 -10.06594
 Alpha  occ. eigenvalues --  -10.05843 -10.05011 -10.04510 -10.03954 -10.01670
 Alpha  occ. eigenvalues --   -8.73217  -6.51559  -6.50360  -6.50324  -2.61894
 Alpha  occ. eigenvalues --   -2.61476  -2.61420  -2.60436  -2.60432  -0.82268
 Alpha  occ. eigenvalues --   -0.77874  -0.72386  -0.70317  -0.65904  -0.64301
 Alpha  occ. eigenvalues --   -0.57970  -0.54671  -0.50172  -0.47319  -0.41150
 Alpha  occ. eigenvalues --   -0.40910  -0.39583  -0.36912  -0.35497  -0.34124
 Alpha  occ. eigenvalues --   -0.31619  -0.31338  -0.30014  -0.28890  -0.27134
 Alpha  occ. eigenvalues --   -0.25486  -0.24187  -0.23696  -0.21144  -0.18902
 Alpha  occ. eigenvalues --   -0.16545  -0.12404   0.03598
 Alpha virt. eigenvalues --    0.24208   0.24985   0.28831   0.31909   0.34672
 Alpha virt. eigenvalues --    0.34921   0.36358   0.38014   0.38438   0.40674
 Alpha virt. eigenvalues --    0.43169   0.44104   0.45197   0.47078   0.50481
 Alpha virt. eigenvalues --    0.54017   0.55666   0.58242   0.61012   0.63035
 Alpha virt. eigenvalues --    0.66030   0.68007   0.71788   0.73129   0.74037
 Alpha virt. eigenvalues --    0.76288   0.78663   0.79262   0.79580   0.80384
 Alpha virt. eigenvalues --    0.80800   0.82372   0.84905   0.86676   0.87853
 Alpha virt. eigenvalues --    0.89761   0.92762   0.93407   0.94909   0.97313
 Alpha virt. eigenvalues --    1.02491   1.02850   1.04667   1.04930   1.06093
 Alpha virt. eigenvalues --    1.10396   1.11822   1.12884   1.13777   1.14495
 Alpha virt. eigenvalues --    1.14688   1.15301   1.16121   1.16447   1.17275
 Alpha virt. eigenvalues --    1.18235   1.21046   1.21073   1.21679   1.22960
 Alpha virt. eigenvalues --    1.23921   1.24830   1.26252   1.27235   1.30529
 Alpha virt. eigenvalues --    1.31701   1.33509   1.37895   1.38888   1.42809
 Alpha virt. eigenvalues --    1.47473   1.48222   1.52532   1.57822   1.65253
 Alpha virt. eigenvalues --    1.74506   1.79858   1.80939   1.86007   1.99922
 Alpha virt. eigenvalues --    2.02732   2.19849
  Beta  occ. eigenvalues -- -479.99006 -62.42394 -56.01259 -56.00896 -56.00863
  Beta  occ. eigenvalues --  -10.08870 -10.08706 -10.08019 -10.07010 -10.06601
  Beta  occ. eigenvalues --  -10.05748 -10.05010 -10.04247 -10.03728 -10.01265
  Beta  occ. eigenvalues --   -8.73216  -6.51570  -6.50360  -6.50310  -2.61899
  Beta  occ. eigenvalues --   -2.61481  -2.61412  -2.60430  -2.60425  -0.81854
  Beta  occ. eigenvalues --   -0.77484  -0.72140  -0.69862  -0.65570  -0.63808
  Beta  occ. eigenvalues --   -0.57431  -0.54119  -0.49735  -0.46952  -0.40862
  Beta  occ. eigenvalues --   -0.40707  -0.39366  -0.36569  -0.35230  -0.33974
  Beta  occ. eigenvalues --   -0.31343  -0.30988  -0.29038  -0.28714  -0.26960
  Beta  occ. eigenvalues --   -0.25282  -0.23507  -0.23126  -0.21120  -0.17447
  Beta  occ. eigenvalues --   -0.15127  -0.09536
  Beta virt. eigenvalues --    0.23120   0.24402   0.25525   0.31676   0.32465
  Beta virt. eigenvalues --    0.35076   0.35507   0.36469   0.38197   0.38559
  Beta virt. eigenvalues --    0.40806   0.43402   0.44809   0.46084   0.47589
  Beta virt. eigenvalues --    0.50645   0.54437   0.55828   0.58776   0.61266
  Beta virt. eigenvalues --    0.63395   0.66332   0.68299   0.71953   0.73337
  Beta virt. eigenvalues --    0.74216   0.76406   0.78794   0.79344   0.80034
  Beta virt. eigenvalues --    0.80483   0.80915   0.82498   0.85060   0.86991
  Beta virt. eigenvalues --    0.87918   0.90107   0.92983   0.93603   0.95077
  Beta virt. eigenvalues --    0.97484   1.02712   1.03453   1.04765   1.05838
  Beta virt. eigenvalues --    1.06471   1.10942   1.12052   1.13312   1.14571
  Beta virt. eigenvalues --    1.14767   1.15034   1.15587   1.16343   1.16782
  Beta virt. eigenvalues --    1.17765   1.18423   1.21305   1.21443   1.22070
  Beta virt. eigenvalues --    1.23454   1.24420   1.25092   1.26413   1.27442
  Beta virt. eigenvalues --    1.30816   1.32431   1.33719   1.38092   1.39187
  Beta virt. eigenvalues --    1.43046   1.47611   1.48421   1.52701   1.58035
  Beta virt. eigenvalues --    1.65536   1.74676   1.79965   1.81167   1.86233
  Beta virt. eigenvalues --    2.00227   2.02931   2.20176
          Condensed to atoms (all electrons):
               1          2          3          4          5          6
     1  C    5.133633   0.559396  -0.031132   0.002636   0.001683   0.000061
     2  C    0.559396   4.963389   0.350739  -0.079008  -0.041340   0.000004
     3  C   -0.031132   0.350739   5.166051   0.332890  -0.084894   0.002541
     4  C    0.002636  -0.079008   0.332890   5.127333   0.306795  -0.000766
     5  C    0.001683  -0.041340  -0.084894   0.306795   5.101140   0.527056
     6  C    0.000061   0.000004   0.002541  -0.000766   0.527056   4.944144
     7  C   -0.000019   0.001208  -0.000158   0.000483  -0.028278   0.415304
     8  Br   0.000000   0.000001   0.000001  -0.000039   0.002409  -0.037390
     9  C    0.000195   0.000374  -0.000103   0.000900  -0.041312  -0.030568
    10  C   -0.002064  -0.002567   0.001605   0.000702  -0.009846  -0.019534
    11  C   -0.044434   0.441012  -0.072301  -0.043562   0.428155  -0.033842
    12  H    0.399005  -0.023503   0.004903  -0.000242   0.000346   0.000002
    13  H    0.400539  -0.034104  -0.012427   0.000255  -0.000159  -0.000000
    14  H   -0.001574  -0.037165   0.372061  -0.032835   0.003108  -0.000020
    15  H    0.000004  -0.040438   0.386837  -0.035910   0.005236  -0.000026
    16  H    0.000012   0.002308  -0.031109   0.381878  -0.030728  -0.004589
    17  H   -0.000040   0.004379  -0.033855   0.391305  -0.032140  -0.003482
    18  H    0.000001  -0.000107   0.000096  -0.006641  -0.021708   0.396822
    19  H    0.000001  -0.000034   0.000001   0.000007   0.000184   0.002946
    20  H    0.002231  -0.007851   0.000096  -0.000116   0.003736   0.000016
               7          8          9         10         11         12
     1  C   -0.000019   0.000000   0.000195  -0.002064  -0.044434   0.399005
     2  C    0.001208   0.000001   0.000374  -0.002567   0.441012  -0.023503
     3  C   -0.000158   0.000001  -0.000103   0.001605  -0.072301   0.004903
     4  C    0.000483  -0.000039   0.000900   0.000702  -0.043562  -0.000242
     5  C   -0.028278   0.002409  -0.041312  -0.009846   0.428155   0.000346
     6  C    0.415304  -0.037390  -0.030568  -0.019534  -0.033842   0.000002
     7  C    5.224434   0.180409   0.471122  -0.050370  -0.039046  -0.000004
     8  Br   0.180409  35.120161  -0.038229   0.001915   0.000432  -0.000000
     9  C    0.471122  -0.038229   4.934667   0.530735  -0.032613  -0.000024
    10  C   -0.050370   0.001915   0.530735   4.981590   0.384468   0.001071
    11  C   -0.039046   0.000432  -0.032613   0.384468   5.113599  -0.013299
    12  H   -0.000004  -0.000000  -0.000024   0.001071  -0.013299   0.561238
    13  H    0.000001  -0.000000  -0.000003   0.000152   0.005172  -0.037845
    14  H   -0.000001  -0.000000   0.000004   0.000036  -0.000672  -0.000203
    15  H    0.000002  -0.000000   0.000003  -0.000042   0.003364  -0.000148
    16  H    0.000081   0.000000  -0.000003  -0.000097  -0.000187   0.000006
    17  H    0.000079  -0.000000  -0.000006  -0.000038   0.000904   0.000004
    18  H   -0.026010  -0.000623   0.002906   0.000067   0.003083   0.000000
    19  H   -0.029315  -0.000342   0.398313  -0.022660   0.003733   0.000003
    20  H    0.003436  -0.000076  -0.029386   0.402039  -0.023174   0.004091
              13         14         15         16         17         18
     1  C    0.400539  -0.001574   0.000004   0.000012  -0.000040   0.000001
     2  C   -0.034104  -0.037165  -0.040438   0.002308   0.004379  -0.000107
     3  C   -0.012427   0.372061   0.386837  -0.031109  -0.033855   0.000096
     4  C    0.000255  -0.032835  -0.035910   0.381878   0.391305  -0.006641
     5  C   -0.000159   0.003108   0.005236  -0.030728  -0.032140  -0.021708
     6  C   -0.000000  -0.000020  -0.000026  -0.004589  -0.003482   0.396822
     7  C    0.000001  -0.000001   0.000002   0.000081   0.000079  -0.026010
     8  Br  -0.000000  -0.000000  -0.000000   0.000000  -0.000000  -0.000623
     9  C   -0.000003   0.000004   0.000003  -0.000003  -0.000006   0.002906
    10  C    0.000152   0.000036  -0.000042  -0.000097  -0.000038   0.000067
    11  C    0.005172  -0.000672   0.003364  -0.000187   0.000904   0.003083
    12  H   -0.037845  -0.000203  -0.000148   0.000006   0.000004   0.000000
    13  H    0.589701   0.001452   0.002649  -0.000009  -0.000005  -0.000000
    14  H    0.001452   0.580579  -0.038299   0.003556  -0.006060  -0.000004
    15  H    0.002649  -0.038299   0.575220  -0.006632   0.001321  -0.000002
    16  H   -0.000009   0.003556  -0.006632   0.550425  -0.031409   0.000945
    17  H   -0.000005  -0.006060   0.001321  -0.031409   0.550070   0.001622
    18  H   -0.000000  -0.000004  -0.000002   0.000945   0.001622   0.516744
    19  H   -0.000000  -0.000000  -0.000000  -0.000000  -0.000000  -0.000091
    20  H   -0.000111  -0.000002  -0.000003   0.000004   0.000004   0.000009
              19         20
     1  C    0.000001   0.002231
     2  C   -0.000034  -0.007851
     3  C    0.000001   0.000096
     4  C    0.000007  -0.000116
     5  C    0.000184   0.003736
     6  C    0.002946   0.000016
     7  C   -0.029315   0.003436
     8  Br  -0.000342  -0.000076
     9  C    0.398313  -0.029386
    10  C   -0.022660   0.402039
    11  C    0.003733  -0.023174
    12  H    0.000003   0.004091
    13  H   -0.000000  -0.000111
    14  H   -0.000000  -0.000002
    15  H   -0.000000  -0.000003
    16  H   -0.000000   0.000004
    17  H   -0.000000   0.000004
    18  H   -0.000091   0.000009
    19  H    0.511585  -0.005300
    20  H   -0.005300   0.519590
          Atomic-Atomic Spin Densities.
               1          2          3          4          5          6
     1  C    0.509034  -0.105501  -0.002667  -0.000173   0.000719   0.000022
     2  C   -0.105501   0.019138   0.011152   0.005168  -0.009749  -0.000800
     3  C   -0.002667   0.011152  -0.000489  -0.000959   0.000899  -0.000088
     4  C   -0.000173   0.005168  -0.000959   0.005295  -0.004185  -0.002775
     5  C    0.000719  -0.009749   0.000899  -0.004185  -0.005477   0.049096
     6  C    0.000022  -0.000800  -0.000088  -0.002775   0.049096   0.140038
     7  C   -0.000010   0.000194   0.000001   0.000253  -0.013907  -0.104285
     8  Br   0.000000  -0.000000  -0.000000  -0.000000   0.000111   0.001657
     9  C    0.000018  -0.000134   0.000002  -0.000033   0.004164  -0.001556
    10  C    0.004163  -0.011848  -0.000187   0.000138   0.003864   0.007993
    11  C   -0.020749   0.087622   0.000215   0.001994  -0.052286  -0.013209
    12  H    0.000328  -0.002111  -0.000120  -0.000001   0.000015  -0.000000
    13  H    0.000188  -0.001646   0.000348  -0.000007  -0.000002  -0.000000
    14  H    0.003297  -0.004146  -0.011612   0.002032   0.000172   0.000105
    15  H    0.003137  -0.006678  -0.000937  -0.003774   0.000797   0.000029
    16  H    0.000007  -0.000442   0.000087   0.000858   0.001220  -0.000096
    17  H    0.000002  -0.000075  -0.001228  -0.000588   0.001159   0.000413
    18  H    0.000000  -0.000001  -0.000000   0.000098  -0.000992   0.001422
    19  H    0.000000   0.000000   0.000000  -0.000000  -0.000011   0.000072
    20  H    0.000108   0.000281  -0.000001   0.000002   0.000019  -0.000027
               7          8          9         10         11         12
     1  C   -0.000010   0.000000   0.000018   0.004163  -0.020749   0.000328
     2  C    0.000194  -0.000000  -0.000134  -0.011848   0.087622  -0.002111
     3  C    0.000001  -0.000000   0.000002  -0.000187   0.000215  -0.000120
     4  C    0.000253  -0.000000  -0.000033   0.000138   0.001994  -0.000001
     5  C   -0.013907   0.000111   0.004164   0.003864  -0.052286   0.000015
     6  C   -0.104285   0.001657  -0.001556   0.007993  -0.013209  -0.000000
     7  C    0.487530  -0.017455  -0.019317  -0.023080   0.010891   0.000000
     8  Br  -0.017455   0.011545  -0.000264   0.000212  -0.000057  -0.000000
     9  C   -0.019317  -0.000264  -0.129301   0.024660  -0.006445  -0.000005
    10  C   -0.023080   0.000212   0.024660   0.340217  -0.107384   0.000142
    11  C    0.010891  -0.000057  -0.006445  -0.107384   0.296082   0.000273
    12  H    0.000000  -0.000000  -0.000005   0.000142   0.000273  -0.020093
    13  H   -0.000000   0.000000   0.000000  -0.000013  -0.000061  -0.000017
    14  H   -0.000008   0.000000   0.000002   0.000151  -0.003305  -0.000008
    15  H   -0.000002   0.000000   0.000000   0.000017  -0.000590   0.000023
    16  H   -0.000008   0.000000  -0.000002   0.000008   0.000148   0.000000
    17  H   -0.000037   0.000000  -0.000000   0.000024  -0.000285  -0.000000
    18  H   -0.000848   0.000212   0.000018  -0.000014   0.000025  -0.000000
    19  H   -0.000471   0.000098   0.001758  -0.000573   0.000073  -0.000000
    20  H    0.000063  -0.000000  -0.001181   0.001458  -0.001678  -0.000067
              13         14         15         16         17         18
     1  C    0.000188   0.003297   0.003137   0.000007   0.000002   0.000000
     2  C   -0.001646  -0.004146  -0.006678  -0.000442  -0.000075  -0.000001
     3  C    0.000348  -0.011612  -0.000937   0.000087  -0.001228  -0.000000
     4  C   -0.000007   0.002032  -0.003774   0.000858  -0.000588   0.000098
     5  C   -0.000002   0.000172   0.000797   0.001220   0.001159  -0.000992
     6  C   -0.000000   0.000105   0.000029  -0.000096   0.000413   0.001422
     7  C   -0.000000  -0.000008  -0.000002  -0.000008  -0.000037  -0.000848
     8  Br   0.000000   0.000000   0.000000   0.000000   0.000000   0.000212
     9  C    0.000000   0.000002   0.000000  -0.000002  -0.000000   0.000018
    10  C   -0.000013   0.000151   0.000017   0.000008   0.000024  -0.000014
    11  C   -0.000061  -0.003305  -0.000590   0.000148  -0.000285   0.000025
    12  H   -0.000017  -0.000008   0.000023   0.000000  -0.000000  -0.000000
    13  H   -0.020974   0.000041  -0.000113   0.000001   0.000000   0.000000
    14  H    0.000041   0.031749  -0.009779  -0.000216   0.001671  -0.000001
    15  H   -0.000113  -0.009779   0.027279   0.000309  -0.000670   0.000001
    16  H    0.000001  -0.000216   0.000309  -0.004807   0.000975  -0.000001
    17  H    0.000000   0.001671  -0.000670   0.000975  -0.002059  -0.000022
    18  H    0.000000  -0.000001   0.000001  -0.000001  -0.000022  -0.005742
    19  H    0.000000   0.000000  -0.000000  -0.000000   0.000000   0.000001
    20  H    0.000002   0.000002  -0.000001   0.000000   0.000000  -0.000000
              19         20
     1  C    0.000000   0.000108
     2  C    0.000000   0.000281
     3  C    0.000000  -0.000001
     4  C   -0.000000   0.000002
     5  C   -0.000011   0.000019
     6  C    0.000072  -0.000027
     7  C   -0.000471   0.000063
     8  Br   0.000098  -0.000000
     9  C    0.001758  -0.001181
    10  C   -0.000573   0.001458
    11  C    0.000073  -0.001678
    12  H   -0.000000  -0.000067
    13  H    0.000000   0.000002
    14  H    0.000000   0.000002
    15  H   -0.000000  -0.000001
    16  H   -0.000000   0.000000
    17  H    0.000000   0.000000
    18  H    0.000001  -0.000000
    19  H    0.003412   0.000143
    20  H    0.000143  -0.013308
 Mulliken charges and spin densities:
               1          2
     1  C   -0.420135   0.391924
     2  C   -0.056691  -0.019575
     3  C   -0.351842  -0.005586
     4  C   -0.346063   0.003341
     5  C   -0.089442  -0.024375
     6  C   -0.158678   0.078009
     7  C   -0.123356   0.319503
     8  Br  -0.228629  -0.003940
     9  C   -0.166972  -0.127616
    10  C   -0.197162   0.239947
    11  C   -0.080794   0.191274
    12  H    0.104598  -0.021640
    13  H    0.084743  -0.022251
    14  H    0.156041   0.010148
    15  H    0.146863   0.009049
    16  H    0.165548  -0.001959
    17  H    0.157345  -0.000722
    18  H    0.132889  -0.005846
    19  H    0.140971   0.004501
    20  H    0.130766  -0.014187
 Sum of Mulliken charges =  -1.00000   1.00000
 Mulliken charges and spin densities with hydrogens summed into heavy atoms:
               1          2
     1  C   -0.230794   0.348032
     2  C   -0.056691  -0.019575
     3  C   -0.048937   0.013611
     4  C   -0.023170   0.000661
     5  C   -0.089442  -0.024375
     6  C   -0.025789   0.072164
     7  C   -0.123356   0.319503
     8  Br  -0.228629  -0.003940
     9  C   -0.026002  -0.123116
    10  C   -0.066396   0.225760
    11  C   -0.080794   0.191274
 Electronic spatial extent (au):  <R**2>=           3081.1811
 Charge=             -1.0000 electrons
 Dipole moment (field-independent basis, Debye):
    X=              3.7188    Y=             -2.1083    Z=              0.0610  Tot=              4.2753
 Quadrupole moment (field-independent basis, Debye-Ang):
   XX=           -115.8497   YY=            -83.1750   ZZ=            -84.8913
   XY=              7.2522   XZ=             -0.2410   YZ=              0.1300
 Traceless Quadrupole moment (field-independent basis, Debye-Ang):
   XX=            -21.2110   YY=             11.4637   ZZ=              9.7474
   XY=              7.2522   XZ=             -0.2410   YZ=              0.1300
 Octapole moment (field-independent basis, Debye-Ang**2):
  XXX=            187.6634  YYY=             -4.0566  ZZZ=              0.4026  XYY=             50.7078
  XXY=            -28.2316  XXZ=              0.8746  XZZ=             41.7059  YZZ=             -6.6091
  YYZ=             -0.0742  XYZ=             -0.2774
 Hexadecapole moment (field-independent basis, Debye-Ang**3):
 XXXX=          -3438.3616 YYYY=           -682.1111 ZZZZ=           -105.2393 XXXY=            104.1600
 XXXZ=             -1.9064 YYYX=              2.6166 YYYZ=             -0.6914 ZZZX=             -2.0464
 ZZZY=              0.6033 XXYY=           -671.0762 XXZZ=           -550.9925 YYZZ=           -138.3029
 XXYZ=              2.1091 YYXZ=              1.3051 ZZXY=             12.6700
 N-N= 7.876533002744D+02 E-N=-8.606986935055D+03  KE= 2.940910880291D+03
 There are a total of      454868 grid points.
 ElSum from          density=      105.0000058016
 ElSum from atomic densities=      103.9999819434
 Hirshfeld populations at iteration   1 (CA, CB, DipXYZ):
               1          2          3          4          5
     1  C    3.237838   2.987638  -0.011354   0.019735   0.000119
     2  C    3.058646   3.000199   0.010636  -0.083460   0.011611
     3  C    3.031898   3.024551   0.034503   0.000023  -0.007808
     4  C    3.028459   3.024399  -0.012762   0.028074   0.004912
     5  C    3.029620   3.002908  -0.049822  -0.045233  -0.004687
     6  C    3.097727   3.017662   0.009796  -0.016913  -0.001801
     7  C    3.134954   2.936399   0.047707  -0.013284  -0.000023
     8  Br  17.605874  17.577461  -0.104241   0.010621   0.000032
     9  C    3.034564   3.049058   0.012222   0.028962   0.001269
    10  C    3.132521   2.976745  -0.033010   0.006553  -0.000764
    11  C    3.108496   2.967307   0.005606   0.020616  -0.002142
    12  H    0.511296   0.493602   0.039851   0.133662  -0.010897
    13  H    0.515793   0.497809  -0.133001  -0.022722  -0.000019
    14  H    0.499645   0.492529  -0.045756  -0.022643   0.117823
    15  H    0.499372   0.493343  -0.088043  -0.033549  -0.086202
    16  H    0.492439   0.492906   0.000127  -0.060894  -0.119575
    17  H    0.493489   0.493598   0.016829  -0.092652   0.093977
    18  H    0.497007   0.491351   0.046267  -0.135818  -0.003433
    19  H    0.490826   0.492117   0.073271   0.124908   0.003203
    20  H    0.499537   0.488420  -0.051168   0.132093   0.003525
       Tot  53.000003  52.000003  -0.232342  -0.021921  -0.000880

 Dip from Atomic Chgs              1.695392  -0.807534   0.024865
         Total Dipole              1.463051  -0.829455   0.023985

 Hirshfeld charges, spin densities, dipoles, and CM5 charges using IRadAn=      5:
              Q-H        S-H        Dx         Dy         Dz        Q-CM5   
     1  C   -0.225476   0.250200  -0.011354   0.019735   0.000119  -0.326014
     2  C   -0.058846   0.058447   0.010636  -0.083460   0.011611  -0.074733
     3  C   -0.056449   0.007347   0.034503   0.000023  -0.007808  -0.158866
     4  C   -0.052858   0.004061  -0.012762   0.028074   0.004912  -0.154925
     5  C   -0.032528   0.026712  -0.049822  -0.045233  -0.004687  -0.043970
     6  C   -0.115389   0.080065   0.009796  -0.016913  -0.001801  -0.166997
     7  C   -0.071353   0.198555   0.047707  -0.013284  -0.000023  -0.092282
     8  Br  -0.183335   0.028413  -0.104241   0.010621   0.000032  -0.168889
     9  C   -0.083622  -0.014494   0.012222   0.028962   0.001269  -0.137776
    10  C   -0.109266   0.155776  -0.033010   0.006553  -0.000764  -0.162550
    11  C   -0.075804   0.141189   0.005606   0.020616  -0.002142  -0.081719
    12  H   -0.004899   0.017694   0.039851   0.133662  -0.010897   0.049824
    13  H   -0.013602   0.017983  -0.133001  -0.022722  -0.000019   0.040605
    14  H    0.007826   0.007117  -0.045756  -0.022643   0.117823   0.063473
    15  H    0.007285   0.006029  -0.088043  -0.033549  -0.086202   0.062740
    16  H    0.014654  -0.000467   0.000127  -0.060894  -0.119575   0.070115
    17  H    0.012914  -0.000109   0.016829  -0.092652   0.093977   0.068167
    18  H    0.011642   0.005655   0.046267  -0.135818  -0.003433   0.069567
    19  H    0.017057  -0.001292   0.073271   0.124908   0.003203   0.074611
    20  H    0.012043   0.011117  -0.051168   0.132093   0.003525   0.069612
       Tot  -1.000006   1.000000  -0.232342  -0.021921  -0.000880  -1.000006
 Hirshfeld charges and spin densities with hydrogens summed into heavy atoms:
              Q-H        S-H       Q-CM5   
     1  C   -0.243977   0.285878  -0.235584
     2  C   -0.058846   0.058447  -0.074733
     3  C   -0.041339   0.020493  -0.032652
     4  C   -0.025290   0.003485  -0.016643
     5  C   -0.032528   0.026712  -0.043970
     6  C   -0.103747   0.085720  -0.097430
     7  C   -0.071353   0.198555  -0.092282
     8  Br  -0.183335   0.028413  -0.168889
     9  C   -0.066565  -0.015786  -0.063165
    10  C   -0.097223   0.166893  -0.092938
    11  C   -0.075804   0.141189  -0.081719
 
 EQQ= 0.865784233763E-01 EQD=-0.473461368000E-01 EDD= 0.223130941768E-03
 EQQ+QD+DD= 0.394554175181E-01
 
                          Isotropic Fermi Contact Couplings
        Atom                 a.u.       MegaHertz       Gauss      10(-4) cm-1
     1  C(13)              0.03318      37.29584      13.30808      12.44055
     2  C(13)             -0.00810      -9.10919      -3.25039      -3.03850
     3  C(13)             -0.00227      -2.55245      -0.91078      -0.85141
     4  C(13)             -0.00031      -0.34329      -0.12249      -0.11451
     5  C(13)             -0.00508      -5.70579      -2.03597      -1.90325
     6  C(13)              0.00304       3.41771       1.21952       1.14003
     7  C(13)              0.03472      39.03435      13.92843      13.02046
     8  Br(79)            -0.00186      -2.08516      -0.74404      -0.69553
     9  C(13)             -0.01758     -19.76389      -7.05225      -6.59253
    10  C(13)              0.01951      21.93743       7.82782       7.31754
    11  C(13)              0.01372      15.42511       5.50406       5.14526
    12  H(1)              -0.00419     -18.71517      -6.67804      -6.24271
    13  H(1)              -0.00420     -18.75610      -6.69264      -6.25636
    14  H(1)               0.00233      10.41735       3.71717       3.47485
    15  H(1)               0.00188       8.38559       2.99219       2.79713
    16  H(1)              -0.00044      -1.94978      -0.69573      -0.65038
    17  H(1)              -0.00046      -2.07637      -0.74090      -0.69260
    18  H(1)              -0.00120      -5.35679      -1.91144      -1.78683
    19  H(1)               0.00091       4.06068       1.44895       1.35450
    20  H(1)              -0.00288     -12.87997      -4.59589      -4.29630
 --------------------------------------------------------
       Center         ----  Spin Dipole Couplings  ----
                      3XX-RR        3YY-RR        3ZZ-RR
 --------------------------------------------------------
     1   Atom       -0.163332     -0.166969      0.330301
     2   Atom       -0.007101     -0.016257      0.023359
     3   Atom        0.000931      0.004769     -0.005701
     4   Atom       -0.001699      0.002995     -0.001295
     5   Atom        0.000940     -0.003557      0.002617
     6   Atom       -0.046272     -0.043680      0.089953
     7   Atom       -0.154630     -0.170251      0.324881
     8   Atom       -0.217280     -0.013188      0.230469
     9   Atom        0.041083      0.037042     -0.078125
    10   Atom       -0.110802     -0.108405      0.219208
    11   Atom       -0.092403     -0.104123      0.196526
    12   Atom       -0.017590      0.020561     -0.002971
    13   Atom        0.026802     -0.024696     -0.002107
    14   Atom       -0.000009      0.002440     -0.002431
    15   Atom       -0.000331      0.003122     -0.002791
    16   Atom       -0.000469      0.002698     -0.002228
    17   Atom       -0.000438      0.002752     -0.002314
    18   Atom       -0.005246      0.008256     -0.003010
    19   Atom        0.003118      0.001153     -0.004270
    20   Atom       -0.010260      0.013871     -0.003611
 --------------------------------------------------------
                        XY            XZ            YZ
 --------------------------------------------------------
     1   Atom        0.000941     -0.011364      0.047179
     2   Atom       -0.008612     -0.001475      0.004686
     3   Atom        0.002699     -0.000273     -0.000982
     4   Atom        0.000938     -0.000081     -0.000391
     5   Atom       -0.004704      0.000976     -0.000138
     6   Atom        0.002295     -0.001919     -0.002556
     7   Atom       -0.000087     -0.000338     -0.010709
     8   Atom        0.024271     -0.005337     -0.005444
     9   Atom       -0.006674      0.000137      0.002740
    10   Atom        0.000116     -0.001350     -0.012055
    11   Atom        0.000942      0.002903     -0.008434
    12   Atom        0.013934     -0.001532     -0.001592
    13   Atom        0.009496     -0.000501      0.002339
    14   Atom        0.002188     -0.000691     -0.002460
    15   Atom        0.002274      0.000303      0.000840
    16   Atom        0.000962      0.000532      0.001904
    17   Atom        0.001108     -0.000246     -0.001315
    18   Atom       -0.006622     -0.000210      0.000218
    19   Atom       -0.002708     -0.000039      0.000102
    20   Atom       -0.010909     -0.000457      0.000643
 --------------------------------------------------------


 ---------------------------------------------------------------------------------
              Anisotropic Spin Dipole Couplings in Principal Axis System
 ---------------------------------------------------------------------------------

       Atom             a.u.   MegaHertz   Gauss  10(-4) cm-1        Axes

              Baa    -0.1719   -23.066    -8.230    -7.694 -0.2342  0.9674 -0.0962
     1 C(13)  Bbb    -0.1631   -21.887    -7.810    -7.301  0.9719  0.2352 -0.0001
              Bcc     0.3350    44.952    16.040    14.995 -0.0225  0.0935  0.9954
 
              Baa    -0.0217    -2.908    -1.038    -0.970  0.5019  0.8618 -0.0732
     2 C(13)  Bbb    -0.0024    -0.327    -0.117    -0.109  0.8609 -0.4897  0.1382
              Bcc     0.0241     3.235     1.154     1.079 -0.0832  0.1324  0.9877
 
              Baa    -0.0058    -0.777    -0.277    -0.259  0.0036  0.0917  0.9958
     3 C(13)  Bbb    -0.0005    -0.061    -0.022    -0.020  0.8906 -0.4531  0.0385
              Bcc     0.0062     0.838     0.299     0.280  0.4547  0.8867 -0.0833
 
              Baa    -0.0019    -0.252    -0.090    -0.084  0.9821 -0.1883  0.0093
     4 C(13)  Bbb    -0.0013    -0.179    -0.064    -0.060  0.0075  0.0885  0.9960
              Bcc     0.0032     0.431     0.154     0.144  0.1884  0.9781 -0.0883
 
              Baa    -0.0065    -0.878    -0.313    -0.293  0.5359  0.8431 -0.0444
     5 C(13)  Bbb     0.0022     0.291     0.104     0.097 -0.3669  0.2800  0.8871
              Bcc     0.0044     0.586     0.209     0.196  0.7604 -0.4592  0.4594
 
              Baa    -0.0476    -6.389    -2.280    -2.131  0.8644 -0.5027  0.0027
     6 C(13)  Bbb    -0.0424    -5.692    -2.031    -1.899  0.5025  0.8642  0.0240
              Bcc     0.0900    12.081     4.311     4.030 -0.0144 -0.0194  0.9997
 
              Baa    -0.1705   -22.877    -8.163    -7.631  0.0059  0.9997  0.0216
     7 C(13)  Bbb    -0.1546   -20.750    -7.404    -6.921  1.0000 -0.0059  0.0006
              Bcc     0.3251    43.627    15.567    14.552 -0.0007 -0.0216  0.9998
 
              Baa    -0.2202   -29.534   -10.538    -9.851  0.9932 -0.1162  0.0104
     8 Br(79) Bbb    -0.0105    -1.407    -0.502    -0.469  0.1159  0.9929  0.0250
              Bcc     0.2307    30.941    11.041    10.321 -0.0132 -0.0236  0.9996
 
              Baa    -0.0782   -10.492    -3.744    -3.500 -0.0025 -0.0239  0.9997
     9 C(13)  Bbb     0.0321     4.312     1.539     1.438  0.5976  0.8015  0.0207
              Bcc     0.0461     6.180     2.205     2.061  0.8018 -0.5975 -0.0123
 
              Baa    -0.1108   -14.870    -5.306    -4.960  0.9994 -0.0341  0.0028
    10 C(13)  Bbb    -0.1088   -14.606    -5.212    -4.872  0.0339  0.9987  0.0368
              Bcc     0.2197    29.476    10.518     9.832 -0.0041 -0.0367  0.9993
 
              Baa    -0.1044   -14.016    -5.001    -4.675 -0.0848  0.9960  0.0287
    11 C(13)  Bbb    -0.0923   -12.392    -4.422    -4.133  0.9963  0.0851 -0.0075
              Bcc     0.1968    26.408     9.423     8.809  0.0099 -0.0280  0.9996
 
              Baa    -0.0222   -11.837    -4.224    -3.948  0.9501 -0.3078  0.0503
    12 H(1)   Bbb    -0.0031    -1.634    -0.583    -0.545 -0.0260  0.0825  0.9963
              Bcc     0.0252    13.471     4.807     4.494  0.3108  0.9479 -0.0704
 
              Baa    -0.0266   -14.205    -5.069    -4.738 -0.1751  0.9798 -0.0970
    13 H(1)   Bbb    -0.0019    -1.000    -0.357    -0.333 -0.0144  0.0960  0.9953
              Bcc     0.0285    15.205     5.426     5.072  0.9845  0.1756 -0.0027
 
              Baa    -0.0035    -1.853    -0.661    -0.618 -0.0753  0.4067  0.9105
    14 H(1)   Bbb    -0.0011    -0.602    -0.215    -0.201  0.8926 -0.3795  0.2434
              Bcc     0.0046     2.455     0.876     0.819  0.4445  0.8310 -0.3344
 
              Baa    -0.0029    -1.552    -0.554    -0.518  0.0078 -0.1408  0.9900
    15 H(1)   Bbb    -0.0015    -0.775    -0.277    -0.259  0.8983 -0.4339 -0.0688
              Bcc     0.0044     2.327     0.830     0.776  0.4392  0.8899  0.1231
 
              Baa    -0.0029    -1.545    -0.551    -0.515 -0.0858 -0.3078  0.9476
    16 H(1)   Bbb    -0.0007    -0.394    -0.141    -0.132  0.9630 -0.2695 -0.0003
              Bcc     0.0036     1.939     0.692     0.647  0.2555  0.9125  0.3195
 
              Baa    -0.0026    -1.406    -0.502    -0.469 -0.0122  0.2395  0.9708
    17 H(1)   Bbb    -0.0008    -0.412    -0.147    -0.137  0.9590 -0.2721  0.0791
              Bcc     0.0034     1.818     0.649     0.606  0.2831  0.9320 -0.2264
 
              Baa    -0.0080    -4.244    -1.514    -1.416  0.9256  0.3778  0.0226
    18 H(1)   Bbb    -0.0030    -1.608    -0.574    -0.536 -0.0133 -0.0271  0.9995
              Bcc     0.0110     5.852     2.088     1.952 -0.3783  0.9255  0.0201
 
              Baa    -0.0043    -2.279    -0.813    -0.760 -0.0020 -0.0199  0.9998
    19 H(1)   Bbb    -0.0007    -0.397    -0.142    -0.133  0.5741  0.8186  0.0174
              Bcc     0.0050     2.677     0.955     0.893  0.8188 -0.5741 -0.0098
 
              Baa    -0.0145    -7.717    -2.754    -2.574  0.9332  0.3589  0.0180
    20 H(1)   Bbb    -0.0036    -1.939    -0.692    -0.647 -0.0042 -0.0393  0.9992
              Bcc     0.0181     9.657     3.446     3.221 -0.3593  0.9326  0.0352
 

 ---------------------------------------------------------------------------------

 Running external command "gaunbo6 R"
         input file       "/home/rpaton/arbr500/xtb/fukui/Gau-2300020.EIn"
         output file      "/home/rpaton/arbr500/xtb/fukui/Gau-2300020.EOu"
         message file     "/home/rpaton/arbr500/xtb/fukui/Gau-2300020.EMs"
         fchk file        "/home/rpaton/arbr500/xtb/fukui/Gau-2300020.EFC"
         mat. el file     "/home/rpaton/arbr500/xtb/fukui/Gau-2300020.EUF"

 Writing WrtUnf unformatted file "/home/rpaton/arbr500/xtb/fukui/Gau-2300020.EUF"
 Gaussian matrix elements                                         Version   2 NLab=11 Len12L=8 Len4L=8
 Write SHELL TO ATOM MAP                   from file      0 offset           0 length                  79 to matrix element file.
 Write SHELL TYPES                         from file      0 offset           0 length                  79 to matrix element file.
 Write NUMBER OF PRIMITIVES PER SHELL      from file      0 offset           0 length                  79 to matrix element file.
 Write PRIMITIVE EXPONENTS                 from file      0 offset           0 length                 142 to matrix element file.
 Write CONTRACTION COEFFICIENTS            from file      0 offset           0 length                 142 to matrix element file.
 Write P(S=P) CONTRACTION COEFFICIENTS     from file      0 offset           0 length                 142 to matrix element file.
 Write COORDINATES OF EACH SHELL           from file      0 offset           0 length                 237 to matrix element file.
 Write BONDS PER ATOM                      from file      0 offset           0 length                  20 to matrix element file.
 Write BONDED ATOMS                        from file      0 offset           0 length                  42 to matrix element file.
 Write BOND TYPES                          from file      0 offset           0 length                  42 to matrix element file.
 Write ONIOM CHARGE/MULT                   from file      0 offset           0 length                  32 to matrix element file.
 Write ONIOM ATOM LAYERS                   from file      0 offset           0 length                  20 to matrix element file.
 Write ONIOM ATOM MODIFIERS                from file      0 offset           0 length                  20 to matrix element file.
 Write ONIOM ATOM TYPES                    from file      0 offset           0 length                  20 to matrix element file.
 Write ONIOM LINK ATOMS                    from file      0 offset           0 length                  20 to matrix element file.
 Write ONIOM LINK CHARGES                  from file      0 offset           0 length                  20 to matrix element file.
 Write ONIOM LINK DISTANCES                from file      0 offset           0 length                  80 to matrix element file.
 Write SYMINF INTS                         from file      0 offset           0 length                  26 to matrix element file.
 Write ROTTR TO SO                         from file      0 offset           0 length                  12 to matrix element file.
 Write GAUSSIAN SCALARS                    from file    501 offset           0 to matrix element file.
 Write OPTIMIZATION FLAGS                  from file      0 offset           0 length                  20 to matrix element file.
 Write INTEGER ISO                         from file      0 offset           0 length                  20 to matrix element file.
 Write INTEGER SPIN                        from file      0 offset           0 length                  20 to matrix element file.
 Write REAL ZEFFECTIVE                     from file      0 offset           0 length                  20 to matrix element file.
 Write REAL QUADRUPOLEMOMENT               from file      0 offset           0 length                  20 to matrix element file.
 Write REAL GFACTOR                        from file      0 offset           0 length                  20 to matrix element file.
 Write REAL ZNUCLEAR                       from file      0 offset           0 length                  20 to matrix element file.
 Write MULLIKEN CHARGES                    from file      0 offset           0 length                  20 to matrix element file.
 Write TYPE 6 CHARGES                      from file      0 offset           0 length                  20 to matrix element file.
 Write TYPE 7 CHARGES                      from file      0 offset           0 length                  20 to matrix element file.
 Write NUCLEAR GRADIENT                    from file  10584 offset           0 length                  60 to matrix element file.
 Array NUCLEAR FORCE CONSTANTS              on  file  10585 does not exist.
 Write ELECTRIC DIPOLE MOMENT              from file      0 offset           0 length                   3 to matrix element file.
 Write NON-ADIABATIC COUPLING              from file  10810 offset           0 length                  60 to matrix element file.
 Write FINITE EM FIELD                     from file  10521 offset           0 length                  35 to matrix element file.
 Write OVERLAP                             from file  10514 offset           0 length                9180 to matrix element file.
 Write CORE HAMILTONIAN ALPHA              from file  10515 offset           0 length                9180 to matrix element file.
 Write CORE HAMILTONIAN BETA               from file  10515 offset        9180 length                9180 to matrix element file.
 Write KINETIC ENERGY                      from file  10516 offset           0 length                9180 to matrix element file.
 Write ORTHOGONAL BASIS                    from file  10685 offset           0 length               18225 to matrix element file.
 Write DIPOLE INTEGRALS                    from file  10518 offset           0 length               27540 to matrix element file.
 Array DIP VEL INTEGRALS                    on  file  10572 does not exist.
 Array R X DEL INTEGRALS                    on  file  10572 does not exist.
 Write ALPHA ORBITAL ENERGIES              from file      0 offset           0 length                 135 to matrix element file.
 Write BETA ORBITAL ENERGIES               from file      0 offset           0 length                 135 to matrix element file.
 Write ALPHA MO COEFFICIENTS               from file  10524 offset           0 length               18225 to matrix element file.
 Write BETA MO COEFFICIENTS                from file  10526 offset           0 length               18225 to matrix element file.
 Write ALPHA DENSITY MATRIX                from file      0 offset           0 length                9180 to matrix element file.
 Write BETA DENSITY MATRIX                 from file      0 offset           0 length                9180 to matrix element file.
 Write ALPHA FOCK MATRIX                   from file  10536 offset           0 length                9180 to matrix element file.
 Write BETA FOCK MATRIX                    from file  10538 offset           0 length                9180 to matrix element file.
 Write ENERGY-WEIGHTED DENSITY             from file  10571 offset           0 length                9180 to matrix element file.
 Write ALPHA SCF DENSITY MATRIX            from file      0 offset           0 length                9180 to matrix element file.
 Write BETA SCF DENSITY MATRIX             from file      0 offset           0 length                9180 to matrix element file.
 No 2e integrals to process.
 Perform NBO analysis...

 *********************************** NBO 7.0 ***********************************
             N A T U R A L   A T O M I C   O R B I T A L   A N D
          N A T U R A L   B O N D   O R B I T A L   A N A L Y S I S
 **************************** Robert Paton (I101709) ***************************
  (c) Copyright 1996-2019 Board of Regents of the University of Wisconsin System
      on behalf of the Theoretical Chemistry Institute.  All rights reserved.

          Cite this program [NBO 7.0.5 (4-Jun-2019)] as:

          NBO 7.0.  E. D. Glendening, J. K. Badenhoop, A. E. Reed,
          J. E. Carpenter, J. A. Bohmann, C. M. Morales, P. Karafiloglou,
          C. R. Landis, and F. Weinhold, Theoretical Chemistry Institute,
          University of Wisconsin, Madison, WI (2018)

 Filename set to /home/rpaton/arbr500/xtb/fukui/Gau-2300020

 Job title:  energy: -30.071168380890 gnorm: 0.000653469021 xtb: 6.7.0 (08769fc)


 NATURAL POPULATIONS:  Natural atomic orbital occupancies

  NAO Atom No lang   Type(AO)    Occupancy     Spin
 -----------------------------------------------------
   1    C  1  s      Cor( 1s)     1.99981     0.00000
   2    C  1  s      Val( 2s)     0.99919     0.01227
   3    C  1  s      Ryd( 3s)     0.00101     0.00000
   4    C  1  px     Val( 2p)     1.15899     0.00729
   5    C  1  px     Ryd( 3p)     0.00359     0.00003
   6    C  1  py     Val( 2p)     1.16151     0.00928
   7    C  1  py     Ryd( 3p)     0.00366     0.00003
   8    C  1  pz     Val( 2p)     1.27859     0.31153
   9    C  1  pz     Ryd( 3p)     0.00417     0.00338

  10    C  2  s      Cor( 1s)     1.99989     0.00000
  11    C  2  s      Val( 2s)     0.84733    -0.00238
  12    C  2  s      Ryd( 3s)     0.00140     0.00009
  13    C  2  px     Val( 2p)     1.08582    -0.00516
  14    C  2  px     Ryd( 3p)     0.00408     0.00005
  15    C  2  py     Val( 2p)     1.06863    -0.00160
  16    C  2  py     Ryd( 3p)     0.00561     0.00004
  17    C  2  pz     Val( 2p)     1.06291     0.02446
  18    C  2  pz     Ryd( 3p)     0.00160     0.00031

  19    C  3  s      Cor( 1s)     1.99977     0.00000
  20    C  3  s      Val( 2s)     1.02148    -0.00056
  21    C  3  s      Ryd( 3s)     0.00049    -0.00001
  22    C  3  px     Val( 2p)     1.13813    -0.00032
  23    C  3  px     Ryd( 3p)     0.00205     0.00002
  24    C  3  py     Val( 2p)     1.08202    -0.00057
  25    C  3  py     Ryd( 3p)     0.00121    -0.00001
  26    C  3  pz     Val( 2p)     1.24393    -0.00124
  27    C  3  pz     Ryd( 3p)     0.00125    -0.00001

  28    C  4  s      Cor( 1s)     1.99976     0.00000
  29    C  4  s      Val( 2s)     1.01844     0.00004
  30    C  4  s      Ryd( 3s)     0.00043     0.00002
  31    C  4  px     Val( 2p)     1.05651    -0.00014
  32    C  4  px     Ryd( 3p)     0.00166     0.00000
  33    C  4  py     Val( 2p)     1.16980     0.00018
  34    C  4  py     Ryd( 3p)     0.00184     0.00006
  35    C  4  pz     Val( 2p)     1.24442     0.00169
  36    C  4  pz     Ryd( 3p)     0.00130     0.00006

  37    C  5  s      Cor( 1s)     1.99991     0.00000
  38    C  5  s      Val( 2s)     0.83694    -0.00139
  39    C  5  s      Ryd( 3s)     0.00099    -0.00002
  40    C  5  px     Val( 2p)     1.09317    -0.00165
  41    C  5  px     Ryd( 3p)     0.00450     0.00000
  42    C  5  py     Val( 2p)     1.06694    -0.00208
  43    C  5  py     Ryd( 3p)     0.00409     0.00000
  44    C  5  pz     Val( 2p)     1.01203     0.00255
  45    C  5  pz     Ryd( 3p)     0.00122     0.00008

  46    C  6  s      Cor( 1s)     1.99984     0.00000
  47    C  6  s      Val( 2s)     0.91411     0.00133
  48    C  6  s      Ryd( 3s)     0.00099     0.00002
  49    C  6  px     Val( 2p)     1.09906    -0.00103
  50    C  6  px     Ryd( 3p)     0.00615     0.00007
  51    C  6  py     Val( 2p)     1.17920    -0.00084
  52    C  6  py     Ryd( 3p)     0.00501     0.00001
  53    C  6  pz     Val( 2p)     1.11477     0.08106
  54    C  6  pz     Ryd( 3p)     0.00216     0.00173

  55    C  7  s      Cor( 1s)     1.99989     0.00000
  56    C  7  s      Val( 2s)     0.90606     0.01170
  57    C  7  s      Ryd( 3s)     0.00057     0.00000
  58    C  7  px     Val( 2p)     0.92204     0.00930
  59    C  7  px     Ryd( 3p)     0.00584    -0.00001
  60    C  7  py     Val( 2p)     1.11206     0.00531
  61    C  7  py     Ryd( 3p)     0.00654     0.00000
  62    C  7  pz     Val( 2p)     1.26711     0.24725
  63    C  7  pz     Ryd( 3p)     0.00144     0.00088

  64   Br  8  s      Cor( 3s)     2.00000     0.00000
  65   Br  8  s      Cor( 1s)     2.00000     0.00000
  66   Br  8  s      Cor( 2s)     1.99999     0.00000
  67   Br  8  s      Val( 4s)     1.86508     0.00033
  68   Br  8  s      Ryd( 5s)     0.00253     0.00009
  69   Br  8  px     Cor( 3p)     2.00000     0.00000
  70   Br  8  px     Cor( 2p)     1.99999     0.00000
  71   Br  8  px     Val( 4p)     1.22413    -0.01335
  72   Br  8  px     Ryd( 5p)     0.00295     0.00005
  73   Br  8  py     Cor( 3p)     2.00000     0.00000
  74   Br  8  py     Cor( 2p)     1.99999     0.00000
  75   Br  8  py     Val( 4p)     1.97586    -0.00013
  76   Br  8  py     Ryd( 5p)     0.00118     0.00001
  77   Br  8  pz     Cor( 3p)     2.00000     0.00000
  78   Br  8  pz     Cor( 2p)     2.00000     0.00000
  79   Br  8  pz     Val( 4p)     1.97215     0.01282
  80   Br  8  pz     Ryd( 5p)     0.00087     0.00030
  81   Br  8  dxy    Cor( 3d)     1.99969     0.00000
  82   Br  8  dxy    Ryd( 4d)     0.00069    -0.00002
  83   Br  8  dxz    Cor( 3d)     1.99989     0.00001
  84   Br  8  dxz    Ryd( 4d)     0.00405     0.00159
  85   Br  8  dyz    Cor( 3d)     2.00000     0.00000
  86   Br  8  dyz    Ryd( 4d)     0.00016     0.00007
  87   Br  8  dx2y2  Cor( 3d)     1.99944     0.00000
  88   Br  8  dx2y2  Ryd( 4d)     0.00432    -0.00005
  89   Br  8  dz2    Cor( 3d)     1.99980     0.00000
  90   Br  8  dz2    Ryd( 4d)     0.00147     0.00000

  91    C  9  s      Cor( 1s)     1.99986     0.00000
  92    C  9  s      Val( 2s)     0.93317    -0.00548
  93    C  9  s      Ryd( 3s)     0.00077     0.00002
  94    C  9  px     Val( 2p)     1.13476    -0.00584
  95    C  9  px     Ryd( 3p)     0.00584     0.00005
  96    C  9  py     Val( 2p)     1.15313    -0.00565
  97    C  9  py     Ryd( 3p)     0.00477     0.00004
  98    C  9  pz     Val( 2p)     1.02562    -0.06249
  99    C  9  pz     Ryd( 3p)     0.00066     0.00008

 100    C 10  s      Cor( 1s)     1.99983     0.00000
 101    C 10  s      Val( 2s)     0.91266     0.00688
 102    C 10  s      Ryd( 3s)     0.00064    -0.00001
 103    C 10  px     Val( 2p)     1.07941     0.00363
 104    C 10  px     Ryd( 3p)     0.00498     0.00002
 105    C 10  py     Val( 2p)     1.17492     0.00327
 106    C 10  py     Ryd( 3p)     0.00481     0.00000
 107    C 10  pz     Val( 2p)     1.13167     0.19137
 108    C 10  pz     Ryd( 3p)     0.00238     0.00210

 109    C 11  s      Cor( 1s)     1.99989     0.00000
 110    C 11  s      Val( 2s)     0.82351     0.00465
 111    C 11  s      Ryd( 3s)     0.00099     0.00006
 112    C 11  px     Val( 2p)     1.08677     0.00171
 113    C 11  px     Ryd( 3p)     0.00465     0.00004
 114    C 11  py     Val( 2p)     1.09771     0.00138
 115    C 11  py     Ryd( 3p)     0.00555    -0.00001
 116    C 11  pz     Val( 2p)     1.11400     0.16166
 117    C 11  pz     Ryd( 3p)     0.00130     0.00100

 118    H 12  s      Val( 1s)     0.80551    -0.01013
 119    H 12  s      Ryd( 2s)     0.00076     0.00000

 120    H 13  s      Val( 1s)     0.81623    -0.01041
 121    H 13  s      Ryd( 2s)     0.00080    -0.00001

 122    H 14  s      Val( 1s)     0.76408     0.00802
 123    H 14  s      Ryd( 2s)     0.00271     0.00126

 124    H 15  s      Val( 1s)     0.76682     0.00712
 125    H 15  s      Ryd( 2s)     0.00248     0.00115

 126    H 16  s      Val( 1s)     0.75651    -0.00172
 127    H 16  s      Ryd( 2s)     0.00158    -0.00009

 128    H 17  s      Val( 1s)     0.76006    -0.00139
 129    H 17  s      Ryd( 2s)     0.00163     0.00022

 130    H 18  s      Val( 1s)     0.77289    -0.00275
 131    H 18  s      Ryd( 2s)     0.00130     0.00000

 132    H 19  s      Val( 1s)     0.77105     0.00230
 133    H 19  s      Ryd( 2s)     0.00131     0.00000

 134    H 20  s      Val( 1s)     0.77996    -0.00684
 135    H 20  s      Ryd( 2s)     0.00094     0.00000


 Summary of Natural Population Analysis:

                                     Natural Population                 Natural
             Natural    ---------------------------------------------    Spin
  Atom No    Charge        Core      Valence    Rydberg      Total      Density
 -------------------------------------------------------------------------------
    C  1   -0.61052      1.99981     4.59828    0.01243     6.61052     0.34381
    C  2   -0.07729      1.99989     4.06469    0.01270     6.07729     0.01582
    C  3   -0.49032      1.99977     4.48555    0.00500     6.49032    -0.00269
    C  4   -0.49417      1.99976     4.48918    0.00523     6.49417     0.00189
    C  5   -0.01980      1.99991     4.00909    0.01080     6.01980    -0.00252
    C  6   -0.32127      1.99984     4.30713    0.01430     6.32127     0.08234
    C  7   -0.22156      1.99989     4.20727    0.01439     6.22156     0.27442
   Br  8   -0.05421     27.99878     7.03721    0.01822    35.05421     0.00172
    C  9   -0.25859      1.99986     4.24669    0.01204     6.25859    -0.07925
    C 10   -0.31130      1.99983     4.29866    0.01281     6.31130     0.20726
    C 11   -0.13436      1.99989     4.12199    0.01248     6.13436     0.17049
    H 12    0.19372      0.00000     0.80551    0.00076     0.80628    -0.01013
    H 13    0.18297      0.00000     0.81623    0.00080     0.81703    -0.01042
    H 14    0.23321      0.00000     0.76408    0.00271     0.76679     0.00928
    H 15    0.23070      0.00000     0.76682    0.00248     0.76930     0.00827
    H 16    0.24191      0.00000     0.75651    0.00158     0.75809    -0.00182
    H 17    0.23831      0.00000     0.76006    0.00163     0.76169    -0.00117
    H 18    0.22581      0.00000     0.77289    0.00130     0.77419    -0.00275
    H 19    0.22764      0.00000     0.77105    0.00131     0.77236     0.00230
    H 20    0.21910      0.00000     0.77996    0.00094     0.78090    -0.00684
 ===============================================================================
 * Total * -1.00000     47.99724    56.85886    0.14390   105.00000     1.00000

                                 Natural Population
 ---------------------------------------------------------
   Core                      47.99724 ( 99.9942% of   48)
   Valence                   56.85886 ( 99.7524% of   57)
   Natural Minimal Basis    104.85610 ( 99.8630% of  105)
   Natural Rydberg Basis      0.14390 (  0.1370% of  105)
 ---------------------------------------------------------

    Atom No         Natural Electron Configuration
 ----------------------------------------------------------------------------
      C  1      [core]2s( 1.00)2p( 3.60)3p( 0.01)
      C  2      [core]2s( 0.85)2p( 3.22)3p( 0.01)
      C  3      [core]2s( 1.02)2p( 3.46)
      C  4      [core]2s( 1.02)2p( 3.47)
      C  5      [core]2s( 0.84)2p( 3.17)3p( 0.01)
      C  6      [core]2s( 0.91)2p( 3.39)3p( 0.01)
      C  7      [core]2s( 0.91)2p( 3.30)3p( 0.01)
     Br  8      [core]4s( 1.87)4p( 5.17)4d( 0.01)
      C  9      [core]2s( 0.93)2p( 3.31)3p( 0.01)
      C 10      [core]2s( 0.91)2p( 3.39)3p( 0.01)
      C 11      [core]2s( 0.82)2p( 3.30)3p( 0.01)
      H 12            1s( 0.81)
      H 13            1s( 0.82)
      H 14            1s( 0.76)
      H 15            1s( 0.77)
      H 16            1s( 0.76)
      H 17            1s( 0.76)
      H 18            1s( 0.77)
      H 19            1s( 0.77)
      H 20            1s( 0.78)


 ***************************************************
 *******         Alpha spin orbitals         *******
 ***************************************************


 NATURAL POPULATIONS:  Natural atomic orbital occupancies

  NAO Atom No lang   Type(AO)    Occupancy      Energy
 -------------------------------------------------------
   1    C  1  s      Cor( 1s)     0.99990     -10.01371
   2    C  1  s      Val( 2s)     0.50573       0.09108
   3    C  1  s      Ryd( 3s)     0.00050       0.89808
   4    C  1  px     Val( 2p)     0.58314       0.14422
   5    C  1  px     Ryd( 3p)     0.00181       1.27384
   6    C  1  py     Val( 2p)     0.58539       0.14645
   7    C  1  py     Ryd( 3p)     0.00184       1.21340
   8    C  1  pz     Val( 2p)     0.79506      -0.00944
   9    C  1  pz     Ryd( 3p)     0.00377       1.08584

  10    C  2  s      Cor( 1s)     0.99995     -10.04725
  11    C  2  s      Val( 2s)     0.42248       0.17044
  12    C  2  s      Ryd( 3s)     0.00075       0.91325
  13    C  2  px     Val( 2p)     0.54033       0.17692
  14    C  2  px     Ryd( 3p)     0.00207       1.48622
  15    C  2  py     Val( 2p)     0.53351       0.16480
  16    C  2  py     Ryd( 3p)     0.00282       1.68454
  17    C  2  pz     Val( 2p)     0.54369       0.07595
  18    C  2  pz     Ryd( 3p)     0.00096       1.19305

  19    C  3  s      Cor( 1s)     0.99988     -10.07673
  20    C  3  s      Val( 2s)     0.51046       0.00817
  21    C  3  s      Ryd( 3s)     0.00024       1.39525
  22    C  3  px     Val( 2p)     0.56891       0.07140
  23    C  3  px     Ryd( 3p)     0.00104       1.16321
  24    C  3  py     Val( 2p)     0.54072       0.08616
  25    C  3  py     Ryd( 3p)     0.00060       1.10615
  26    C  3  pz     Val( 2p)     0.62135       0.04879
  27    C  3  pz     Ryd( 3p)     0.00062       1.26828

  28    C  4  s      Cor( 1s)     0.99988     -10.08347
  29    C  4  s      Val( 2s)     0.50924       0.00533
  30    C  4  s      Ryd( 3s)     0.00022       1.38801
  31    C  4  px     Val( 2p)     0.52818       0.08080
  32    C  4  px     Ryd( 3p)     0.00083       1.11062
  33    C  4  py     Val( 2p)     0.58499       0.06409
  34    C  4  py     Ryd( 3p)     0.00095       1.12153
  35    C  4  pz     Val( 2p)     0.62305       0.04158
  36    C  4  pz     Ryd( 3p)     0.00068       1.26991

  37    C  5  s      Cor( 1s)     0.99995     -10.06305
  38    C  5  s      Val( 2s)     0.41778       0.16579
  39    C  5  s      Ryd( 3s)     0.00048       0.92302
  40    C  5  px     Val( 2p)     0.54576       0.15872
  41    C  5  px     Ryd( 3p)     0.00225       1.64186
  42    C  5  py     Val( 2p)     0.53243       0.15236
  43    C  5  py     Ryd( 3p)     0.00204       1.54746
  44    C  5  pz     Val( 2p)     0.50729       0.06724
  45    C  5  pz     Ryd( 3p)     0.00065       1.18191

  46    C  6  s      Cor( 1s)     0.99992     -10.05516
  47    C  6  s      Val( 2s)     0.45772       0.13133
  48    C  6  s      Ryd( 3s)     0.00050       0.89174
  49    C  6  px     Val( 2p)     0.54902       0.15249
  50    C  6  px     Ryd( 3p)     0.00311       1.21328
  51    C  6  py     Val( 2p)     0.58918       0.11182
  52    C  6  py     Ryd( 3p)     0.00251       1.50183
  53    C  6  pz     Val( 2p)     0.59791       0.03388
  54    C  6  pz     Ryd( 3p)     0.00194       1.11196

  55    C  7  s      Cor( 1s)     0.99995     -10.09094
  56    C  7  s      Val( 2s)     0.45888       0.05272
  57    C  7  s      Ryd( 3s)     0.00028       0.88811
  58    C  7  px     Val( 2p)     0.46567       0.07149
  59    C  7  px     Ryd( 3p)     0.00291       1.54032
  60    C  7  py     Val( 2p)     0.55869       0.12539
  61    C  7  py     Ryd( 3p)     0.00327       1.28555
  62    C  7  pz     Val( 2p)     0.75718      -0.03459
  63    C  7  pz     Ryd( 3p)     0.00116       1.12378

  64   Br  8  s      Cor( 3s)     1.00000     -20.20563
  65   Br  8  s      Cor( 1s)     1.00000    -451.43119
  66   Br  8  s      Cor( 2s)     1.00000     -79.50841
  67   Br  8  s      Val( 4s)     0.93270      -0.61605
  68   Br  8  s      Ryd( 5s)     0.00131       0.99545
  69   Br  8  px     Cor( 3p)     1.00000      -6.94154
  70   Br  8  px     Cor( 2p)     0.99999     -55.58585
  71   Br  8  px     Val( 4p)     0.60539      -0.09356
  72   Br  8  px     Ryd( 5p)     0.00150       0.87931
  73   Br  8  py     Cor( 3p)     1.00000      -6.92959
  74   Br  8  py     Cor( 2p)     1.00000     -55.58290
  75   Br  8  py     Val( 4p)     0.98787      -0.21168
  76   Br  8  py     Ryd( 5p)     0.00059       0.91044
  77   Br  8  pz     Cor( 3p)     1.00000      -6.92907
  78   Br  8  pz     Cor( 2p)     1.00000     -55.58276
  79   Br  8  pz     Val( 4p)     0.99248      -0.21202
  80   Br  8  pz     Ryd( 5p)     0.00058       0.87405
  81   Br  8  dxy    Cor( 3d)     0.99984      -2.61416
  82   Br  8  dxy    Ryd( 4d)     0.00034       1.07427
  83   Br  8  dxz    Cor( 3d)     0.99995      -2.61383
  84   Br  8  dxz    Ryd( 4d)     0.00282       0.87172
  85   Br  8  dyz    Cor( 3d)     1.00000      -2.60443
  86   Br  8  dyz    Ryd( 4d)     0.00011       0.79814
  87   Br  8  dx2y2  Cor( 3d)     0.99972      -2.61439
  88   Br  8  dx2y2  Ryd( 4d)     0.00213       1.15618
  89   Br  8  dz2    Cor( 3d)     0.99990      -2.60749
  90   Br  8  dz2    Ryd( 4d)     0.00073       0.91617

  91    C  9  s      Cor( 1s)     0.99993     -10.06575
  92    C  9  s      Val( 2s)     0.46385       0.11466
  93    C  9  s      Ryd( 3s)     0.00040       0.90226
  94    C  9  px     Val( 2p)     0.56446       0.14011
  95    C  9  px     Ryd( 3p)     0.00295       1.30629
  96    C  9  py     Val( 2p)     0.57374       0.12061
  97    C  9  py     Ryd( 3p)     0.00240       1.41168
  98    C  9  pz     Val( 2p)     0.48157       0.06434
  99    C  9  pz     Ryd( 3p)     0.00037       1.10717

 100    C 10  s      Cor( 1s)     0.99992     -10.04183
 101    C 10  s      Val( 2s)     0.45977       0.13686
 102    C 10  s      Ryd( 3s)     0.00032       0.90753
 103    C 10  px     Val( 2p)     0.54152       0.16821
 104    C 10  px     Ryd( 3p)     0.00250       1.27764
 105    C 10  py     Val( 2p)     0.58909       0.13486
 106    C 10  py     Ryd( 3p)     0.00240       1.52413
 107    C 10  pz     Val( 2p)     0.66152       0.02426
 108    C 10  pz     Ryd( 3p)     0.00224       1.11892

 109    C 11  s      Cor( 1s)     0.99995     -10.03635
 110    C 11  s      Val( 2s)     0.41408       0.19954
 111    C 11  s      Ryd( 3s)     0.00052       0.93477
 112    C 11  px     Val( 2p)     0.54424       0.17055
 113    C 11  px     Ryd( 3p)     0.00234       1.71077
 114    C 11  py     Val( 2p)     0.54955       0.17100
 115    C 11  py     Ryd( 3p)     0.00277       1.65132
 116    C 11  pz     Val( 2p)     0.63783       0.04715
 117    C 11  pz     Ryd( 3p)     0.00115       1.19834

 118    H 12  s      Val( 1s)     0.39769       0.28861
 119    H 12  s      Ryd( 2s)     0.00038       0.81545

 120    H 13  s      Val( 1s)     0.40291       0.27577
 121    H 13  s      Ryd( 2s)     0.00040       0.78091

 122    H 14  s      Val( 1s)     0.38605       0.26102
 123    H 14  s      Ryd( 2s)     0.00199       0.76159

 124    H 15  s      Val( 1s)     0.38697       0.26238
 125    H 15  s      Ryd( 2s)     0.00181       0.75832

 126    H 16  s      Val( 1s)     0.37739       0.25979
 127    H 16  s      Ryd( 2s)     0.00074       0.75420

 128    H 17  s      Val( 1s)     0.37934       0.26003
 129    H 17  s      Ryd( 2s)     0.00093       0.75097

 130    H 18  s      Val( 1s)     0.38507       0.28573
 131    H 18  s      Ryd( 2s)     0.00065       0.77882

 132    H 19  s      Val( 1s)     0.38668       0.28482
 133    H 19  s      Ryd( 2s)     0.00065       0.76556

 134    H 20  s      Val( 1s)     0.38656       0.29934
 135    H 20  s      Ryd( 2s)     0.00047       0.81673


 Summary of Natural Population Analysis:

                                     Natural Population
             Natural    ---------------------------------------------
  Atom No    Charge        Core      Valence    Rydberg      Total
 --------------------------------------------------------------------
    C  1   -0.47716      0.99990     2.46933    0.00793     3.47716
    C  2   -0.04655      0.99995     2.04001    0.00659     3.04655
    C  3   -0.24381      0.99988     2.24143    0.00250     3.24381
    C  4   -0.24803      0.99988     2.24547    0.00268     3.24803
    C  5   -0.00864      0.99995     2.00326    0.00543     3.00864
    C  6   -0.20181      0.99992     2.19383    0.00806     3.20181
    C  7   -0.24799      0.99995     2.24042    0.00763     3.24799
   Br  8   -0.02796     13.99940     3.51844    0.01013    17.52796
    C  9   -0.08967      0.99993     2.08362    0.00612     3.08967
    C 10   -0.25928      0.99992     2.25190    0.00746     3.25928
    C 11   -0.15243      0.99995     2.14569    0.00679     3.15243
    H 12    0.10193      0.00000     0.39769    0.00038     0.39807
    H 13    0.09670      0.00000     0.40291    0.00040     0.40330
    H 14    0.11197      0.00000     0.38605    0.00199     0.38803
    H 15    0.11122      0.00000     0.38697    0.00181     0.38878
    H 16    0.12186      0.00000     0.37739    0.00074     0.37814
    H 17    0.11974      0.00000     0.37934    0.00093     0.38026
    H 18    0.11428      0.00000     0.38507    0.00065     0.38572
    H 19    0.11267      0.00000     0.38668    0.00065     0.38733
    H 20    0.11297      0.00000     0.38656    0.00047     0.38703
 ====================================================================
 * Total * -1.00000     23.99863    28.92206    0.07932    53.00000

                                 Natural Population
 ---------------------------------------------------------
   Core                      23.99863 ( 99.9943% of   24)
   Valence                   28.92206 ( 99.7312% of   29)
   Natural Minimal Basis     52.92068 ( 99.8503% of   53)
   Natural Rydberg Basis      0.07932 (  0.1497% of   53)
 ---------------------------------------------------------

    Atom No         Natural Electron Configuration
 ----------------------------------------------------------------------------
      C  1      [core]2s( 0.51)2p( 1.96)3p( 0.01)
      C  2      [core]2s( 0.42)2p( 1.62)3p( 0.01)
      C  3      [core]2s( 0.51)2p( 1.73)
      C  4      [core]2s( 0.51)2p( 1.74)
      C  5      [core]2s( 0.42)2p( 1.59)
      C  6      [core]2s( 0.46)2p( 1.74)3p( 0.01)
      C  7      [core]2s( 0.46)2p( 1.78)3p( 0.01)
     Br  8      [core]4s( 0.93)4p( 2.59)4d( 0.01)
      C  9      [core]2s( 0.46)2p( 1.62)3p( 0.01)
      C 10      [core]2s( 0.46)2p( 1.79)3p( 0.01)
      C 11      [core]2s( 0.41)2p( 1.73)3p( 0.01)
      H 12            1s( 0.40)
      H 13            1s( 0.40)
      H 14            1s( 0.39)
      H 15            1s( 0.39)
      H 16            1s( 0.38)
      H 17            1s( 0.38)
      H 18            1s( 0.39)
      H 19            1s( 0.39)
      H 20            1s( 0.39)


 NATURAL BOND ORBITAL ANALYSIS, alpha spin orbitals:

                            Occupancies       Lewis Structure    Low   High
         Max    Occ     -------------------  -----------------   occ   occ
  Cycle  Ctr   Thresh    Lewis   non-Lewis     CR  BD  nC  LP    (L)   (NL)
 ============================================================================
    1     2     0.95    52.06531   0.93469     24  24   0   5     2      3
[...]
   42. BD ( 2) C  5- C 11     101. RY ( 4) C  6            0.63    1.22   0.035
   42. BD ( 2) C  5- C 11     122. RY ( 4) C 10            0.50    1.24   0.031
   43. BD ( 1) C  6- C  7      62. BD*( 1) C  4- C  5      1.60    1.21   0.056
   43. BD ( 1) C  6- C  7      65. BD*( 1) C  5- C  6      1.94    1.41   0.066
   43. BD ( 1) C  6- C  7      70. BD*( 1) C  6- H 18      1.10    1.26   0.047
   43. BD ( 1) C  6- C  7      72. BD*( 1) C  7- C  9      2.35    1.37   0.072
   43. BD ( 1) C  6- C  7      75. BD*( 1) C  9- H 19      0.87    1.26   0.042
   43. BD ( 1) C  6- C  7      94. RY ( 1) C  5            0.40    2.24   0.038
   43. BD ( 1) C  6- C  7      95. RY ( 2) C  5            1.12    1.98   0.059
   43. BD ( 1) C  6- C  7     115. RY ( 1) C  9            0.61    2.02   0.044
   43. BD ( 1) C  6- C  7     116. RY ( 2) C  9            0.38    1.74   0.032
   44. BD ( 2) C  6- C  7      67. BD*( 2) C  5- C 11     16.78    0.41   0.105
   44. BD ( 2) C  6- C  7      74. BD*( 2) C  9- C 10     14.80    0.40   0.097
   44. BD ( 2) C  6- C  7      96. RY ( 3) C  5            0.32    1.30   0.026
   44. BD ( 2) C  6- C  7     106. RY ( 1)Br  8            0.84    0.98   0.036
   44. BD ( 2) C  6- C  7     118. RY ( 4) C  9            0.58    1.24   0.034
   45. BD ( 1) C  6- H 18      65. BD*( 1) C  5- C  6      0.76    1.29   0.040
   45. BD ( 1) C  6- H 18      66. BD*( 1) C  5- C 11      1.34    1.27   0.052
   45. BD ( 1) C  6- H 18      68. BD*( 1) C  6- C  7      0.54    1.26   0.033
   45. BD ( 1) C  6- H 18      71. BD*( 1) C  7-Br  8      0.43    0.76   0.023
   45. BD ( 1) C  6- H 18      72. BD*( 1) C  7- C  9      1.24    1.26   0.050
   45. BD ( 1) C  6- H 18      94. RY ( 1) C  5            0.93    2.12   0.056
   45. BD ( 1) C  6- H 18     103. RY ( 2) C  7            0.82    1.96   0.051
   46. BD ( 1) C  7-Br  8      65. BD*( 1) C  5- C  6      0.98    1.35   0.046
   46. BD ( 1) C  7-Br  8      73. BD*( 1) C  9- C 10      0.97    1.33   0.045
   46. BD ( 1) C  7-Br  8      98. RY ( 1) C  6            1.06    1.98   0.058
   46. BD ( 1) C  7-Br  8     115. RY ( 1) C  9            1.03    1.96   0.057
   47. BD ( 1) C  7- C  9      68. BD*( 1) C  6- C  7      2.36    1.38   0.072
   47. BD ( 1) C  7- C  9      70. BD*( 1) C  6- H 18      0.92    1.27   0.043
   47. BD ( 1) C  7- C  9      73. BD*( 1) C  9- C 10      1.64    1.40   0.061
   47. BD ( 1) C  7- C  9      75. BD*( 1) C  9- H 19      0.98    1.27   0.045
   47. BD ( 1) C  7- C  9      77. BD*( 1) C 10- H 20      0.87    1.28   0.042
   47. BD ( 1) C  7- C  9      98. RY ( 1) C  6            0.51    2.05   0.041
   47. BD ( 1) C  7- C  9      99. RY ( 2) C  6            0.43    1.72   0.034
   47. BD ( 1) C  7- C  9     119. RY ( 1) C 10            0.63    2.13   0.046
   47. BD ( 1) C  7- C  9     120. RY ( 2) C 10            0.67    1.73   0.043
   48. BD ( 1) C  9- C 10      58. BD*( 1) C  2- C 11      1.49    1.30   0.056
   48. BD ( 1) C  9- C 10      71. BD*( 1) C  7-Br  8      2.29    0.85   0.056
   48. BD ( 1) C  9- C 10      72. BD*( 1) C  7- C  9      1.90    1.35   0.064
   48. BD ( 1) C  9- C 10      75. BD*( 1) C  9- H 19      0.85    1.24   0.041
   48. BD ( 1) C  9- C 10      76. BD*( 1) C 10- C 11      1.85    1.40   0.064
   48. BD ( 1) C  9- C 10      77. BD*( 1) C 10- H 20      0.88    1.26   0.042
   48. BD ( 1) C  9- C 10     102. RY ( 1) C  7            0.75    1.78   0.046
   48. BD ( 1) C  9- C 10     103. RY ( 2) C  7            0.55    2.05   0.042
   48. BD ( 1) C  9- C 10     123. RY ( 1) C 11            1.11    2.15   0.062
   48. BD ( 1) C  9- C 10     124. RY ( 2) C 11            0.43    2.22   0.039
   49. BD ( 2) C  9- C 10      67. BD*( 2) C  5- C 11     14.96    0.41   0.099
   49. BD ( 2) C  9- C 10      69. BD*( 2) C  6- C  7     19.69    0.38   0.109
   49. BD ( 2) C  9- C 10     104. RY ( 3) C  7            0.39    1.27   0.028
   49. BD ( 2) C  9- C 10     126. RY ( 4) C 11            0.28    1.34   0.025
   50. BD ( 1) C  9- H 19      68. BD*( 1) C  6- C  7      1.30    1.27   0.051
   50. BD ( 1) C  9- H 19      71. BD*( 1) C  7-Br  8      0.47    0.76   0.024
   50. BD ( 1) C  9- H 19      72. BD*( 1) C  7- C  9      0.46    1.27   0.030
   50. BD ( 1) C  9- H 19      73. BD*( 1) C  9- C 10      0.56    1.29   0.034
   50. BD ( 1) C  9- H 19      76. BD*( 1) C 10- C 11      1.18    1.31   0.050
   50. BD ( 1) C  9- H 19     103. RY ( 2) C  7            0.76    1.96   0.049
   50. BD ( 1) C  9- H 19     119. RY ( 1) C 10            0.68    2.01   0.047
   51. BD ( 1) C 10- C 11      57. BD*( 1) C  2- C  3      0.31    1.17   0.024
   51. BD ( 1) C 10- C 11      58. BD*( 1) C  2- C 11      2.40    1.29   0.070
   51. BD ( 1) C 10- C 11      62. BD*( 1) C  4- C  5      0.78    1.18   0.038
   51. BD ( 1) C 10- C 11      66. BD*( 1) C  5- C 11      2.33    1.35   0.071
   51. BD ( 1) C 10- C 11      73. BD*( 1) C  9- C 10      1.76    1.36   0.062
   51. BD ( 1) C 10- C 11      75. BD*( 1) C  9- H 19      1.00    1.23   0.044
   51. BD ( 1) C 10- C 11      77. BD*( 1) C 10- H 20      1.02    1.24   0.045
   51. BD ( 1) C 10- C 11      82. RY ( 1) C  2            0.96    2.12   0.057
   51. BD ( 1) C 10- C 11      94. RY ( 1) C  5            0.46    2.20   0.040
   51. BD ( 1) C 10- C 11      95. RY ( 2) C  5            0.42    1.94   0.036
   51. BD ( 1) C 10- C 11     116. RY ( 2) C  9            1.13    1.70   0.055
   52. BD ( 1) C 10- H 20      66. BD*( 1) C  5- C 11      1.49    1.25   0.054
   52. BD ( 1) C 10- H 20      72. BD*( 1) C  7- C  9      1.33    1.24   0.051
   52. BD ( 1) C 10- H 20      73. BD*( 1) C  9- C 10      0.54    1.27   0.033
   52. BD ( 1) C 10- H 20      76. BD*( 1) C 10- C 11      0.72    1.29   0.039
   52. BD ( 1) C 10- H 20     115. RY ( 1) C  9            0.62    1.89   0.043
   52. BD ( 1) C 10- H 20     124. RY ( 2) C 11            0.90    2.10   0.055


 NATURAL BOND ORBITALS (Summary):

                                                     Principal Delocalizations
           NBO                 Occupancy    Energy   (geminal,vicinal,remote)
 ===============================================================================
 Molecular unit  1  (C10H9Br)
 ------ Lewis --------------------------------------
    1. CR ( 1) C  1             0.99990   -10.00959
    2. CR ( 1) C  2             0.99995   -10.04724
    3. CR ( 1) C  3             0.99988   -10.07682
    4. CR ( 1) C  4             0.99988   -10.08345
    5. CR ( 1) C  5             0.99995   -10.06313
    6. CR ( 1) C  6             0.99992   -10.05419
    7. CR ( 1) C  7             0.99995   -10.08693
    8. CR ( 1)Br  8             1.00000   -20.20561
    9. CR ( 2)Br  8             1.00000  -451.43119
   10. CR ( 3)Br  8             1.00000   -79.50840
   11. CR ( 4)Br  8             1.00000    -6.94164
   12. CR ( 5)Br  8             0.99999   -55.58591
   13. CR ( 6)Br  8             1.00000    -6.92959
   14. CR ( 7)Br  8             1.00000   -55.58290
   15. CR ( 8)Br  8             1.00000    -6.92893
   16. CR ( 9)Br  8             1.00000   -55.58266
   17. CR (10)Br  8             0.99984    -2.61421
   18. CR (11)Br  8             0.99994    -2.61376
   19. CR (12)Br  8             1.00000    -2.60437
   20. CR (13)Br  8             0.99972    -2.61443  108(g)
   21. CR (14)Br  8             0.99990    -2.60742
   22. CR ( 1) C  9             0.99993   -10.06699
   23. CR ( 1) C 10             0.99992   -10.03914
   24. CR ( 1) C 11             0.99995   -10.03404
   25. LP ( 1)Br  8             0.99886    -0.60104  103(v)
   26. LP ( 2)Br  8             0.99297    -0.21310  72(v),68(v),102(v)
   27. LP ( 3)Br  8             0.97988    -0.20805  69(v)
   28. BD ( 1) C  1- C  2       0.99082    -0.52017  58(g),57(g),123(v),55(g)
                                                     56(g),86(v)
   29. BD ( 2) C  1- C  2       0.96652    -0.14508  67(v),60(v),61(v),126(v)
   30. BD ( 1) C  1- H 12       0.99245    -0.37960  57(v),53(g),83(v),82(v)
                                                     58(v)
   31. BD ( 1) C  1- H 13       0.99369    -0.38296  58(v),82(v),53(g),83(v)
                                                     57(v)
   32. BD ( 1) C  2- C  3       0.98752    -0.44206  53(g),76(v),55(v),78(v)
                                                     123(v),62(v),58(g),59(g)
                                                     61(g),60(g),64(v),129(v)
                                                     130(v),66(v)
   33. BD ( 1) C  2- C 11       0.98203    -0.43895  53(g),76(g),66(g),65(v)
                                                     56(v),119(v),94(v),78(v)
                                                     73(v),59(v),57(g),61(v)
                                                     62(v),86(v)
   34. BD ( 1) C  3- C  4       0.99300    -0.45263  65(v),53(v),62(g),57(g)
                                                     95(v),58(v),63(g),64(g)
                                                     66(v),61(g),83(v),60(g)
   35. BD ( 1) C  3- H 14       0.99035    -0.40196  54(v),63(v),57(g),84(v)
                                                     64(v)
   36. BD ( 1) C  3- H 15       0.99285    -0.40742  54(v),58(v),62(v),57(g)
                                                     84(v),63(v),92(v)
   37. BD ( 1) C  4- C  5       0.98840    -0.46266  65(g),76(v),66(g),98(v)
                                                     124(v),68(v),59(g),57(v)
                                                     64(g),63(g),61(v),58(v)
                                                     131(v)
   38. BD ( 1) C  4- H 16       0.98987    -0.40963  67(v),60(v),62(g),96(v)
                                                     61(v),86(v)
   39. BD ( 1) C  4- H 17       0.99211    -0.41397  67(v),66(v),57(v),62(g)
                                                     96(v),60(v)
   40. BD ( 1) C  5- C  6       0.98347    -0.50833  66(g),71(v),68(g),62(g)
                                                     70(g),102(v),58(v),124(v)
                                                     123(v),90(v),103(v)
   41. BD ( 1) C  5- C 11       0.98180    -0.47866  65(g),76(g),58(g),70(v)
                                                     77(v),62(g),99(v),53(v)
                                                     120(v),82(v),83(v),59(v)
                                                     90(v),119(v),64(v)
   42. BD ( 2) C  5- C 11       0.80207    -0.10434  69(v),74(v),54(v),63(v)
                                                     64(v),101(v),122(v)
   43. BD ( 1) C  6- C  7       0.98826    -0.52423  72(g),65(g),62(v),95(v)
                                                     70(g),75(v),115(v),94(v)
                                                     116(v)
   44. BD ( 2) C  6- C  7       0.84069    -0.13379  67(v),74(v),106(v),118(v)
                                                     96(v)
   45. BD ( 1) C  6- H 18       0.99102    -0.40673  66(v),72(v),94(v),103(v)
                                                     65(g),68(g),71(v)
   46. BD ( 1) C  7-Br  8       0.99461    -0.45873  98(v),115(v),65(v),73(v)
   47. BD ( 1) C  7- C  9       0.98910    -0.52960  68(g),73(g),75(g),70(v)
                                                     77(v),120(v),119(v),98(v)
                                                     99(v)
   48. BD ( 1) C  9- C 10       0.98504    -0.50254  71(v),72(g),76(g),58(v)
                                                     123(v),77(g),75(g),102(v)
                                                     103(v),124(v)
   49. BD ( 2) C  9- C 10       0.84822    -0.13075  69(v),67(v),104(v),126(v)
   50. BD ( 1) C  9- H 19       0.99153    -0.41452  68(v),76(v),103(v),119(v)
                                                     73(g),71(v),72(g)
   51. BD ( 1) C 10- C 11       0.98531    -0.48852  58(g),66(g),73(g),116(v)
                                                     77(g),75(v),82(v),62(v)
                                                     94(v),95(v),57(v)
   52. BD ( 1) C 10- H 20       0.99099    -0.39142  66(v),72(v),124(v),76(g)
                                                     115(v),73(g)
 ------ non-Lewis ----------------------------------
   53. BD*( 1) C  1- C  2       0.00795     0.98824
   54. BD*( 2) C  1- C  2       0.03570     0.32232
   55. BD*( 1) C  1- H 12       0.00424     0.75307
   56. BD*( 1) C  1- H 13       0.00384     0.74426
   57. BD*( 1) C  2- C  3       0.01134     0.68289
   58. BD*( 1) C  2- C 11       0.01589     0.80189
   59. BD*( 1) C  3- C  4       0.00464     0.61260
   60. BD*( 1) C  3- H 14       0.00581     0.68437
   61. BD*( 1) C  3- H 15       0.00478     0.69070
   62. BD*( 1) C  4- C  5       0.01072     0.68770
   63. BD*( 1) C  4- H 16       0.00694     0.67708
   64. BD*( 1) C  4- H 17       0.00599     0.68218
   65. BD*( 1) C  5- C  6       0.01167     0.88673
   66. BD*( 1) C  5- C 11       0.01317     0.86163
   67. BD*( 2) C  5- C 11       0.17881     0.27885
   68. BD*( 1) C  6- C  7       0.01093     0.85394
   69. BD*( 2) C  6- C  7       0.18609     0.24960
   70. BD*( 1) C  6- H 18       0.00677     0.73702
   71. BD*( 1) C  7-Br  8       0.01443     0.34946
   72. BD*( 1) C  7- C  9       0.01118     0.85049
   73. BD*( 1) C  9- C 10       0.00807     0.87522
   74. BD*( 2) C  9- C 10       0.16606     0.26184
   75. BD*( 1) C  9- H 19       0.00597     0.73756
   76. BD*( 1) C 10- C 11       0.01181     0.89398
   77. BD*( 1) C 10- H 20       0.00657     0.75392
   78. RY ( 1) C  1             0.00159     1.42484
   79. RY ( 2) C  1             0.00095     0.96278
   80. RY ( 3) C  1             0.00010     1.10767
   81. RY ( 4) C  1             0.00004     0.99394
   82. RY ( 1) C  2             0.00279     1.62692
   83. RY ( 2) C  2             0.00140     1.53254
   84. RY ( 3) C  2             0.00064     1.15977
   85. RY ( 4) C  2             0.00034     0.96452
   86. RY ( 1) C  3             0.00102     1.20524
   87. RY ( 2) C  3             0.00052     1.24744
   88. RY ( 3) C  3             0.00042     1.16019
   89. RY ( 4) C  3             0.00012     1.31743
   90. RY ( 1) C  4             0.00095     1.17098
   91. RY ( 2) C  4             0.00052     1.19728
   92. RY ( 3) C  4             0.00046     1.17506
   93. RY ( 4) C  4             0.00011     1.34262
   94. RY ( 1) C  5             0.00215     1.71261
   95. RY ( 2) C  5             0.00172     1.45213
   96. RY ( 3) C  5             0.00059     1.16869
   97. RY ( 4) C  5             0.00033     0.96299
   98. RY ( 1) C  6             0.00246     1.51993
   99. RY ( 2) C  6             0.00186     1.18822
  100. RY ( 3) C  6             0.00029     0.89021
  101. RY ( 4) C  6             0.00015     1.11842
  102. RY ( 1) C  7             0.00262     1.28006
  103. RY ( 2) C  7             0.00238     1.54984
  104. RY ( 3) C  7             0.00027     1.14203
  105. RY ( 4) C  7             0.00021     0.89202
  106. RY ( 1)Br  8             0.00129     0.84272
  107. RY ( 2)Br  8             0.00050     0.90035
  108. RY ( 3)Br  8             0.00029     1.24481
  109. RY ( 4)Br  8             0.00018     1.01078
  110. RY ( 5)Br  8             0.00005     1.07994
  111. RY ( 6)Br  8             0.00003     0.79864
  112. RY ( 7)Br  8             0.00002     0.82689
  113. RY ( 8)Br  8             0.00001     0.90640
  114. RY ( 9)Br  8             0.00000     0.85648
  115. RY ( 1) C  9             0.00239     1.49991
  116. RY ( 2) C  9             0.00174     1.21539
  117. RY ( 3) C  9             0.00021     0.89283
  118. RY ( 4) C  9             0.00014     1.10575
  119. RY ( 1) C 10             0.00212     1.59586
  120. RY ( 2) C 10             0.00164     1.19908
  121. RY ( 3) C 10             0.00018     0.91149
  122. RY ( 4) C 10             0.00010     1.13198
  123. RY ( 1) C 11             0.00251     1.64362
  124. RY ( 2) C 11             0.00218     1.71350
  125. RY ( 3) C 11             0.00037     0.94883
  126. RY ( 4) C 11             0.00014     1.20912
  127. RY ( 1) H 12             0.00038     0.81559
  128. RY ( 1) H 13             0.00040     0.78114
  129. RY ( 1) H 14             0.00072     0.75861
  130. RY ( 1) H 15             0.00066     0.75569
  131. RY ( 1) H 16             0.00084     0.75340
  132. RY ( 1) H 17             0.00071     0.75018
  133. RY ( 1) H 18             0.00065     0.77778
  134. RY ( 1) H 19             0.00066     0.76411
  135. RY ( 1) H 20             0.00047     0.81634
          -------------------------------
                 Total Lewis   51.20205  ( 98.4655%)
           Valence non-Lewis    0.74937  (  1.4411%)
           Rydberg non-Lewis    0.04858  (  0.0934%)
          -------------------------------
               Total unit  1   52.00000  (100.0000%)
              Charge unit  1    0.00000

 $CHOOSE
  ALPHA
   LONE 1 1 7 1 8 3 END
   BOND S 1 2 S 1 12 S 1 13 S 2 3 D 2 11 S 3 4 S 3 14 S 3 15 S 4 5 S 4 16
        S 4 17 D 5 6 S 5 11 S 6 7 S 6 18 S 7 8 S 7 9 D 9 10 S 9 19 S 10 11
        S 10 20 END
  END
  BETA
   LONE 8 3 END
   BOND D 1 2 S 1 12 S 1 13 S 2 3 S 2 11 S 3 4 S 3 14 S 3 15 S 4 5 S 4 16
        S 4 17 S 5 6 D 5 11 D 6 7 S 6 18 S 7 8 S 7 9 D 9 10 S 9 19 S 10 11
        S 10 20 END
  END
 $END

 NBO analysis completed in 1.12 CPU seconds (2 wall seconds)
 Maximum scratch memory used by NBO was 612477 words (4.67 MB)
 Maximum scratch memory used by G16NBO was 45532 words (0.35 MB)

 Opening RunExU unformatted file "/home/rpaton/arbr500/xtb/fukui/Gau-2300020.EUF"
 Read unf file /home/rpaton/arbr500/xtb/fukui/Gau-2300020.EUF:
 Label Gaussian matrix elements                                         IVers= 2 NLab= 2 Version=ES64L-G16RevC.01
 Title energy: -30.071168380890 gnorm: 0.000653469021 xtb: 6.7.0 (08769
 NAtoms=    20 NBasis=   135 NBsUse=   135 ICharg=    -1 Multip=     2 NE=   105 Len12L=8 Len4L=8 IOpCl= 1 ICGU=112
 GAUSSIAN SCALARS                    NI= 1 NR= 1 NTot=       1 LenBuf=    2 NRI=1 N=    1000
 NPA CHARGES                         NI= 0 NR= 1 NTot=      20 LenBuf= 2048 NRI=1 N=      20
 Recovered energy= -2946.09011475     dipole=      1.463082420119     -0.829467428269      0.023986622761
 Unable to Open any file for archive entry.
 1\1\GINC-DYNAMO\SP\UwB97XD\MIDIx\C10H9Br1(1-,2)\RPATON\28-Sep-2024\0\\
 # wb97xd midix pop(nbo6,hirshfeld)\\energy: -30.071168380890 gnorm: 0.
 000653469021 xtb: 6.7.0 (08769fc)\\-1,2\C,0,-3.95261,1.37087,-0.0836\C
 ,0,-3.08472,0.36984,0.00706\C,0,-3.44273,-1.09413,0.12662\C,0,-2.12894
 ,-1.86972,-0.07084\C,0,-1.06756,-0.81339,-0.02446\C,0,0.30108,-0.98564
 ,-0.02751\C,0,1.09697,0.15017,0.00147\Br,0,2.99506,-0.0527,0.00488\C,0
 ,0.55823,1.42709,0.02873\C,0,-0.8164,1.58945,0.02866\C,0,-1.63093,0.46
 661,0.00371\H,0,-3.63378,2.39548,-0.16331\H,0,-5.01506,1.19716,-0.0826
 7\H,0,-3.85342,-1.28186,1.12134\H,0,-4.2028,-1.37728,-0.60113\H,0,-2.1
 0807,-2.37277,-1.04087\H,0,-1.97422,-2.62973,0.69621\H,0,0.74537,-1.96
 921,-0.05069\H,0,1.21194,2.28551,0.05219\H,0,-1.24159,2.58082,0.05369\
 \Version=ES64L-G16RevC.01\State=2-A\HF=-2946.0901147\S2=0.771322\S2-1=
 0.\S2A=0.750219\RMSD=7.882e-09\Dipole=1.4670992,-0.8222953,0.0255374\Q
 uadrupole=-15.8216884,8.5751634,7.246525,5.2725926,-0.2032917,0.100978
 7\PG=C01 [X(C10H9Br1)]\\@
 The archive entry for this job was punched.


 CHARLIE BROWN -- WHICH DO YOU THINK LASTS LONGER IN LIFE, THE GOOD THINGS 
                  OR THE BAD THINGS?
 LINUS --         GOOD THINGS LAST EIGHT SECONDS ..
                  BAD THINGS LAST THREE WEEKS
 CHARLIE BROWN -- WHAT ABOUT IN BETWEEN?
 SNOOPY --        IN BETWEEN YOU SHOULD TAKE A NAP ...
 Job cpu time:       0 days  0 hours  7 minutes 59.2 seconds.
 Elapsed time:       0 days  0 hours  0 minutes 20.4 seconds.
 File lengths (MBytes):  RWF=     20 Int=      0 D2E=      0 Chk=      2 Scr=      1
 Normal termination of Gaussian 16 at Sat Sep 28 22:42:12 2024.
