 Entering Gaussian System, Link 0=/usr/local/Gaussian/G16C/g16/g16
 Input=arbr37_xtbopt_red.com
 Output=arbr37_xtbopt_red.log
 Initial command:
 /usr/local/Gaussian/G16C/g16/l1.exe "/home/rpaton/arbr500/xtb/fukui/Gau-2142485.inp" -scrdir="/home/rpaton/arbr500/xtb/fukui/"
 Entering Link 1 = /usr/local/Gaussian/G16C/g16/l1.exe PID=   2142486.
  
 Copyright (c) 1988-2019, Gaussian, Inc.  All Rights Reserved.
  
 This is part of the Gaussian(R) 16 program.  It is based on
 the Gaussian(R) 09 system (copyright 2009, Gaussian, Inc.),
 the Gaussian(R) 03 system (copyright 2003, Gaussian, Inc.),
 the Gaussian(R) 98 system (copyright 1998, Gaussian, Inc.),
 the Gaussian(R) 94 system (copyright 1995, Gaussian, Inc.),
 the Gaussian 92(TM) system (copyright 1992, Gaussian, Inc.),
 the Gaussian 90(TM) system (copyright 1990, Gaussian, Inc.),
 the Gaussian 88(TM) system (copyright 1988, Gaussian, Inc.),
 the Gaussian 86(TM) system (copyright 1986, Carnegie Mellon
 University), and the Gaussian 82(TM) system (copyright 1983,
 Carnegie Mellon University). Gaussian is a federally registered
 trademark of Gaussian, Inc.
  
 This software contains proprietary and confidential information,
 including trade secrets, belonging to Gaussian, Inc.
  
 This software is provided under written license and may be
 used, copied, transmitted, or stored only in accord with that
 written license.
  
 The following legend is applicable only to US Government
 contracts under FAR:
  
                    RESTRICTED RIGHTS LEGEND
  
 Use, reproduction and disclosure by the US Government is
 subject to restrictions as set forth in subparagraphs (a)
 and (c) of the Commercial Computer Software - Restricted
 Rights clause in FAR 52.227-19.
  
 Gaussian, Inc.
 340 Quinnipiac St., Bldg. 40, Wallingford CT 06492
  
  
 ---------------------------------------------------------------
 Warning -- This program may not be used in any manner that
 competes with the business of Gaussian, Inc. or will provide
 assistance to any competitor of Gaussian, Inc.  The licensee
 of this program is prohibited from giving any competitor of
 Gaussian, Inc. access to this program.  By using this program,
 the user acknowledges that Gaussian, Inc. is engaged in the
 business of creating and licensing software in the field of
 computational chemistry and represents and warrants to the
 licensee that it is not a competitor of Gaussian, Inc. and that
 it will not use this program in any manner prohibited above.
 ---------------------------------------------------------------
  

 Cite this work as:
 Gaussian 16, Revision C.01,
 M. J. Frisch, G. W. Trucks, H. B. Schlegel, G. E. Scuseria, 
 M. A. Robb, J. R. Cheeseman, G. Scalmani, V. Barone, 
 G. A. Petersson, H. Nakatsuji, X. Li, M. Caricato, A. V. Marenich, 
 J. Bloino, B. G. Janesko, R. Gomperts, B. Mennucci, H. P. Hratchian, 
 J. V. Ortiz, A. F. Izmaylov, J. L. Sonnenberg, D. Williams-Young, 
 F. Ding, F. Lipparini, F. Egidi, J. Goings, B. Peng, A. Petrone, 
 T. Henderson, D. Ranasinghe, V. G. Zakrzewski, J. Gao, N. Rega, 
 G. Zheng, W. Liang, M. Hada, M. Ehara, K. Toyota, R. Fukuda, 
 J. Hasegawa, M. Ishida, T. Nakajima, Y. Honda, O. Kitao, H. Nakai, 
 T. Vreven, K. Throssell, J. A. Montgomery, Jr., J. E. Peralta, 
 F. Ogliaro, M. J. Bearpark, J. J. Heyd, E. N. Brothers, K. N. Kudin, 
 V. N. Staroverov, T. A. Keith, R. Kobayashi, J. Normand, 
 K. Raghavachari, A. P. Rendell, J. C. Burant, S. S. Iyengar, 
 J. Tomasi, M. Cossi, J. M. Millam, M. Klene, C. Adamo, R. Cammi, 
 J. W. Ochterski, R. L. Martin, K. Morokuma, O. Farkas, 
 J. B. Foresman, and D. J. Fox, Gaussian, Inc., Wallingford CT, 2019.
 
 ******************************************
 Gaussian 16:  ES64L-G16RevC.01  3-Jul-2019
                28-Sep-2024 
 ******************************************
 %nprocshared=24
 Will use up to   24 processors via shared memory.
 ----------------------------------
 # wb97xd midix pop(nbo6,hirshfeld)
 ----------------------------------
 1/38=1,172=1/1;
 2/12=2,17=6,18=5,40=1/2;
 3/5=20,11=2,25=1,30=1,74=-58/1,2,3;
 4//1;
 5/5=2,38=5/2;
 6/7=2,8=2,9=2,10=2,28=1,40=1,79=1,113=1,114=1,124=3103,126=1/1,12;
 99/5=1,9=1/99;
 -------------------------------------------------------------------
 energy: -26.906191220599 gnorm: 0.000555879614 xtb: 6.7.0 (08769fc)
 -------------------------------------------------------------------
 Symbolic Z-matrix:
 Charge = -1 Multiplicity = 2
 Br                   -2.64822  -0.20666   0. 
 C                    -0.77531   0.16473  -0.00001 
 C                    -0.35488   1.48639   0. 
 C                     0.99834   1.77915   0.00001 
 C                     1.90759   0.73246   0.00001 
 C                     1.46155  -0.6007    0. 
 C                     0.11683  -0.89876   0. 
 C                     2.6502   -1.50914   0. 
 C                     3.7932   -0.54132   0.00001 
 C                     3.35613   0.72312   0.00001 
 H                    -1.08639   2.28009   0. 
 H                     1.33235   2.80574   0.00001 
 H                    -0.24034  -1.91759   0. 
 H                     2.66891  -2.15785  -0.87911 
 H                     2.66891  -2.15785   0.87911 
 H                     4.81771  -0.86782   0.00001 
 H                     3.95869   1.61368   0.00002 
 
                          Input orientation:                          
 ---------------------------------------------------------------------
 Center     Atomic      Atomic             Coordinates (Angstroms)
 Number     Number       Type             X           Y           Z
 ---------------------------------------------------------------------
      1         35           0       -2.648220   -0.206660    0.000000
      2          6           0       -0.775310    0.164730   -0.000010
      3          6           0       -0.354880    1.486390    0.000000
      4          6           0        0.998340    1.779150    0.000010
      5          6           0        1.907590    0.732460    0.000010
      6          6           0        1.461550   -0.600700    0.000000
      7          6           0        0.116830   -0.898760    0.000000
      8          6           0        2.650200   -1.509140    0.000000
      9          6           0        3.793200   -0.541320    0.000010
     10          6           0        3.356130    0.723120    0.000010
     11          1           0       -1.086390    2.280090    0.000000
     12          1           0        1.332350    2.805740    0.000010
     13          1           0       -0.240340   -1.917590    0.000000
     14          1           0        2.668910   -2.157850   -0.879110
     15          1           0        2.668910   -2.157850    0.879110
     16          1           0        4.817710   -0.867820    0.000010
     17          1           0        3.958690    1.613680    0.000020
 ---------------------------------------------------------------------
                    Distance matrix (angstroms):
                    1          2          3          4          5
     1  Br   0.000000
     2  C    1.909377   0.000000
     3  C    2.850584   1.386920   0.000000
     4  C    4.152209   2.398372   1.384526   0.000000
     5  C    4.651597   2.742311   2.384781   1.386469   0.000000
     6  C    4.128617   2.364197   2.766833   2.424510   1.405798
     7  C    2.850352   1.388137   2.431348   2.819266   2.422334
     8  C    5.456162   3.812605   4.243077   3.679877   2.361406
     9  C    6.450108   4.622747   4.617161   3.632606   2.275531
    10  C    6.075912   4.169004   3.788691   2.583481   1.448570
    11  H    2.936535   2.138111   1.079382   2.144071   3.370323
    12  H    4.991943   3.378929   2.141829   1.079560   2.151602
    13  H    2.953839   2.149942   3.405907   3.898745   3.411212
    14  H    5.731653   4.246157   4.816288   4.366191   3.115502
    15  H    5.731653   4.246161   4.816288   4.366187   3.115496
    16  H    7.495148   5.687533   5.683132   4.646938   3.321098
    17  H    6.853094   4.950779   4.315448   2.964971   2.232389
                    6          7          8          9         10
     6  C    0.000000
     7  C    1.377357   0.000000
     8  C    1.496045   2.605864   0.000000
     9  C    2.332406   3.693705   1.497706   0.000000
    10  C    2.311262   3.622645   2.341222   1.337849   0.000000
    11  H    3.845900   3.398945   5.321689   5.636555   4.707456
    12  H    3.408889   3.898822   4.511642   4.154346   2.903961
    13  H    2.151890   1.079623   2.919256   4.261873   4.461832
    14  H    2.157607   2.978465   1.092707   2.156397   3.089516
    15  H    2.157607   2.978465   1.092707   2.156389   3.089511
    16  H    3.366773   4.700982   2.260396   1.075278   2.160395
    17  H    3.337542   4.590451   3.385875   2.161345   1.075256
                   11         12         13         14         15
    11  H    0.000000
    12  H    2.475199   0.000000
    13  H    4.282093   4.978273   0.000000
    14  H    5.879662   5.215024   3.048655   0.000000
    15  H    5.879662   5.215020   3.048655   1.758220   0.000000
    16  H    6.690869   5.063870   5.165838   2.656007   2.656000
    17  H    5.088903   2.884210   5.486504   4.081769   4.081761
                   16         17
    16  H    0.000000
    17  H    2.625977   0.000000
 Stoichiometry    C9H7Br(1-,2)
 Framework group  C1[X(C9H7Br)]
 Deg. of freedom    45
 Full point group                 C1      NOp   1
 Largest Abelian subgroup         C1      NOp   1
 Largest concise Abelian subgroup C1      NOp   1
                         Standard orientation:                         
 ---------------------------------------------------------------------
 Center     Atomic      Atomic             Coordinates (Angstroms)
 Number     Number       Type             X           Y           Z
 ---------------------------------------------------------------------
      1         35           0        2.651444   -0.216393    0.000002
      2          6           0        0.779346    0.159068    0.000012
      3          6           0        0.361790    1.481639    0.000002
      4          6           0       -0.990790    1.777341   -0.000008
      5          6           0       -1.902314    0.732631   -0.000008
      6          6           0       -1.459173   -0.601496    0.000002
      7          6           0       -0.115105   -0.902479    0.000002
      8          6           0       -2.649796   -1.507349    0.000002
      9          6           0       -3.790689   -0.537046   -0.000008
     10          6           0       -3.350870    0.726440   -0.000008
     11          1           0        1.095025    2.273747    0.000002
     12          1           0       -1.322567    2.804655   -0.000008
     13          1           0        0.239849   -1.922084    0.000002
     14          1           0       -2.669916   -2.156017    0.879112
     15          1           0       -2.669916   -2.156017   -0.879108
     16          1           0       -4.815906   -0.861318   -0.000008
     17          1           0       -3.951493    1.618309   -0.000018
 ---------------------------------------------------------------------
 Rotational constants (GHZ):           3.2217622           0.4649554           0.4073372
 Standard basis: MIDIx (5D, 7F)
 There are   124 symmetry adapted cartesian basis functions of A   symmetry.
 There are   122 symmetry adapted basis functions of A   symmetry.
   122 basis functions,   219 primitive gaussians,   124 cartesian basis functions
    49 alpha electrons       48 beta electrons
       nuclear repulsion energy       683.6887850958 Hartrees.
 NAtoms=   17 NActive=   17 NUniq=   17 SFac= 1.00D+00 NAtFMM=   60 NAOKFM=F Big=F
 Integral buffers will be    131072 words long.
 Raffenetti 2 integral format.
 Two-electron integral symmetry is turned on.
 Nuclear repulsion after empirical dispersion term =      683.6794827105 Hartrees.
 One-electron integrals computed using PRISM.
 NBasis=   122 RedAO= T EigKep=  1.10D-03  NBF=   122
 NBsUse=   122 1.00D-06 EigRej= -1.00D+00 NBFU=   122
 ExpMin= 1.47D-01 ExpMax= 6.10D+03 ExpMxC= 6.10D+03 IAcc=3 IRadAn=         5 AccDes= 0.00D+00
 Harris functional with IExCor= 4639 and IRadAn=       5 diagonalized for initial guess.
 HarFok:  IExCor= 4639 AccDes= 0.00D+00 IRadAn=         5 IDoV= 1 UseB2=F ITyADJ=14
 ICtDFT=  3500011 ScaDFX=  1.000000  1.000000  1.000000  1.000000
 FoFCou: FMM=F IPFlag=           0 FMFlag=      100000 FMFlg1=           0
         NFxFlg=           0 DoJE=T BraDBF=F KetDBF=T FulRan=T
         wScrn=  0.000000 ICntrl=       500 IOpCl=  0 I1Cent=   200000004 NGrid=           0
         NMat0=    1 NMatS0=      1 NMatT0=    0 NMatD0=    1 NMtDS0=    0 NMtDT0=    0
 Petite list used in FoFCou.
 Initial guess <Sx>= 0.0000 <Sy>= 0.0000 <Sz>= 0.5000 <S**2>= 0.7500 S= 0.5000
 Requested convergence on RMS density matrix=1.00D-08 within 128 cycles.
 Requested convergence on MAX density matrix=1.00D-06.
 Requested convergence on             energy=1.00D-06.
 No special actions if energy rises.
 Integral accuracy reduced to 1.0D-05 until final iterations.
 Initial convergence to 1.0D-05 achieved.  Increase integral accuracy.
 SCF Done:  E(UwB97XD) =  -2907.00614814     A.U. after   28 cycles
            NFock= 28  Conv=0.36D-08     -V/T= 2.0016
 <Sx>= 0.0000 <Sy>= 0.0000 <Sz>= 0.5000 <S**2>= 0.7714 S= 0.5107
 <L.S>= 0.000000000000E+00
 Annihilation of the first spin contaminant:
 S**2 before annihilation     0.7714,   after     0.7502

 **********************************************************************

            Population analysis using the SCF Density.

 **********************************************************************

 Orbital symmetries:
 Alpha Orbitals:
       Occupied  (A) (A) (A) (A) (A) (A) (A) (A) (A) (A) (A) (A)
                 (A) (A) (A) (A) (A) (A) (A) (A) (A) (A) (A) (A)
                 (A) (A) (A) (A) (A) (A) (A) (A) (A) (A) (A) (A)
                 (A) (A) (A) (A) (A) (A) (A) (A) (A) (A) (A) (A)
                 (A)
       Virtual   (A) (A) (A) (A) (A) (A) (A) (A) (A) (A) (A) (A)
                 (A) (A) (A) (A) (A) (A) (A) (A) (A) (A) (A) (A)
                 (A) (A) (A) (A) (A) (A) (A) (A) (A) (A) (A) (A)
                 (A) (A) (A) (A) (A) (A) (A) (A) (A) (A) (A) (A)
                 (A) (A) (A) (A) (A) (A) (A) (A) (A) (A) (A) (A)
                 (A) (A) (A) (A) (A) (A) (A) (A) (A) (A) (A) (A)
                 (A)
 Beta  Orbitals:
       Occupied  (A) (A) (A) (A) (A) (A) (A) (A) (A) (A) (A) (A)
                 (A) (A) (A) (A) (A) (A) (A) (A) (A) (A) (A) (A)
                 (A) (A) (A) (A) (A) (A) (A) (A) (A) (A) (A) (A)
                 (A) (A) (A) (A) (A) (A) (A) (A) (A) (A) (A) (A)
       Virtual   (A) (A) (A) (A) (A) (A) (A) (A) (A) (A) (A) (A)
                 (A) (A) (A) (A) (A) (A) (A) (A) (A) (A) (A) (A)
                 (A) (A) (A) (A) (A) (A) (A) (A) (A) (A) (A) (A)
                 (A) (A) (A) (A) (A) (A) (A) (A) (A) (A) (A) (A)
                 (A) (A) (A) (A) (A) (A) (A) (A) (A) (A) (A) (A)
                 (A) (A) (A) (A) (A) (A) (A) (A) (A) (A) (A) (A)
                 (A) (A)
 The electronic state is 2-A.
 Alpha  occ. eigenvalues -- -479.98573 -62.41963 -56.00818 -56.00465 -56.00439
 Alpha  occ. eigenvalues --  -10.08648 -10.06368 -10.06091 -10.06083 -10.04904
 Alpha  occ. eigenvalues --  -10.04897 -10.03275 -10.03201 -10.01953  -8.72784
 Alpha  occ. eigenvalues --   -6.51121  -6.49932  -6.49890  -2.61457  -2.61043
 Alpha  occ. eigenvalues --   -2.60983  -2.60007  -2.60002  -0.81491  -0.76917
 Alpha  occ. eigenvalues --   -0.71576  -0.68293  -0.63119  -0.61168  -0.53266
 Alpha  occ. eigenvalues --   -0.49070  -0.47436  -0.42827  -0.38477  -0.36651
 Alpha  occ. eigenvalues --   -0.36291  -0.34144  -0.32685  -0.29539  -0.28984
 Alpha  occ. eigenvalues --   -0.26540  -0.25578  -0.23865  -0.23558  -0.20730
 Alpha  occ. eigenvalues --   -0.18998  -0.15941  -0.11763   0.04622
 Alpha virt. eigenvalues --    0.24850   0.25430   0.28982   0.35047   0.35932
 Alpha virt. eigenvalues --    0.37463   0.39440   0.40240   0.40686   0.42251
 Alpha virt. eigenvalues --    0.44955   0.49441   0.51124   0.55242   0.57168
 Alpha virt. eigenvalues --    0.60711   0.62384   0.67134   0.71164   0.72661
 Alpha virt. eigenvalues --    0.73972   0.74749   0.77039   0.79281   0.79617
 Alpha virt. eigenvalues --    0.79665   0.80004   0.81315   0.82839   0.84323
 Alpha virt. eigenvalues --    0.87081   0.87609   0.91905   0.93202   0.96288
 Alpha virt. eigenvalues --    0.98250   1.02009   1.03963   1.06832   1.09026
 Alpha virt. eigenvalues --    1.10554   1.12011   1.12421   1.13514   1.14966
 Alpha virt. eigenvalues --    1.16340   1.16672   1.17584   1.17893   1.18934
 Alpha virt. eigenvalues --    1.20296   1.20894   1.22942   1.23898   1.25474
 Alpha virt. eigenvalues --    1.26382   1.29576   1.29915   1.32867   1.32885
 Alpha virt. eigenvalues --    1.37467   1.38236   1.42066   1.48174   1.55755
 Alpha virt. eigenvalues --    1.61320   1.71293   1.77164   1.80454   1.86569
 Alpha virt. eigenvalues --    1.90786   2.01157   2.16513
  Beta  occ. eigenvalues -- -479.98573 -62.41961 -56.00824 -56.00465 -56.00430
  Beta  occ. eigenvalues --  -10.08264 -10.06428 -10.06129 -10.06112 -10.04807
  Beta  occ. eigenvalues --  -10.04777 -10.03278 -10.02963 -10.01433  -8.72783
  Beta  occ. eigenvalues --   -6.51132  -6.49932  -6.49877  -2.61462  -2.61048
  Beta  occ. eigenvalues --   -2.60975  -2.60001  -2.59996  -0.80970  -0.76364
  Beta  occ. eigenvalues --   -0.71288  -0.67950  -0.62588  -0.60760  -0.52870
  Beta  occ. eigenvalues --   -0.48484  -0.46739  -0.42629  -0.38142  -0.36372
  Beta  occ. eigenvalues --   -0.35541  -0.33956  -0.32425  -0.28682  -0.28447
  Beta  occ. eigenvalues --   -0.26170  -0.25372  -0.23641  -0.22530  -0.20706
  Beta  occ. eigenvalues --   -0.17534  -0.14762  -0.08846
  Beta virt. eigenvalues --    0.24605   0.25122   0.25944   0.32414   0.35120
  Beta virt. eigenvalues --    0.36012   0.37647   0.39511   0.40514   0.41463
  Beta virt. eigenvalues --    0.42396   0.46530   0.49816   0.51398   0.55737
  Beta virt. eigenvalues --    0.57361   0.61080   0.62833   0.67549   0.71452
  Beta virt. eigenvalues --    0.73000   0.74165   0.74939   0.77120   0.79462
  Beta virt. eigenvalues --    0.79739   0.79788   0.80437   0.81425   0.82973
  Beta virt. eigenvalues --    0.84526   0.87382   0.87974   0.92094   0.93401
  Beta virt. eigenvalues --    0.96420   0.99354   1.02515   1.04587   1.07305
  Beta virt. eigenvalues --    1.09417   1.10808   1.12324   1.12623   1.13750
  Beta virt. eigenvalues --    1.16064   1.16450   1.16907   1.18057   1.18584
  Beta virt. eigenvalues --    1.19023   1.21050   1.21064   1.23060   1.24998
  Beta virt. eigenvalues --    1.25697   1.26613   1.30256   1.30265   1.33163
  Beta virt. eigenvalues --    1.33496   1.37658   1.38456   1.42283   1.48313
  Beta virt. eigenvalues --    1.55974   1.61528   1.71448   1.77533   1.80615
  Beta virt. eigenvalues --    1.86787   1.91043   2.01470   2.16840
          Condensed to atoms (all electrons):
               1          2          3          4          5          6
     1  Br  35.128224   0.179107  -0.037629   0.001937   0.000444   0.002461
     2  C    0.179107   5.232215   0.447125  -0.046339  -0.037125  -0.039350
     3  C   -0.037629   0.447125   4.956551   0.550457  -0.044159  -0.036796
     4  C    0.001937  -0.046339   0.550457   4.931312   0.408911  -0.011539
     5  C    0.000444  -0.037125  -0.044159   0.408911   5.128479   0.414184
     6  C    0.002461  -0.039350  -0.036796  -0.011539   0.414184   5.142844
     7  C   -0.038789   0.445947  -0.029533  -0.020981  -0.030666   0.526142
     8  C   -0.000032   0.000153   0.000936   0.001793  -0.073110   0.328156
     9  C    0.000001  -0.000182  -0.000087   0.002283  -0.098374  -0.086706
    10  C    0.000001   0.001240  -0.000091   0.001666   0.479881  -0.063146
    11  H   -0.000489  -0.029586   0.399000  -0.023197   0.003805   0.000194
    12  H   -0.000079   0.003603  -0.029110   0.401035  -0.026437   0.003729
    13  H   -0.000410  -0.026305   0.002731   0.000033   0.003068  -0.019464
    14  H   -0.000001   0.000204  -0.000022  -0.000127   0.004202  -0.033357
    15  H   -0.000001   0.000204  -0.000022  -0.000127   0.004202  -0.033357
    16  H   -0.000000   0.000003   0.000002  -0.000065   0.005059   0.004363
    17  H   -0.000000  -0.000015   0.000043  -0.003580  -0.026318   0.003093
               7          8          9         10         11         12
     1  Br  -0.038789  -0.000032   0.000001   0.000001  -0.000489  -0.000079
     2  C    0.445947   0.000153  -0.000182   0.001240  -0.029586   0.003603
     3  C   -0.029533   0.000936  -0.000087  -0.000091   0.399000  -0.029110
     4  C   -0.020981   0.001793   0.002283   0.001666  -0.023197   0.401035
     5  C   -0.030666  -0.073110  -0.098374   0.479881   0.003805  -0.026437
     6  C    0.526142   0.328156  -0.086706  -0.063146   0.000194   0.003729
     7  C    4.888066   0.008582   0.003055   0.001180   0.003001  -0.000044
     8  C    0.008582   5.070954   0.385356  -0.089453   0.000007  -0.000118
     9  C    0.003055   0.385356   5.231730   0.541631   0.000001   0.000094
    10  C    0.001180  -0.089453   0.541631   4.926689  -0.000028  -0.005632
    11  H    0.003001   0.000007   0.000001  -0.000028   0.517731  -0.005534
    12  H   -0.000044  -0.000118   0.000094  -0.005632  -0.005534   0.536237
    13  H    0.393344  -0.005986   0.000072  -0.000131  -0.000090   0.000011
    14  H   -0.005802   0.376027  -0.045150   0.002712  -0.000000   0.000004
    15  H   -0.005802   0.376029  -0.045152   0.002712  -0.000000   0.000004
    16  H   -0.000059  -0.033793   0.404720  -0.024939  -0.000000  -0.000002
    17  H   -0.000059   0.005617  -0.024912   0.397881  -0.000000   0.002221
              13         14         15         16         17
     1  Br  -0.000410  -0.000001  -0.000001  -0.000000  -0.000000
     2  C   -0.026305   0.000204   0.000204   0.000003  -0.000015
     3  C    0.002731  -0.000022  -0.000022   0.000002   0.000043
     4  C    0.000033  -0.000127  -0.000127  -0.000065  -0.003580
     5  C    0.003068   0.004202   0.004202   0.005059  -0.026318
     6  C   -0.019464  -0.033357  -0.033357   0.004363   0.003093
     7  C    0.393344  -0.005802  -0.005802  -0.000059  -0.000059
     8  C   -0.005986   0.376027   0.376029  -0.033793   0.005617
     9  C    0.000072  -0.045150  -0.045152   0.404720  -0.024912
    10  C   -0.000131   0.002712   0.002712  -0.024939   0.397881
    11  H   -0.000090  -0.000000  -0.000000  -0.000000  -0.000000
    12  H    0.000011   0.000004   0.000004  -0.000002   0.002221
    13  H    0.512741   0.001069   0.001070  -0.000001   0.000002
    14  H    0.001069   0.604772  -0.046487  -0.000568  -0.000161
    15  H    0.001070  -0.046487   0.604772  -0.000568  -0.000161
    16  H   -0.000001  -0.000568  -0.000568   0.551549  -0.004022
    17  H    0.000002  -0.000161  -0.000161  -0.004022   0.542248
          Atomic-Atomic Spin Densities.
               1          2          3          4          5          6
     1  Br   0.010490  -0.016621   0.000817   0.000127  -0.000052   0.000157
     2  C   -0.016621   0.474200  -0.062580  -0.015959   0.010723  -0.018875
     3  C    0.000817  -0.062580  -0.025496   0.046605  -0.010496   0.005811
     4  C    0.000127  -0.015959   0.046605   0.122632  -0.079812   0.004284
     5  C   -0.000052   0.010723  -0.010496  -0.079812   0.336005  -0.083945
     6  C    0.000157  -0.018875   0.005811   0.004284  -0.083945   0.149219
     7  C    0.000758  -0.060378   0.000659   0.004739  -0.009538   0.046474
     8  C   -0.000000   0.000169  -0.000040   0.000143   0.001279   0.004162
     9  C    0.000000  -0.000099   0.000039   0.001179  -0.038708   0.016759
    10  C   -0.000000   0.000204  -0.000322  -0.008837   0.095895  -0.012853
    11  H    0.000130  -0.000498   0.001362  -0.000628   0.000057  -0.000011
    12  H   -0.000000   0.000078  -0.000773   0.001338  -0.000911   0.000053
    13  H    0.000133  -0.000513   0.000033  -0.000008   0.000048  -0.000621
    14  H   -0.000001   0.000148  -0.000014  -0.000064   0.002315  -0.009479
    15  H   -0.000001   0.000148  -0.000014  -0.000064   0.002315  -0.009479
    16  H   -0.000000   0.000000  -0.000000  -0.000002   0.000015   0.000017
    17  H   -0.000000   0.000000  -0.000004   0.000142  -0.001102   0.000053
               7          8          9         10         11         12
     1  Br   0.000758  -0.000000   0.000000  -0.000000   0.000130  -0.000000
     2  C   -0.060378   0.000169  -0.000099   0.000204  -0.000498   0.000078
     3  C    0.000659  -0.000040   0.000039  -0.000322   0.001362  -0.000773
     4  C    0.004739   0.000143   0.001179  -0.008837  -0.000628   0.001338
     5  C   -0.009538   0.001279  -0.038708   0.095895   0.000057  -0.000911
     6  C    0.046474   0.004162   0.016759  -0.012853  -0.000011   0.000053
     7  C   -0.021159  -0.001635   0.000783  -0.000673   0.000043  -0.000018
     8  C   -0.001635  -0.070370  -0.006473  -0.001512  -0.000000  -0.000000
     9  C    0.000783  -0.006473   0.647567  -0.121540   0.000000   0.000004
    10  C   -0.000673  -0.001512  -0.121540   0.000842  -0.000001   0.000240
    11  H    0.000043  -0.000000   0.000000  -0.000001   0.000012   0.000109
    12  H   -0.000018  -0.000000   0.000004   0.000240   0.000109  -0.005810
    13  H    0.001458   0.000083  -0.000002   0.000001   0.000001  -0.000000
    14  H   -0.001318   0.005317  -0.018674   0.001898   0.000000  -0.000000
    15  H   -0.001318   0.005318  -0.018675   0.001898   0.000000  -0.000000
    16  H    0.000000  -0.001291   0.000629  -0.001422   0.000000   0.000000
    17  H    0.000000  -0.000018  -0.000458   0.001881   0.000000  -0.000017
              13         14         15         16         17
     1  Br   0.000133  -0.000001  -0.000001  -0.000000  -0.000000
     2  C   -0.000513   0.000148   0.000148   0.000000   0.000000
     3  C    0.000033  -0.000014  -0.000014  -0.000000  -0.000004
     4  C   -0.000008  -0.000064  -0.000064  -0.000002   0.000142
     5  C    0.000048   0.002315   0.002315   0.000015  -0.001102
     6  C   -0.000621  -0.009479  -0.009479   0.000017   0.000053
     7  C    0.001458  -0.001318  -0.001318   0.000000   0.000000
     8  C    0.000083   0.005317   0.005318  -0.001291  -0.000018
     9  C   -0.000002  -0.018674  -0.018675   0.000629  -0.000458
    10  C    0.000001   0.001898   0.001898  -0.001422   0.001881
    11  H    0.000001   0.000000   0.000000   0.000000   0.000000
    12  H   -0.000000  -0.000000  -0.000000   0.000000  -0.000017
    13  H   -0.000277  -0.000008  -0.000008   0.000000   0.000000
    14  H   -0.000008   0.072121  -0.018920   0.000121  -0.000001
    15  H   -0.000008  -0.018920   0.072120   0.000121  -0.000001
    16  H    0.000000   0.000121   0.000121  -0.025141   0.000171
    17  H    0.000000  -0.000001  -0.000001   0.000171  -0.001272
 Mulliken charges and spin densities:
               1          2
     1  Br  -0.234745  -0.004064
     2  C   -0.130899   0.310145
     3  C   -0.179396  -0.044413
     4  C   -0.193472   0.075815
     5  C   -0.116047   0.224088
     6  C   -0.101450   0.091726
     7  C   -0.137583  -0.041122
     8  C   -0.351117  -0.064869
     9  C   -0.268380   0.462330
    10  C   -0.172173  -0.044300
    11  H    0.135186   0.000576
    12  H    0.120017  -0.005708
    13  H    0.138245   0.000319
    14  H    0.142684   0.033441
    15  H    0.142685   0.033441
    16  H    0.098322  -0.026782
    17  H    0.108123  -0.000624
 Sum of Mulliken charges =  -1.00000   1.00000
 Mulliken charges and spin densities with hydrogens summed into heavy atoms:
               1          2
     1  Br  -0.234745  -0.004064
     2  C   -0.130899   0.310145
     3  C   -0.044210  -0.043836
     4  C   -0.073455   0.070107
     5  C   -0.116047   0.224088
     6  C   -0.101450   0.091726
     7  C    0.000662  -0.040803
     8  C   -0.065748   0.002013
     9  C   -0.170058   0.435548
    10  C   -0.064050  -0.044923
 Electronic spatial extent (au):  <R**2>=           2464.0130
 Charge=             -1.0000 electrons
 Dipole moment (field-independent basis, Debye):
    X=              4.1151    Y=             -0.5094    Z=             -0.0000  Tot=              4.1465
 Quadrupole moment (field-independent basis, Debye-Ang):
   XX=           -104.3778   YY=            -74.7519   ZZ=            -78.3702
   XY=             -0.2341   XZ=             -0.0001   YZ=             -0.0000
 Traceless Quadrupole moment (field-independent basis, Debye-Ang):
   XX=            -18.5445   YY=             11.0814   ZZ=              7.4631
   XY=             -0.2341   XZ=             -0.0001   YZ=             -0.0000
 Octapole moment (field-independent basis, Debye-Ang**2):
  XXX=            167.1751  YYY=             -6.3230  ZZZ=              0.0001  XYY=             37.0550
  XXY=              3.4708  XXZ=              0.0000  XZZ=             40.0754  YZZ=             -5.5248
  YYZ=              0.0000  XYZ=              0.0001
 Hexadecapole moment (field-independent basis, Debye-Ang**3):
 XXXX=          -2731.8064 YYYY=           -537.6883 ZZZZ=            -90.6858 XXXY=            -47.8298
 XXXZ=             -0.0023 YYYX=            -29.5417 YYYZ=              0.0005 ZZZX=             -0.0021
 ZZZY=              0.0006 XXYY=           -501.0460 XXZZ=           -452.8884 YYZZ=           -111.9117
 XXYZ=             -0.0001 YYXZ=             -0.0006 ZZXY=             -3.6532
 N-N= 6.836794827105D+02 E-N=-8.308571543254D+03  KE= 2.902497186064D+03
 There are a total of      386936 grid points.
 ElSum from          density=       96.9999900908
 ElSum from atomic densities=       96.0000581983
 Hirshfeld populations at iteration   1 (CA, CB, DipXYZ):
               1          2          3          4          5
     1  Br  17.607849  17.581068  -0.107308   0.020502   0.000000
     2  C    3.132160   2.944122   0.045680  -0.011737  -0.000005
     3  C    3.057116   3.040820   0.014041   0.016666  -0.000000
     4  C    3.087363   3.014675  -0.030164   0.019126   0.000001
     5  C    3.118138   2.963215   0.017023   0.001192   0.000000
     6  C    3.060203   2.982441  -0.052132  -0.030198   0.000000
     7  C    3.056157   3.036797   0.008389  -0.032597  -0.000000
     8  C    3.045220   3.022087   0.012893   0.014989   0.000000
     9  C    3.225288   2.936957   0.025365  -0.070812   0.000001
    10  C    3.089136   3.040333  -0.004932   0.061379  -0.000001
    11  H    0.494304   0.493185   0.084636   0.116087  -0.000000
    12  H    0.497312   0.492465  -0.045367   0.134212   0.000000
    13  H    0.491940   0.491177   0.032925  -0.139775  -0.000000
    14  H    0.512803   0.485219  -0.003059  -0.074390   0.097682
    15  H    0.512803   0.485219  -0.003059  -0.074389  -0.097683
    16  H    0.514298   0.494883  -0.132402  -0.044736   0.000000
    17  H    0.497907   0.495330  -0.079150   0.117549  -0.000001
       Tot  48.999995  47.999995  -0.216622   0.023068  -0.000005

 Dip from Atomic Chgs              1.835603  -0.223461   0.000003
         Total Dipole              1.618981  -0.200393  -0.000002

 Hirshfeld charges, spin densities, dipoles, and CM5 charges using IRadAn=      5:
              Q-H        S-H        Dx         Dy         Dz        Q-CM5   
     1  Br  -0.188917   0.026781  -0.107308   0.020502   0.000000  -0.174498
     2  C   -0.076282   0.188038   0.045680  -0.011737  -0.000005  -0.097189
     3  C   -0.097936   0.016295   0.014041   0.016666  -0.000000  -0.152037
     4  C   -0.102037   0.072688  -0.030164   0.019126   0.000001  -0.155182
     5  C   -0.081353   0.154923   0.017023   0.001192   0.000000  -0.088806
     6  C   -0.042644   0.077762  -0.052132  -0.030198   0.000000  -0.053525
     7  C   -0.092954   0.019360   0.008389  -0.032597  -0.000000  -0.144416
     8  C   -0.067307   0.023132   0.012893   0.014989   0.000000  -0.165557
     9  C   -0.162246   0.288331   0.025365  -0.070812   0.000001  -0.222043
    10  C   -0.129470   0.048803  -0.004932   0.061379  -0.000001  -0.183637
    11  H    0.012511   0.001119   0.084636   0.116087  -0.000000   0.070071
    12  H    0.010223   0.004847  -0.045367   0.134212   0.000000   0.067190
    13  H    0.016883   0.000763   0.032925  -0.139775  -0.000000   0.074715
    14  H    0.001978   0.027583  -0.003059  -0.074390   0.097682   0.057400
    15  H    0.001978   0.027583  -0.003059  -0.074389  -0.097683   0.057400
    16  H   -0.009181   0.019415  -0.132402  -0.044736   0.000000   0.046767
    17  H    0.006763   0.002577  -0.079150   0.117549  -0.000001   0.063356
       Tot  -0.999990   1.000000  -0.216622   0.023068  -0.000005  -0.999990
 Hirshfeld charges and spin densities with hydrogens summed into heavy atoms:
              Q-H        S-H       Q-CM5   
     1  Br  -0.188917   0.026781  -0.174498
     2  C   -0.076282   0.188038  -0.097189
     3  C   -0.085425   0.017414  -0.081966
     4  C   -0.091815   0.077535  -0.087992
     5  C   -0.081353   0.154923  -0.088806
     6  C   -0.042644   0.077762  -0.053525
     7  C   -0.076071   0.020124  -0.069702
     8  C   -0.063351   0.078299  -0.050756
     9  C   -0.171426   0.307746  -0.175275
    10  C   -0.122706   0.051380  -0.120282
 
 EQQ= 0.894141529890E-01 EQD=-0.416600752690E-01 EDD= 0.178500383367E-02
 EQQ+QD+DD= 0.495390815537E-01
 
                          Isotropic Fermi Contact Couplings
        Atom                 a.u.       MegaHertz       Gauss      10(-4) cm-1
     1  Br(79)            -0.00197      -2.21049      -0.78876      -0.73734
     2  C(13)              0.03431      38.56719      13.76173      12.86463
     3  C(13)             -0.00866      -9.73574      -3.47396      -3.24749
     4  C(13)              0.00429       4.82550       1.72186       1.60961
     5  C(13)              0.01786      20.07377       7.16282       6.69589
     6  C(13)              0.00697       7.83507       2.79575       2.61350
     7  C(13)             -0.00868      -9.75253      -3.47995      -3.25310
     8  C(13)             -0.01598     -17.96760      -6.41129      -5.99335
     9  C(13)              0.04386      49.31168      17.59563      16.44860
    10  C(13)             -0.01182     -13.28935      -4.74197      -4.43285
    11  H(1)               0.00011       0.48644       0.17357       0.16226
    12  H(1)              -0.00120      -5.34461      -1.90709      -1.78277
    13  H(1)               0.00004       0.19301       0.06887       0.06438
    14  H(1)               0.01446      64.62552      23.05999      21.55675
    15  H(1)               0.01446      64.62569      23.06005      21.55681
    16  H(1)              -0.00525     -23.47833      -8.37765      -7.83153
    17  H(1)              -0.00017      -0.73758      -0.26319      -0.24603
 --------------------------------------------------------
       Center         ----  Spin Dipole Couplings  ----
                      3XX-RR        3YY-RR        3ZZ-RR
 --------------------------------------------------------
     1   Atom       -0.199867     -0.015063      0.214930
     2   Atom       -0.148769     -0.164631      0.313400
     3   Atom        0.007254      0.008991     -0.016244
     4   Atom       -0.042900     -0.042686      0.085586
     5   Atom       -0.108878     -0.118312      0.227191
     6   Atom       -0.046594     -0.054207      0.100802
     7   Atom        0.007150      0.000900     -0.008051
     8   Atom        0.003584      0.002754     -0.006338
     9   Atom       -0.209152     -0.220933      0.430086
    10   Atom       -0.003734      0.001780      0.001954
    11   Atom        0.001255      0.002105     -0.003360
    12   Atom       -0.005802      0.009341     -0.003539
    13   Atom        0.001049      0.002894     -0.003944
    14   Atom        0.000336      0.004108     -0.004444
    15   Atom        0.000336      0.004108     -0.004444
    16   Atom        0.030972     -0.028002     -0.002969
    17   Atom        0.002093      0.002478     -0.004571
 --------------------------------------------------------
                        XY            XZ            YZ
 --------------------------------------------------------
     1   Atom        0.038759     -0.000017      0.000004
     2   Atom       -0.002372      0.000006     -0.000001
     3   Atom       -0.003280     -0.000000     -0.000001
     4   Atom        0.003422     -0.000001      0.000000
     5   Atom        0.002188      0.000000      0.000001
     6   Atom       -0.001119     -0.000000      0.000001
     7   Atom        0.002865      0.000001      0.000001
     8   Atom       -0.002421      0.000000     -0.000000
     9   Atom        0.001619     -0.000003      0.000003
    10   Atom        0.005190      0.000001      0.000001
    11   Atom        0.001648      0.000000     -0.000000
    12   Atom       -0.003187     -0.000000      0.000000
    13   Atom       -0.001271      0.000000      0.000000
    14   Atom       -0.003035      0.001566     -0.002446
    15   Atom       -0.003035     -0.001566      0.002446
    16   Atom        0.018539     -0.000000      0.000000
    17   Atom       -0.004579      0.000000     -0.000000
 --------------------------------------------------------


 ---------------------------------------------------------------------------------
              Anisotropic Spin Dipole Couplings in Principal Axis System
 ---------------------------------------------------------------------------------

       Atom             a.u.   MegaHertz   Gauss  10(-4) cm-1        Axes

              Baa    -0.2077   -27.856    -9.940    -9.292  0.9803 -0.1973  0.0000
     1 Br(79) Bbb    -0.0073    -0.974    -0.348    -0.325  0.1973  0.9803 -0.0000
              Bcc     0.2149    28.830    10.287     9.617 -0.0000  0.0000  1.0000
 
              Baa    -0.1650   -22.138    -7.900    -7.385  0.1448  0.9895  0.0000
     2 C(13)  Bbb    -0.1484   -19.917    -7.107    -6.644  0.9895 -0.1448 -0.0000
              Bcc     0.3134    42.055    15.006    14.028  0.0000 -0.0000  1.0000
 
              Baa    -0.0162    -2.180    -0.778    -0.727  0.0000  0.0000  1.0000
     3 C(13)  Bbb     0.0047     0.635     0.226     0.212  0.7924  0.6099 -0.0000
              Bcc     0.0115     1.545     0.551     0.515 -0.6099  0.7924 -0.0000
 
              Baa    -0.0462    -6.202    -2.213    -2.069  0.7181 -0.6960  0.0000
     4 C(13)  Bbb    -0.0394    -5.283    -1.885    -1.762  0.6960  0.7181  0.0000
              Bcc     0.0856    11.485     4.098     3.831 -0.0000  0.0000  1.0000
 
              Baa    -0.1188   -15.941    -5.688    -5.317 -0.2154  0.9765 -0.0000
     5 C(13)  Bbb    -0.1084   -14.546    -5.190    -4.852  0.9765  0.2154 -0.0000
              Bcc     0.2272    30.487    10.878    10.169  0.0000  0.0000  1.0000
 
              Baa    -0.0544    -7.296    -2.603    -2.434  0.1425  0.9898 -0.0000
     6 C(13)  Bbb    -0.0464    -6.231    -2.223    -2.078  0.9898 -0.1425  0.0000
              Bcc     0.1008    13.527     4.827     4.512 -0.0000  0.0000  1.0000
 
              Baa    -0.0081    -1.080    -0.385    -0.360 -0.0000 -0.0001  1.0000
     7 C(13)  Bbb    -0.0002    -0.029    -0.010    -0.010 -0.3625  0.9320  0.0001
              Bcc     0.0083     1.109     0.396     0.370  0.9320  0.3625  0.0001
 
              Baa    -0.0063    -0.851    -0.303    -0.284 -0.0000  0.0000  1.0000
     8 C(13)  Bbb     0.0007     0.096     0.034     0.032  0.6446  0.7645  0.0000
              Bcc     0.0056     0.755     0.269     0.252  0.7645 -0.6446  0.0000
 
              Baa    -0.2212   -29.676   -10.589    -9.899 -0.1337  0.9910 -0.0000
     9 C(13)  Bbb    -0.2089   -28.037   -10.004    -9.352  0.9910  0.1337  0.0000
              Bcc     0.4301    57.713    20.594    19.251 -0.0000  0.0000  1.0000
 
              Baa    -0.0069    -0.920    -0.328    -0.307  0.8571 -0.5152 -0.0000
    10 C(13)  Bbb     0.0020     0.262     0.094     0.087 -0.0001 -0.0003  1.0000
              Bcc     0.0049     0.658     0.235     0.219  0.5152  0.8571  0.0003
 
              Baa    -0.0034    -1.792    -0.640    -0.598 -0.0000  0.0000  1.0000
    11 H(1)   Bbb    -0.0000    -0.012    -0.004    -0.004  0.7905 -0.6125  0.0000
              Bcc     0.0034     1.804     0.644     0.602  0.6125  0.7905 -0.0000
 
              Baa    -0.0064    -3.439    -1.227    -1.147  0.9802  0.1979  0.0000
    12 H(1)   Bbb    -0.0035    -1.888    -0.674    -0.630 -0.0000 -0.0000  1.0000
              Bcc     0.0100     5.327     1.901     1.777 -0.1979  0.9802  0.0000
 
              Baa    -0.0039    -2.104    -0.751    -0.702 -0.0000 -0.0000  1.0000
    13 H(1)   Bbb     0.0004     0.214     0.076     0.071  0.8909  0.4542  0.0000
              Bcc     0.0035     1.890     0.674     0.630 -0.4542  0.8909  0.0000
 
              Baa    -0.0052    -2.783    -0.993    -0.928 -0.1629  0.2004  0.9661
    14 H(1)   Bbb    -0.0013    -0.717    -0.256    -0.239  0.8648  0.5003  0.0421
              Bcc     0.0066     3.500     1.249     1.167 -0.4749  0.8423 -0.2549
 
              Baa    -0.0052    -2.783    -0.993    -0.928  0.1629 -0.2004  0.9661
    15 H(1)   Bbb    -0.0013    -0.717    -0.256    -0.239  0.8648  0.5003 -0.0421
              Bcc     0.0066     3.500     1.249     1.167 -0.4749  0.8423  0.2548
 
              Baa    -0.0333   -17.792    -6.349    -5.935 -0.2770  0.9609 -0.0000
    16 H(1)   Bbb    -0.0030    -1.584    -0.565    -0.528  0.0000  0.0000  1.0000
              Bcc     0.0363    19.376     6.914     6.463  0.9609  0.2770 -0.0000
 
              Baa    -0.0046    -2.439    -0.870    -0.814 -0.0000 -0.0000  1.0000
    17 H(1)   Bbb    -0.0023    -1.226    -0.437    -0.409  0.7218  0.6921  0.0000
              Bcc     0.0069     3.665     1.308     1.222 -0.6921  0.7218 -0.0000
 

 ---------------------------------------------------------------------------------

 Running external command "gaunbo6 R"
         input file       "/home/rpaton/arbr500/xtb/fukui/Gau-2142486.EIn"
         output file      "/home/rpaton/arbr500/xtb/fukui/Gau-2142486.EOu"
         message file     "/home/rpaton/arbr500/xtb/fukui/Gau-2142486.EMs"
         fchk file        "/home/rpaton/arbr500/xtb/fukui/Gau-2142486.EFC"
         mat. el file     "/home/rpaton/arbr500/xtb/fukui/Gau-2142486.EUF"

 Writing WrtUnf unformatted file "/home/rpaton/arbr500/xtb/fukui/Gau-2142486.EUF"
 Gaussian matrix elements                                         Version   2 NLab=11 Len12L=8 Len4L=8
 Write SHELL TO ATOM MAP                   from file      0 offset           0 length                  70 to matrix element file.
 Write SHELL TYPES                         from file      0 offset           0 length                  70 to matrix element file.
 Write NUMBER OF PRIMITIVES PER SHELL      from file      0 offset           0 length                  70 to matrix element file.
 Write PRIMITIVE EXPONENTS                 from file      0 offset           0 length                 127 to matrix element file.
 Write CONTRACTION COEFFICIENTS            from file      0 offset           0 length                 127 to matrix element file.
 Write P(S=P) CONTRACTION COEFFICIENTS     from file      0 offset           0 length                 127 to matrix element file.
 Write COORDINATES OF EACH SHELL           from file      0 offset           0 length                 210 to matrix element file.
 Write BONDS PER ATOM                      from file      0 offset           0 length                  17 to matrix element file.
 Write BONDED ATOMS                        from file      0 offset           0 length                  36 to matrix element file.
 Write BOND TYPES                          from file      0 offset           0 length                  36 to matrix element file.
 Write ONIOM CHARGE/MULT                   from file      0 offset           0 length                  32 to matrix element file.
 Write ONIOM ATOM LAYERS                   from file      0 offset           0 length                  17 to matrix element file.
 Write ONIOM ATOM MODIFIERS                from file      0 offset           0 length                  17 to matrix element file.
 Write ONIOM ATOM TYPES                    from file      0 offset           0 length                  17 to matrix element file.
 Write ONIOM LINK ATOMS                    from file      0 offset           0 length                  17 to matrix element file.
 Write ONIOM LINK CHARGES                  from file      0 offset           0 length                  17 to matrix element file.
 Write ONIOM LINK DISTANCES                from file      0 offset           0 length                  68 to matrix element file.
 Write SYMINF INTS                         from file      0 offset           0 length                  26 to matrix element file.
 Write ROTTR TO SO                         from file      0 offset           0 length                  12 to matrix element file.
 Write GAUSSIAN SCALARS                    from file    501 offset           0 to matrix element file.
 Write OPTIMIZATION FLAGS                  from file      0 offset           0 length                  17 to matrix element file.
 Write INTEGER ISO                         from file      0 offset           0 length                  17 to matrix element file.
 Write INTEGER SPIN                        from file      0 offset           0 length                  17 to matrix element file.
 Write REAL ZEFFECTIVE                     from file      0 offset           0 length                  17 to matrix element file.
 Write REAL QUADRUPOLEMOMENT               from file      0 offset           0 length                  17 to matrix element file.
 Write REAL GFACTOR                        from file      0 offset           0 length                  17 to matrix element file.
 Write REAL ZNUCLEAR                       from file      0 offset           0 length                  17 to matrix element file.
 Write MULLIKEN CHARGES                    from file      0 offset           0 length                  17 to matrix element file.
 Write TYPE 6 CHARGES                      from file      0 offset           0 length                  17 to matrix element file.
 Write TYPE 7 CHARGES                      from file      0 offset           0 length                  17 to matrix element file.
 Write NUCLEAR GRADIENT                    from file  10584 offset           0 length                  51 to matrix element file.
 Array NUCLEAR FORCE CONSTANTS              on  file  10585 does not exist.
 Write ELECTRIC DIPOLE MOMENT              from file      0 offset           0 length                   3 to matrix element file.
 Write NON-ADIABATIC COUPLING              from file  10810 offset           0 length                  51 to matrix element file.
 Write FINITE EM FIELD                     from file  10521 offset           0 length                  35 to matrix element file.
 Write OVERLAP                             from file  10514 offset           0 length                7503 to matrix element file.
 Write CORE HAMILTONIAN ALPHA              from file  10515 offset           0 length                7503 to matrix element file.
 Write CORE HAMILTONIAN BETA               from file  10515 offset        7503 length                7503 to matrix element file.
 Write KINETIC ENERGY                      from file  10516 offset           0 length                7503 to matrix element file.
 Write ORTHOGONAL BASIS                    from file  10685 offset           0 length               14884 to matrix element file.
 Write DIPOLE INTEGRALS                    from file  10518 offset           0 length               22509 to matrix element file.
 Array DIP VEL INTEGRALS                    on  file  10572 does not exist.
 Array R X DEL INTEGRALS                    on  file  10572 does not exist.
 Write ALPHA ORBITAL ENERGIES              from file      0 offset           0 length                 122 to matrix element file.
 Write BETA ORBITAL ENERGIES               from file      0 offset           0 length                 122 to matrix element file.
 Write ALPHA MO COEFFICIENTS               from file  10524 offset           0 length               14884 to matrix element file.
 Write BETA MO COEFFICIENTS                from file  10526 offset           0 length               14884 to matrix element file.
 Write ALPHA DENSITY MATRIX                from file      0 offset           0 length                7503 to matrix element file.
 Write BETA DENSITY MATRIX                 from file      0 offset           0 length                7503 to matrix element file.
 Write ALPHA FOCK MATRIX                   from file  10536 offset           0 length                7503 to matrix element file.
 Write BETA FOCK MATRIX                    from file  10538 offset           0 length                7503 to matrix element file.
 Write ENERGY-WEIGHTED DENSITY             from file  10571 offset           0 length                7503 to matrix element file.
 Write ALPHA SCF DENSITY MATRIX            from file      0 offset           0 length                7503 to matrix element file.
 Write BETA SCF DENSITY MATRIX             from file      0 offset           0 length                7503 to matrix element file.
 No 2e integrals to process.
 Perform NBO analysis...

 *********************************** NBO 7.0 ***********************************
             N A T U R A L   A T O M I C   O R B I T A L   A N D
          N A T U R A L   B O N D   O R B I T A L   A N A L Y S I S
 **************************** Robert Paton (I101709) ***************************
  (c) Copyright 1996-2019 Board of Regents of the University of Wisconsin System
      on behalf of the Theoretical Chemistry Institute.  All rights reserved.

          Cite this program [NBO 7.0.5 (4-Jun-2019)] as:

          NBO 7.0.  E. D. Glendening, J. K. Badenhoop, A. E. Reed,
          J. E. Carpenter, J. A. Bohmann, C. M. Morales, P. Karafiloglou,
          C. R. Landis, and F. Weinhold, Theoretical Chemistry Institute,
          University of Wisconsin, Madison, WI (2018)

 Filename set to /home/rpaton/arbr500/xtb/fukui/Gau-2142486

 Job title:  energy: -26.906191220599 gnorm: 0.000555879614 xtb: 6.7.0 (08769fc)


 NATURAL POPULATIONS:  Natural atomic orbital occupancies

  NAO Atom No lang   Type(AO)    Occupancy     Spin
 -----------------------------------------------------
   1   Br  1  s      Cor( 3s)     2.00000     0.00000
   2   Br  1  s      Cor( 1s)     2.00000     0.00000
   3   Br  1  s      Cor( 2s)     1.99999     0.00000
   4   Br  1  s      Val( 4s)     1.86494     0.00030
   5   Br  1  s      Ryd( 5s)     0.00252     0.00009
   6   Br  1  px     Cor( 3p)     2.00000     0.00000
   7   Br  1  px     Cor( 2p)     1.99999     0.00000
   8   Br  1  px     Val( 4p)     1.24776    -0.01246
   9   Br  1  px     Ryd( 5p)     0.00289     0.00005
  10   Br  1  py     Cor( 3p)     2.00000     0.00000
  11   Br  1  py     Cor( 2p)     1.99999     0.00000
  12   Br  1  py     Val( 4p)     1.95554    -0.00044
  13   Br  1  py     Ryd( 5p)     0.00122     0.00001
  14   Br  1  pz     Cor( 3p)     2.00000     0.00000
  15   Br  1  pz     Cor( 2p)     2.00000     0.00000
  16   Br  1  pz     Val( 4p)     1.97374     0.01182
  17   Br  1  pz     Ryd( 5p)     0.00087     0.00029
  18   Br  1  dxy    Cor( 3d)     1.99966     0.00000
  19   Br  1  dxy    Ryd( 4d)     0.00109    -0.00002
  20   Br  1  dxz    Cor( 3d)     1.99989     0.00001
  21   Br  1  dxz    Ryd( 4d)     0.00410     0.00159
  22   Br  1  dyz    Cor( 3d)     1.99999     0.00000
  23   Br  1  dyz    Ryd( 4d)     0.00023     0.00006
  24   Br  1  dx2y2  Cor( 3d)     1.99946     0.00000
  25   Br  1  dx2y2  Ryd( 4d)     0.00389    -0.00005
  26   Br  1  dz2    Cor( 3d)     1.99980     0.00000
  27   Br  1  dz2    Ryd( 4d)     0.00147     0.00000

  28    C  2  s      Cor( 1s)     1.99989     0.00000
  29    C  2  s      Val( 2s)     0.90508     0.01153
  30    C  2  s      Ryd( 3s)     0.00059     0.00000
  31    C  2  px     Val( 2p)     0.92359     0.00896
  32    C  2  px     Ryd( 3p)     0.00581    -0.00001
  33    C  2  py     Val( 2p)     1.10678     0.00543
  34    C  2  py     Ryd( 3p)     0.00646     0.00000
  35    C  2  pz     Val( 2p)     1.28292     0.23757
  36    C  2  pz     Ryd( 3p)     0.00142     0.00084

  37    C  3  s      Cor( 1s)     1.99986     0.00000
  38    C  3  s      Val( 2s)     0.92948    -0.00257
  39    C  3  s      Ryd( 3s)     0.00079     0.00002
  40    C  3  px     Val( 2p)     1.14159    -0.00252
  41    C  3  px     Ryd( 3p)     0.00580     0.00006
  42    C  3  py     Val( 2p)     1.14267    -0.00431
  43    C  3  py     Ryd( 3p)     0.00475     0.00001
  44    C  3  pz     Val( 2p)     1.06140    -0.00865
  45    C  3  pz     Ryd( 3p)     0.00128     0.00075

  46    C  4  s      Cor( 1s)     1.99983     0.00000
  47    C  4  s      Val( 2s)     0.91726     0.00179
  48    C  4  s      Ryd( 3s)     0.00063     0.00000
  49    C  4  px     Val( 2p)     1.07996    -0.00018
  50    C  4  px     Ryd( 3p)     0.00491     0.00001
  51    C  4  py     Val( 2p)     1.17892     0.00036
  52    C  4  py     Ryd( 3p)     0.00489     0.00002
  53    C  4  pz     Val( 2p)     1.09539     0.07215
  54    C  4  pz     Ryd( 3p)     0.00133     0.00075

  55    C  5  s      Cor( 1s)     1.99990     0.00000
  56    C  5  s      Val( 2s)     0.83172     0.00607
  57    C  5  s      Ryd( 3s)     0.00106     0.00004
  58    C  5  px     Val( 2p)     1.09520     0.00275
  59    C  5  px     Ryd( 3p)     0.00460     0.00004
  60    C  5  py     Val( 2p)     1.09260     0.00190
  61    C  5  py     Ryd( 3p)     0.00543     0.00000
  62    C  5  pz     Val( 2p)     1.11415     0.18203
  63    C  5  pz     Ryd( 3p)     0.00113     0.00096

  64    C  6  s      Cor( 1s)     1.99991     0.00000
  65    C  6  s      Val( 2s)     0.83255     0.00258
  66    C  6  s      Ryd( 3s)     0.00109    -0.00002
  67    C  6  px     Val( 2p)     1.08544     0.00192
  68    C  6  px     Ryd( 3p)     0.00449     0.00004
  69    C  6  py     Val( 2p)     1.06995    -0.00032
  70    C  6  py     Ryd( 3p)     0.00419    -0.00002
  71    C  6  pz     Val( 2p)     1.05207     0.08323
  72    C  6  pz     Ryd( 3p)     0.00152     0.00051

  73    C  7  s      Cor( 1s)     1.99984     0.00000
  74    C  7  s      Val( 2s)     0.92013    -0.00250
  75    C  7  s      Ryd( 3s)     0.00096     0.00002
  76    C  7  px     Val( 2p)     1.09815    -0.00451
  77    C  7  px     Ryd( 3p)     0.00604     0.00005
  78    C  7  py     Val( 2p)     1.18654    -0.00254
  79    C  7  py     Ryd( 3p)     0.00500     0.00003
  80    C  7  pz     Val( 2p)     1.05391    -0.00579
  81    C  7  pz     Ryd( 3p)     0.00092     0.00047

  82    C  8  s      Cor( 1s)     1.99976     0.00000
  83    C  8  s      Val( 2s)     1.01611    -0.00468
  84    C  8  s      Ryd( 3s)     0.00044     0.00000
  85    C  8  px     Val( 2p)     1.07828    -0.00900
  86    C  8  px     Ryd( 3p)     0.00204     0.00002
  87    C  8  py     Val( 2p)     1.18045    -0.00782
  88    C  8  py     Ryd( 3p)     0.00202     0.00001
  89    C  8  pz     Val( 2p)     1.23277    -0.00956
  90    C  8  pz     Ryd( 3p)     0.00034     0.00005

  91    C  9  s      Cor( 1s)     1.99988     0.00000
  92    C  9  s      Val( 2s)     0.92811     0.01548
  93    C  9  s      Ryd( 3s)     0.00056     0.00003
  94    C  9  px     Val( 2p)     1.13552     0.00934
  95    C  9  px     Ryd( 3p)     0.00297     0.00003
  96    C  9  py     Val( 2p)     1.05928     0.00844
  97    C  9  py     Ryd( 3p)     0.00459     0.00000
  98    C  9  pz     Val( 2p)     1.23473     0.36200
  99    C  9  pz     Ryd( 3p)     0.00342     0.00211

 100    C 10  s      Cor( 1s)     1.99985     0.00000
 101    C 10  s      Val( 2s)     0.93119    -0.00329
 102    C 10  s      Ryd( 3s)     0.00047     0.00004
 103    C 10  px     Val( 2p)     1.08396    -0.00597
 104    C 10  px     Ryd( 3p)     0.00421     0.00007
 105    C 10  py     Val( 2p)     1.17624    -0.00416
 106    C 10  py     Ryd( 3p)     0.00466     0.00003
 107    C 10  pz     Val( 2p)     1.11085     0.00746
 108    C 10  pz     Ryd( 3p)     0.00155     0.00086

 109    H 11  s      Val( 1s)     0.77329     0.00040
 110    H 11  s      Ryd( 2s)     0.00130     0.00000

 111    H 12  s      Val( 1s)     0.78516    -0.00288
 112    H 12  s      Ryd( 2s)     0.00096    -0.00001

 113    H 13  s      Val( 1s)     0.77141     0.00021
 114    H 13  s      Ryd( 2s)     0.00132     0.00000

 115    H 14  s      Val( 1s)     0.77084     0.03076
 116    H 14  s      Ryd( 2s)     0.00252     0.00123

 117    H 15  s      Val( 1s)     0.77084     0.03076
 118    H 15  s      Ryd( 2s)     0.00252     0.00123

 119    H 16  s      Val( 1s)     0.80256    -0.01323
 120    H 16  s      Ryd( 2s)     0.00074    -0.00001

 121    H 17  s      Val( 1s)     0.79071    -0.00018
 122    H 17  s      Ryd( 2s)     0.00077     0.00000


 Summary of Natural Population Analysis:

                                     Natural Population                 Natural
             Natural    ---------------------------------------------    Spin
  Atom No    Charge        Core      Valence    Rydberg      Total      Density
 -------------------------------------------------------------------------------
   Br  1   -0.05904     27.99879     7.04198    0.01827    35.05904     0.00126
    C  2   -0.23254      1.99989     4.21837    0.01427     6.23254     0.26432
    C  3   -0.28763      1.99986     4.27515    0.01262     6.28763    -0.01719
    C  4   -0.28312      1.99983     4.27153    0.01175     6.28312     0.07490
    C  5   -0.14580      1.99990     4.13367    0.01222     6.14580     0.19379
    C  6   -0.05120      1.99991     4.04000    0.01129     6.05120     0.08792
    C  7   -0.27149      1.99984     4.25872    0.01292     6.27149    -0.01477
    C  8   -0.51221      1.99976     4.50761    0.00484     6.51221    -0.03098
    C  9   -0.36906      1.99988     4.35764    0.01153     6.36906     0.39743
    C 10   -0.31297      1.99985     4.30224    0.01088     6.31297    -0.00497
    H 11    0.22541      0.00000     0.77329    0.00130     0.77459     0.00040
    H 12    0.21388      0.00000     0.78516    0.00096     0.78612    -0.00289
    H 13    0.22727      0.00000     0.77141    0.00132     0.77273     0.00021
    H 14    0.22664      0.00000     0.77084    0.00252     0.77336     0.03200
    H 15    0.22664      0.00000     0.77084    0.00252     0.77336     0.03200
    H 16    0.19670      0.00000     0.80256    0.00074     0.80330    -0.01323
    H 17    0.20852      0.00000     0.79071    0.00077     0.79148    -0.00019
 ===============================================================================
 * Total * -1.00000     45.99752    50.87173    0.13075    97.00000     1.00000

                                 Natural Population
 ---------------------------------------------------------
   Core                      45.99752 ( 99.9946% of   46)
   Valence                   50.87173 ( 99.7485% of   51)
   Natural Minimal Basis     96.86925 ( 99.8652% of   97)
   Natural Rydberg Basis      0.13075 (  0.1348% of   97)
 ---------------------------------------------------------

    Atom No         Natural Electron Configuration
 ----------------------------------------------------------------------------
     Br  1      [core]4s( 1.86)4p( 5.18)4d( 0.01)
      C  2      [core]2s( 0.91)2p( 3.31)3p( 0.01)
      C  3      [core]2s( 0.93)2p( 3.35)3p( 0.01)
      C  4      [core]2s( 0.92)2p( 3.35)3p( 0.01)
      C  5      [core]2s( 0.83)2p( 3.30)3p( 0.01)
      C  6      [core]2s( 0.83)2p( 3.21)3p( 0.01)
      C  7      [core]2s( 0.92)2p( 3.34)3p( 0.01)
      C  8      [core]2s( 1.02)2p( 3.49)
      C  9      [core]2s( 0.93)2p( 3.43)3p( 0.01)
      C 10      [core]2s( 0.93)2p( 3.37)3p( 0.01)
      H 11            1s( 0.77)
      H 12            1s( 0.79)
      H 13            1s( 0.77)
      H 14            1s( 0.77)
      H 15            1s( 0.77)
      H 16            1s( 0.80)
      H 17            1s( 0.79)


 ***************************************************
 *******         Alpha spin orbitals         *******
 ***************************************************


 NATURAL POPULATIONS:  Natural atomic orbital occupancies

  NAO Atom No lang   Type(AO)    Occupancy      Energy
 -------------------------------------------------------
   1   Br  1  s      Cor( 3s)     1.00000     -20.25781
   2   Br  1  s      Cor( 1s)     1.00000    -451.40040
   3   Br  1  s      Cor( 2s)     1.00000     -79.47400
   4   Br  1  s      Val( 4s)     0.93262      -0.61190
   5   Br  1  s      Ryd( 5s)     0.00130       0.99955
   6   Br  1  px     Cor( 3p)     1.00000      -6.93120
   7   Br  1  px     Cor( 2p)     0.99999     -55.58706
   8   Br  1  px     Val( 4p)     0.61765      -0.09321
   9   Br  1  px     Ryd( 5p)     0.00147       0.88432
  10   Br  1  py     Cor( 3p)     1.00000      -6.92000
  11   Br  1  py     Cor( 2p)     1.00000     -55.58429
  12   Br  1  py     Val( 4p)     0.97755      -0.20455
  13   Br  1  py     Ryd( 5p)     0.00061       0.91357
  14   Br  1  pz     Cor( 3p)     1.00000      -6.91910
  15   Br  1  pz     Cor( 2p)     1.00000     -55.58405
  16   Br  1  pz     Val( 4p)     0.99278      -0.20801
  17   Br  1  pz     Ryd( 5p)     0.00058       0.87781
  18   Br  1  dxy    Cor( 3d)     0.99983      -2.60986
  19   Br  1  dxy    Ryd( 4d)     0.00054       1.08649
  20   Br  1  dxz    Cor( 3d)     0.99995      -2.60921
  21   Br  1  dxz    Ryd( 4d)     0.00285       0.87336
  22   Br  1  dyz    Cor( 3d)     1.00000      -2.60039
  23   Br  1  dyz    Ryd( 4d)     0.00015       0.80412
  24   Br  1  dx2y2  Cor( 3d)     0.99973      -2.61003
  25   Br  1  dx2y2  Ryd( 4d)     0.00192       1.15122
  26   Br  1  dz2    Cor( 3d)     0.99990      -2.60315
  27   Br  1  dz2    Ryd( 4d)     0.00073       0.91964

  28    C  2  s      Cor( 1s)     0.99995     -10.08477
  29    C  2  s      Val( 2s)     0.45830       0.05768
  30    C  2  s      Ryd( 3s)     0.00029       0.89360
  31    C  2  px     Val( 2p)     0.46628       0.07859
  32    C  2  px     Ryd( 3p)     0.00290       1.53838
  33    C  2  py     Val( 2p)     0.55611       0.12880
  34    C  2  py     Ryd( 3p)     0.00323       1.29958
  35    C  2  pz     Val( 2p)     0.76025      -0.02981
  36    C  2  pz     Ryd( 3p)     0.00113       1.12901

  37    C  3  s      Cor( 1s)     0.99993     -10.05782
  38    C  3  s      Val( 2s)     0.46346       0.11884
  39    C  3  s      Ryd( 3s)     0.00041       0.90435
  40    C  3  px     Val( 2p)     0.56954       0.13992
  41    C  3  px     Ryd( 3p)     0.00293       1.34501
  42    C  3  py     Val( 2p)     0.56918       0.12872
  43    C  3  py     Ryd( 3p)     0.00238       1.38488
  44    C  3  pz     Val( 2p)     0.52638       0.05608
  45    C  3  pz     Ryd( 3p)     0.00102       1.11107

  46    C  4  s      Cor( 1s)     0.99992     -10.04575
  47    C  4  s      Val( 2s)     0.45952       0.13929
  48    C  4  s      Ryd( 3s)     0.00031       0.90999
  49    C  4  px     Val( 2p)     0.53989       0.17195
  50    C  4  px     Ryd( 3p)     0.00246       1.23354
  51    C  4  py     Val( 2p)     0.58964       0.13313
  52    C  4  py     Ryd( 3p)     0.00245       1.53788
  53    C  4  pz     Val( 2p)     0.58377       0.04777
  54    C  4  pz     Ryd( 3p)     0.00104       1.11799

  55    C  5  s      Cor( 1s)     0.99995     -10.02928
  56    C  5  s      Val( 2s)     0.41890       0.19374
  57    C  5  s      Ryd( 3s)     0.00055       0.93434
  58    C  5  px     Val( 2p)     0.54898       0.17047
  59    C  5  px     Ryd( 3p)     0.00232       1.71405
  60    C  5  py     Val( 2p)     0.54725       0.17541
  61    C  5  py     Ryd( 3p)     0.00271       1.62183
  62    C  5  pz     Val( 2p)     0.64809       0.04873
  63    C  5  pz     Ryd( 3p)     0.00104       1.19565

  64    C  6  s      Cor( 1s)     0.99996     -10.04617
  65    C  6  s      Val( 2s)     0.41756       0.17579
  66    C  6  s      Ryd( 3s)     0.00053       0.93025
  67    C  6  px     Val( 2p)     0.54368       0.17137
  68    C  6  px     Ryd( 3p)     0.00226       1.69148
  69    C  6  py     Val( 2p)     0.53481       0.16256
  70    C  6  py     Ryd( 3p)     0.00209       1.53011
  71    C  6  pz     Val( 2p)     0.56765       0.06148
  72    C  6  pz     Ryd( 3p)     0.00102       1.19178

  73    C  7  s      Cor( 1s)     0.99992     -10.05749
  74    C  7  s      Val( 2s)     0.45882       0.13568
  75    C  7  s      Ryd( 3s)     0.00049       0.89763
  76    C  7  px     Val( 2p)     0.54682       0.15939
  77    C  7  px     Ryd( 3p)     0.00305       1.19263
  78    C  7  py     Val( 2p)     0.59200       0.11463
  79    C  7  py     Ryd( 3p)     0.00252       1.52140
  80    C  7  pz     Val( 2p)     0.52406       0.05846
  81    C  7  pz     Ryd( 3p)     0.00069       1.11539

  82    C  8  s      Cor( 1s)     0.99988     -10.05973
  83    C  8  s      Val( 2s)     0.50572       0.04197
  84    C  8  s      Ryd( 3s)     0.00022       1.35919
  85    C  8  px     Val( 2p)     0.53464       0.10595
  86    C  8  px     Ryd( 3p)     0.00103       1.13097
  87    C  8  py     Val( 2p)     0.58632       0.08745
  88    C  8  py     Ryd( 3p)     0.00102       1.13710
  89    C  8  pz     Val( 2p)     0.61160       0.06955
  90    C  8  pz     Ryd( 3p)     0.00019       1.25908

  91    C  9  s      Cor( 1s)     0.99994     -10.01723
  92    C  9  s      Val( 2s)     0.47180       0.11038
  93    C  9  s      Ryd( 3s)     0.00029       0.90844
  94    C  9  px     Val( 2p)     0.57243       0.14714
  95    C  9  px     Ryd( 3p)     0.00150       1.52419
  96    C  9  py     Val( 2p)     0.53386       0.16926
  97    C  9  py     Ryd( 3p)     0.00230       1.17041
  98    C  9  pz     Val( 2p)     0.79837      -0.00793
  99    C  9  pz     Ryd( 3p)     0.00276       1.11393

 100    C 10  s      Cor( 1s)     0.99992     -10.02935
 101    C 10  s      Val( 2s)     0.46395       0.14601
 102    C 10  s      Ryd( 3s)     0.00025       0.90365
 103    C 10  px     Val( 2p)     0.53900       0.17093
 104    C 10  px     Ryd( 3p)     0.00214       1.28430
 105    C 10  py     Val( 2p)     0.58604       0.14949
 106    C 10  py     Ryd( 3p)     0.00234       1.44360
 107    C 10  pz     Val( 2p)     0.55915       0.06898
 108    C 10  pz     Ryd( 3p)     0.00120       1.12180

 109    H 11  s      Val( 1s)     0.38684       0.28819
 110    H 11  s      Ryd( 2s)     0.00065       0.77124

 111    H 12  s      Val( 1s)     0.39114       0.29000
 112    H 12  s      Ryd( 2s)     0.00048       0.78015

 113    H 13  s      Val( 1s)     0.38581       0.28882
 114    H 13  s      Ryd( 2s)     0.00066       0.77742

 115    H 14  s      Val( 1s)     0.40080       0.26403
 116    H 14  s      Ryd( 2s)     0.00188       0.77511

 117    H 15  s      Val( 1s)     0.40080       0.26403
 118    H 15  s      Ryd( 2s)     0.00188       0.77511

 119    H 16  s      Val( 1s)     0.39467       0.29836
 120    H 16  s      Ryd( 2s)     0.00037       0.77550

 121    H 17  s      Val( 1s)     0.39526       0.29890
 122    H 17  s      Ryd( 2s)     0.00039       0.77319


 Summary of Natural Population Analysis:

                                     Natural Population
             Natural    ---------------------------------------------
  Atom No    Charge        Core      Valence    Rydberg      Total
 --------------------------------------------------------------------
   Br  1   -0.03015     13.99940     3.52060    0.01014    17.53015
    C  2   -0.24843      0.99995     2.24093    0.00755     3.24843
    C  3   -0.13522      0.99993     2.12855    0.00674     3.13522
    C  4   -0.17901      0.99992     2.17283    0.00626     3.17901
    C  5   -0.16979      0.99995     2.16321    0.00663     3.16979
    C  6   -0.06956      0.99996     2.06371    0.00590     3.06956
    C  7   -0.12836      0.99992     2.12169    0.00675     3.12836
    C  8   -0.24062      0.99988     2.23828    0.00246     3.24062
    C  9   -0.38325      0.99994     2.37645    0.00685     3.38325
    C 10   -0.15400      0.99992     2.14814    0.00594     3.15400
    H 11    0.11251      0.00000     0.38684    0.00065     0.38749
    H 12    0.10838      0.00000     0.39114    0.00048     0.39162
    H 13    0.11353      0.00000     0.38581    0.00066     0.38647
    H 14    0.09732      0.00000     0.40080    0.00188     0.40268
    H 15    0.09732      0.00000     0.40080    0.00188     0.40268
    H 16    0.10497      0.00000     0.39467    0.00037     0.39503
    H 17    0.10435      0.00000     0.39526    0.00039     0.39565
 ====================================================================
 * Total * -1.00000     22.99877    25.92973    0.07151    49.00000

                                 Natural Population
 ---------------------------------------------------------
   Core                      22.99877 ( 99.9946% of   23)
   Valence                   25.92973 ( 99.7297% of   26)
   Natural Minimal Basis     48.92849 ( 99.8541% of   49)
   Natural Rydberg Basis      0.07151 (  0.1459% of   49)
 ---------------------------------------------------------

    Atom No         Natural Electron Configuration
 ----------------------------------------------------------------------------
     Br  1      [core]4s( 0.93)4p( 2.59)4d( 0.01)
      C  2      [core]2s( 0.46)2p( 1.78)3p( 0.01)
      C  3      [core]2s( 0.46)2p( 1.67)3p( 0.01)
      C  4      [core]2s( 0.46)2p( 1.71)3p( 0.01)
      C  5      [core]2s( 0.42)2p( 1.74)3p( 0.01)
      C  6      [core]2s( 0.42)2p( 1.65)3p( 0.01)
      C  7      [core]2s( 0.46)2p( 1.66)3p( 0.01)
      C  8      [core]2s( 0.51)2p( 1.73)
      C  9      [core]2s( 0.47)2p( 1.90)3p( 0.01)
      C 10      [core]2s( 0.46)2p( 1.68)3p( 0.01)
      H 11            1s( 0.39)
      H 12            1s( 0.39)
      H 13            1s( 0.39)
      H 14            1s( 0.40)
      H 15            1s( 0.40)
      H 16            1s( 0.39)
      H 17            1s( 0.40)


 NATURAL BOND ORBITAL ANALYSIS, alpha spin orbitals:

                            Occupancies       Lewis Structure    Low   High
         Max    Occ     -------------------  -----------------   occ   occ
  Cycle  Ctr   Thresh    Lewis   non-Lewis     CR  BD  nC  LP    (L)   (NL)
 ============================================================================
    1     2     0.95    48.09098   0.90902     23  21   0   5     2      3
    2     2     0.94    48.09098   0.90902     23  21   0   5     2      3
    3     2     0.90    48.09098   0.90902     23  21   0   5     2      3
    4     2     0.89    48.09098   0.90902     23  21   0   5     2      3
    5     2     0.84    48.09098   0.90902     23  21   0   5     2      3
    6     2     0.80    47.86310   1.13690     23  23   0   3     1      3
    7     2     0.79    48.20725   0.79275     23  21   0   5     1      3
    8     2     0.78    48.20725   0.79275     23  21   0   5     1      3
    9     2     0.76    48.20725   0.79275     23  21   0   5     0      3
   10     2     0.79    48.20725   0.79275     23  21   0   5     1      3
 ----------------------------------------------------------------------------

 Strongly delocalized structure accepted

 -------------------------------------------------------
   Core                     22.99877 ( 99.995% of  23)
   Valence Lewis            25.20849 ( 96.956% of  26)
  ==================      =============================
   Total Lewis              48.20725 ( 98.382% of  49)
  -----------------------------------------------------
   Valence non-Lewis         0.73979 (  1.510% of  49)
   Rydberg non-Lewis         0.05296 (  0.108% of  49)
  ==================      =============================
   Total non-Lewis           0.79275 (  1.618% of  49)
 -------------------------------------------------------


     (Occupancy)   Bond orbital / Coefficients / Hybrids
 ------------------ Lewis ------------------------------------------------------
   1. (1.00000) CR ( 1)Br  1            s(100.00%)
                                         1.0000  0.0000  0.0000  0.0000  0.0000
                                         0.0000  0.0000  0.0000  0.0000  0.0000
                                         0.0000  0.0000  0.0000  0.0000  0.0000
                                         0.0000  0.0000  0.0000  0.0000  0.0000
                                         0.0000  0.0000  0.0000  0.0000  0.0000
                                         0.0000  0.0000
   2. (1.00000) CR ( 2)Br  1            s(100.00%)
                                         0.0000  1.0000  0.0000  0.0000  0.0000
                                         0.0000  0.0000  0.0000  0.0000  0.0000
                                         0.0000  0.0000  0.0000  0.0000  0.0000
                                         0.0000  0.0000  0.0000  0.0000  0.0000
                                         0.0000  0.0000  0.0000  0.0000  0.0000
                                         0.0000  0.0000
   3. (1.00000) CR ( 3)Br  1            s(100.00%)
                                         0.0000  0.0000  1.0000  0.0000  0.0000
                                         0.0000  0.0000  0.0000  0.0000  0.0000
                                         0.0000  0.0000  0.0000  0.0000  0.0000
                                         0.0000  0.0000  0.0000  0.0000  0.0000
                                         0.0000  0.0000  0.0000  0.0000  0.0000
                                         0.0000  0.0000
   4. (1.00000) CR ( 4)Br  1            s(  0.00%)p 1.00(100.00%)
                                         0.0000  0.0000  0.0000  0.0000  0.0000
                                         1.0000  0.0000  0.0000  0.0000  0.0000
                                         0.0000  0.0000  0.0000  0.0000  0.0000
                                         0.0000  0.0000  0.0000  0.0000  0.0000
                                         0.0000  0.0000  0.0000  0.0000  0.0000
                                         0.0000  0.0000
   5. (0.99999) CR ( 5)Br  1            s(  0.00%)p 1.00(100.00%)
                                         0.0000  0.0000  0.0000  0.0000  0.0000
                                         0.0000  1.0000  0.0000  0.0000  0.0000
                                         0.0000  0.0000  0.0000  0.0000  0.0000
                                         0.0000  0.0000  0.0000  0.0000  0.0000
                                         0.0000  0.0000  0.0000  0.0000  0.0000
                                         0.0000  0.0000
   6. (1.00000) CR ( 6)Br  1            s(  0.00%)p 1.00(100.00%)
                                         0.0000  0.0000  0.0000  0.0000  0.0000
                                         0.0000  0.0000  0.0000  0.0000  1.0000
                                         0.0000  0.0000  0.0000  0.0000  0.0000
                                         0.0000  0.0000  0.0000  0.0000  0.0000
                                         0.0000  0.0000  0.0000  0.0000  0.0000
                                         0.0000  0.0000
   7. (1.00000) CR ( 7)Br  1            s(  0.00%)p 1.00(100.00%)
                                         0.0000  0.0000  0.0000  0.0000  0.0000
                                         0.0000  0.0000  0.0000  0.0000  0.0000
                                         1.0000  0.0000  0.0000  0.0000  0.0000
                                         0.0000  0.0000  0.0000  0.0000  0.0000
                                         0.0000  0.0000  0.0000  0.0000  0.0000
                                         0.0000  0.0000
   8. (1.00000) CR ( 8)Br  1            s(  0.00%)p 1.00(100.00%)
                                         0.0000  0.0000  0.0000  0.0000  0.0000
                                         0.0000  0.0000  0.0000  0.0000  0.0000
                                         0.0000  0.0000  0.0000  1.0000  0.0000
                                         0.0000  0.0000  0.0000  0.0000  0.0000
                                         0.0000  0.0000  0.0000  0.0000  0.0000
                                         0.0000  0.0000
   9. (1.00000) CR ( 9)Br  1            s(  0.00%)p 1.00(100.00%)
                                         0.0000  0.0000  0.0000  0.0000  0.0000
                                         0.0000  0.0000  0.0000  0.0000  0.0000
                                         0.0000  0.0000  0.0000  0.0000  1.0000
                                         0.0000  0.0000  0.0000  0.0000  0.0000
                                         0.0000  0.0000  0.0000  0.0000  0.0000
                                         0.0000  0.0000
  10. (0.99983) CR (10)Br  1            s(  0.00%)p 0.00(  0.00%)d 1.00(100.00%)
                                         0.0000  0.0000  0.0000  0.0000  0.0000
                                         0.0000  0.0000  0.0000  0.0000  0.0000
                                         0.0000  0.0000  0.0000  0.0000  0.0000
                                         0.0000  0.0000  1.0000  0.0000  0.0000
                                         0.0000  0.0000  0.0000  0.0000  0.0000
                                         0.0000  0.0000
  11. (0.99995) CR (11)Br  1            s(  0.00%)p 0.00(  0.00%)d 1.00(100.00%)
                                         0.0000  0.0000  0.0000  0.0000  0.0000
                                         0.0000  0.0000  0.0000  0.0000  0.0000
                                         0.0000  0.0000  0.0000  0.0000  0.0000
                                         0.0000  0.0000  0.0000  0.0000  1.0000
                                         0.0000  0.0000  0.0000  0.0000  0.0000
                                         0.0000  0.0000
  12. (1.00000) CR (12)Br  1            s(  0.00%)p 0.00(  0.00%)d 1.00(100.00%)
                                         0.0000  0.0000  0.0000  0.0000  0.0000
                                         0.0000  0.0000  0.0000  0.0000  0.0000
                                         0.0000  0.0000  0.0000  0.0000  0.0000
                                         0.0000  0.0000  0.0000  0.0000  0.0000
                                         0.0000  1.0000  0.0000  0.0000  0.0000
                                         0.0000  0.0000
  13. (0.99973) CR (13)Br  1            s(  0.00%)p 0.00(  0.00%)d 1.00(100.00%)
                                         0.0000  0.0000  0.0000  0.0000  0.0000
                                         0.0000  0.0000  0.0000  0.0000  0.0000
                                         0.0000  0.0000  0.0000  0.0000  0.0000
                                         0.0000  0.0000  0.0000  0.0000  0.0000
                                         0.0000  0.0000  0.0000  1.0000  0.0000
                                         0.0000  0.0000
  14. (0.99990) CR (14)Br  1            s(  0.00%)p 0.00(  0.00%)d 1.00(100.00%)
                                         0.0000  0.0000  0.0000  0.0000  0.0000
                                         0.0000  0.0000  0.0000  0.0000  0.0000
                                         0.0000  0.0000  0.0000  0.0000  0.0000
                                         0.0000  0.0000  0.0000  0.0000  0.0000
                                         0.0000  0.0000  0.0000  0.0000  0.0000
                                         1.0000  0.0000
  15. (0.99995) CR ( 1) C  2            s(100.00%)
                                         1.0000  0.0000  0.0000  0.0000  0.0000
                                         0.0000  0.0000  0.0000  0.0000
  16. (0.99993) CR ( 1) C  3            s(100.00%)
[...]
   37. BD ( 1) C  5- C 10      70. BD*( 1) C 10- H 17      0.60    1.20   0.034
   37. BD ( 1) C  5- C 10      88. RY ( 1) C  4            0.91    2.01   0.054
   37. BD ( 1) C  5- C 10      96. RY ( 1) C  6            0.69    2.14   0.049
   37. BD ( 1) C  5- C 10     108. RY ( 1) C  9            0.31    1.97   0.031
   37. BD ( 1) C  5- C 10     109. RY ( 2) C  9            0.58    1.56   0.038
   38. BD ( 1) C  6- C  7      49. BD*( 1)Br  1- C  2      2.27    0.86   0.056
   38. BD ( 1) C  6- C  7      52. BD*( 1) C  2- C  7      2.00    1.36   0.066
   38. BD ( 1) C  6- C  7      58. BD*( 1) C  5- C  6      2.20    1.36   0.069
   38. BD ( 1) C  6- C  7      59. BD*( 1) C  5- C 10      0.51    1.31   0.033
   38. BD ( 1) C  6- C  7      62. BD*( 1) C  6- C  8      1.49    1.21   0.054
   38. BD ( 1) C  6- C  7      63. BD*( 1) C  7- H 13      1.09    1.24   0.046
   38. BD ( 1) C  6- C  7      80. RY ( 1) C  2            1.07    1.79   0.055
   38. BD ( 1) C  6- C  7      81. RY ( 2) C  2            0.31    2.05   0.032
   38. BD ( 1) C  6- C  7      92. RY ( 1) C  5            0.32    2.10   0.033
   38. BD ( 1) C  6- C  7      93. RY ( 2) C  5            0.67    2.24   0.049
   38. BD ( 1) C  6- C  7     104. RY ( 1) C  8            0.49    1.65   0.036
   39. BD ( 2) C  6- C  7      51. BD*( 2) C  2- C  3     19.76    0.37   0.108
   39. BD ( 2) C  6- C  7      56. BD*( 2) C  4- C  5     14.26    0.41   0.097
   39. BD ( 2) C  6- C  7      65. BD*( 1) C  8- H 14      1.06    0.83   0.037
   39. BD ( 2) C  6- C  7      66. BD*( 1) C  8- H 15      1.06    0.83   0.037
   39. BD ( 2) C  6- C  7      82. RY ( 3) C  2            0.34    1.27   0.026
   39. BD ( 2) C  6- C  7      95. RY ( 4) C  5            0.30    1.33   0.025
   40. BD ( 1) C  6- C  8      52. BD*( 1) C  2- C  7      0.65    1.30   0.037
   40. BD ( 1) C  6- C  8      55. BD*( 1) C  4- C  5      1.23    1.34   0.051
   40. BD ( 1) C  6- C  8      58. BD*( 1) C  5- C  6      1.08    1.30   0.047
   40. BD ( 1) C  6- C  8      59. BD*( 1) C  5- C 10      0.40    1.25   0.028
   40. BD ( 1) C  6- C  8      60. BD*( 1) C  6- C  7      1.62    1.34   0.059
   40. BD ( 1) C  6- C  8      64. BD*( 1) C  8- C  9      0.87    1.15   0.040
   40. BD ( 1) C  6- C  8      65. BD*( 1) C  8- H 14      0.50    1.14   0.030
   40. BD ( 1) C  6- C  8      66. BD*( 1) C  8- H 15      0.50    1.14   0.030
   40. BD ( 1) C  6- C  8      67. BD*( 1) C  9- C 10      0.33    1.40   0.027
   40. BD ( 1) C  6- C  8      69. BD*( 1) C  9- H 16      1.30    1.21   0.050
   40. BD ( 1) C  6- C  8      93. RY ( 2) C  5            0.65    2.18   0.047
   40. BD ( 1) C  6- C  8     100. RY ( 1) C  7            0.84    1.92   0.051
   40. BD ( 1) C  6- C  8     101. RY ( 2) C  7            0.26    1.67   0.026
   41. BD ( 1) C  7- H 13      49. BD*( 1)Br  1- C  2      0.44    0.76   0.023
   41. BD ( 1) C  7- H 13      50. BD*( 1) C  2- C  3      1.24    1.26   0.050
   41. BD ( 1) C  7- H 13      52. BD*( 1) C  2- C  7      0.49    1.26   0.031
   41. BD ( 1) C  7- H 13      58. BD*( 1) C  5- C  6      1.34    1.27   0.052
   41. BD ( 1) C  7- H 13      60. BD*( 1) C  6- C  7      0.75    1.31   0.040
   41. BD ( 1) C  7- H 13      81. RY ( 2) C  2            0.83    1.96   0.051
   41. BD ( 1) C  7- H 13      96. RY ( 1) C  6            0.95    2.11   0.057
   42. BD ( 1) C  8- C  9      58. BD*( 1) C  5- C  6      0.48    1.29   0.031
   42. BD ( 1) C  8- C  9      59. BD*( 1) C  5- C 10      0.56    1.24   0.033
   42. BD ( 1) C  8- C  9      60. BD*( 1) C  6- C  7      1.68    1.33   0.060
   42. BD ( 1) C  8- C  9      62. BD*( 1) C  6- C  8      0.86    1.14   0.039
   42. BD ( 1) C  8- C  9      65. BD*( 1) C  8- H 14      0.53    1.13   0.031
   42. BD ( 1) C  8- C  9      66. BD*( 1) C  8- H 15      0.53    1.13   0.031
   42. BD ( 1) C  8- C  9      67. BD*( 1) C  9- C 10      1.18    1.39   0.051
   42. BD ( 1) C  8- C  9      69. BD*( 1) C  9- H 16      0.36    1.19   0.026
   42. BD ( 1) C  8- C  9      70. BD*( 1) C 10- H 17      2.11    1.19   0.063
   42. BD ( 1) C  8- C  9      97. RY ( 2) C  6            0.38    1.92   0.034
   42. BD ( 1) C  8- C  9     113. RY ( 2) C 10            0.82    1.66   0.047
   42. BD ( 1) C  8- C  9     119. RY ( 1) H 14            0.27    1.20   0.023
   42. BD ( 1) C  8- C  9     120. RY ( 1) H 15            0.27    1.20   0.023
   43. BD ( 1) C  8- H 14      58. BD*( 1) C  5- C  6      0.30    1.24   0.024
   43. BD ( 1) C  8- H 14      61. BD*( 2) C  6- C  7      2.44    0.66   0.051
   43. BD ( 1) C  8- H 14      62. BD*( 1) C  6- C  8      0.33    1.09   0.024
   43. BD ( 1) C  8- H 14      64. BD*( 1) C  8- C  9      0.32    1.09   0.024
   43. BD ( 1) C  8- H 14      68. BD*( 2) C  9- C 10      2.43    0.70   0.052
   43. BD ( 1) C  8- H 14      98. RY ( 3) C  6            0.35    1.58   0.030
   43. BD ( 1) C  8- H 14     110. RY ( 3) C  9            0.37    1.52   0.030
   44. BD ( 1) C  8- H 15      58. BD*( 1) C  5- C  6      0.30    1.24   0.024
   44. BD ( 1) C  8- H 15      61. BD*( 2) C  6- C  7      2.44    0.66   0.051
   44. BD ( 1) C  8- H 15      62. BD*( 1) C  6- C  8      0.33    1.09   0.024
   44. BD ( 1) C  8- H 15      64. BD*( 1) C  8- C  9      0.32    1.09   0.024
   44. BD ( 1) C  8- H 15      68. BD*( 2) C  9- C 10      2.43    0.70   0.052
   44. BD ( 1) C  8- H 15      98. RY ( 3) C  6            0.35    1.58   0.030
   44. BD ( 1) C  8- H 15     110. RY ( 3) C  9            0.37    1.52   0.030
   45. BD ( 1) C  9- C 10      55. BD*( 1) C  4- C  5      1.41    1.40   0.056
   45. BD ( 1) C  9- C 10      59. BD*( 1) C  5- C 10      1.58    1.31   0.057
   45. BD ( 1) C  9- C 10      62. BD*( 1) C  6- C  8      0.35    1.21   0.026
   45. BD ( 1) C  9- C 10      64. BD*( 1) C  8- C  9      0.96    1.21   0.043
   45. BD ( 1) C  9- C 10      69. BD*( 1) C  9- H 16      1.35    1.27   0.052
   45. BD ( 1) C  9- C 10      70. BD*( 1) C 10- H 17      1.32    1.26   0.052
   45. BD ( 1) C  9- C 10      92. RY ( 1) C  5            1.22    2.10   0.064
   45. BD ( 1) C  9- C 10     105. RY ( 2) C  8            0.55    1.63   0.038
   46. BD ( 2) C  9- C 10      56. BD*( 2) C  4- C  5     13.93    0.42   0.097
   46. BD ( 2) C  9- C 10      65. BD*( 1) C  8- H 14      1.55    0.83   0.045
   46. BD ( 2) C  9- C 10      66. BD*( 1) C  8- H 15      1.55    0.83   0.045
   47. BD ( 1) C  9- H 16      59. BD*( 1) C  5- C 10      0.98    1.20   0.043
   47. BD ( 1) C  9- H 16      62. BD*( 1) C  6- C  8      0.49    1.10   0.029
   47. BD ( 1) C  9- H 16      67. BD*( 1) C  9- C 10      0.85    1.35   0.043
   47. BD ( 1) C  9- H 16     112. RY ( 1) C 10            0.64    1.88   0.044
   48. BD ( 1) C 10- H 17      58. BD*( 1) C  5- C  6      0.61    1.26   0.035
   48. BD ( 1) C 10- H 17      59. BD*( 1) C  5- C 10      0.40    1.21   0.028
   48. BD ( 1) C 10- H 17      64. BD*( 1) C  8- C  9      1.17    1.11   0.045
   48. BD ( 1) C 10- H 17      67. BD*( 1) C  9- C 10      0.89    1.36   0.044
   48. BD ( 1) C 10- H 17      92. RY ( 1) C  5            0.28    2.00   0.030
   48. BD ( 1) C 10- H 17      93. RY ( 2) C  5            0.37    2.13   0.035
   48. BD ( 1) C 10- H 17     108. RY ( 1) C  9            0.66    1.93   0.045


 NATURAL BOND ORBITALS (Summary):

                                                     Principal Delocalizations
           NBO                 Occupancy    Energy   (geminal,vicinal,remote)
 ===============================================================================
 Molecular unit  1  (C9H7Br)
 ------ Lewis --------------------------------------
    1. CR ( 1)Br  1             1.00000   -20.25780
    2. CR ( 2)Br  1             1.00000  -451.40040
    3. CR ( 3)Br  1             1.00000   -79.47399
    4. CR ( 4)Br  1             1.00000    -6.93130
    5. CR ( 5)Br  1             0.99999   -55.58712
    6. CR ( 6)Br  1             1.00000    -6.92000
    7. CR ( 7)Br  1             1.00000   -55.58430
    8. CR ( 8)Br  1             1.00000    -6.91897
    9. CR ( 9)Br  1             1.00000   -55.58397
   10. CR (10)Br  1             0.99983    -2.60990
   11. CR (11)Br  1             0.99994    -2.60913
   12. CR (12)Br  1             1.00000    -2.60033
   13. CR (13)Br  1             0.99973    -2.61007  73(g)
   14. CR (14)Br  1             0.99990    -2.60310
   15. CR ( 1) C  2             0.99995   -10.08088
   16. CR ( 1) C  3             0.99993   -10.05820
   17. CR ( 1) C  4             0.99992   -10.04475
   18. CR ( 1) C  5             0.99995   -10.02655
   19. CR ( 1) C  6             0.99995   -10.04494
   20. CR ( 1) C  7             0.99992   -10.05778
   21. CR ( 1) C  8             0.99988   -10.06034
   22. CR ( 1) C  9             0.99994   -10.01193
   23. CR ( 1) C 10             0.99992   -10.02966
   24. LP ( 1)Br  1             0.99887    -0.59685  81(v)
   25. LP ( 2)Br  1             0.99299    -0.20918  50(v),52(v),80(v)
   26. LP ( 3)Br  1             0.98117    -0.20435  51(v)
   27. BD ( 1)Br  1- C  2       0.99464    -0.45404  84(v),53(v),100(v),60(v)
   28. BD ( 1) C  2- C  3       0.98896    -0.52412  52(g),53(g),54(g),63(v)
                                                     57(v),88(v),100(v),89(v)
                                                     101(v)
   29. BD ( 2) C  2- C  3       0.85655    -0.13783  56(v),61(v),71(v),103(v)
                                                     91(v)
   30. BD ( 1) C  2- C  7       0.98842    -0.52089  50(g),60(g),62(v),63(g)
                                                     97(v),54(v),96(v),84(v)
                                                     85(v)
   31. BD ( 1) C  3- C  4       0.98524    -0.50022  49(v),50(g),55(g),59(v)
                                                     92(v),54(g),57(g),80(v)
                                                     81(v)
   32. BD ( 1) C  3- H 11       0.99146    -0.40770  52(v),55(v),81(v),88(v)
                                                     53(g),50(g),49(v)
   33. BD ( 1) C  4- C  5       0.98669    -0.49001  58(g),59(g),53(g),85(v)
                                                     54(v),57(g),112(v),62(v)
                                                     97(v),96(v)
   34. BD ( 2) C  4- C  5       0.80708    -0.10090  51(v),61(v),68(v),87(v)
                                                     115(v)
   35. BD ( 1) C  4- H 12       0.99168    -0.39809  58(v),50(v),93(v),55(g)
                                                     84(v),53(g)
   36. BD ( 1) C  5- C  6       0.98108    -0.46262  60(g),55(g),59(g),63(v)
                                                     57(v),70(v),101(v),62(g)
                                                     89(v),112(v),64(v),65(v)
                                                     66(v)
   37. BD ( 1) C  5- C 10       0.98488    -0.43502  55(g),69(v),67(g),58(g)
                                                     60(v),88(v),96(v),64(v)
                                                     70(g),109(v),53(v),62(v)
                                                     108(v)
   38. BD ( 1) C  6- C  7       0.98375    -0.50309  49(v),58(g),52(g),62(g)
                                                     63(g),80(v),93(v),59(v)
                                                     104(v),92(v),81(v)
   39. BD ( 2) C  6- C  7       0.84750    -0.12654  51(v),56(v),65(v),66(v)
                                                     82(v),95(v)
   40. BD ( 1) C  6- C  8       0.98749    -0.44191  60(g),69(v),55(v),58(g)
                                                     64(g),100(v),93(v),52(v)
                                                     65(g),66(g),59(v),67(v)
                                                     101(v)
   41. BD ( 1) C  7- H 13       0.99115    -0.40722  58(v),50(v),96(v),81(v)
                                                     60(g),52(g),49(v)
   42. BD ( 1) C  8- C  9       0.98943    -0.42770  70(v),60(v),67(g),62(g)
                                                     113(v),59(v),65(g),66(g)
                                                     58(v),97(v),69(g),119(v)
                                                     120(v)
   43. BD ( 1) C  8- H 14       0.98184    -0.38388  61(v),68(v),110(v),98(v)
                                                     62(g),64(g),58(v)
   44. BD ( 1) C  8- H 15       0.98184    -0.38388  61(v),68(v),110(v),98(v)
                                                     62(g),64(g),58(v)
   45. BD ( 1) C  9- C 10       0.99068    -0.50137  59(g),55(v),69(g),70(g)
                                                     92(v),64(g),105(v),62(v)
   46. BD ( 2) C  9- C 10       0.95157    -0.13361  56(v),65(v),66(v)
   47. BD ( 1) C  9- H 16       0.99411    -0.38819  59(v),67(g),112(v),62(v)
   48. BD ( 1) C 10- H 17       0.99329    -0.39856  64(v),67(g),108(v),58(v)
                                                     59(g),93(v),92(v)
 ------ non-Lewis ----------------------------------
   49. BD*( 1)Br  1- C  2       0.01441     0.35381
   50. BD*( 1) C  2- C  3       0.01110     0.85564
   51. BD*( 2) C  2- C  3       0.20126     0.24518
   52. BD*( 1) C  2- C  7       0.01098     0.85462
   53. BD*( 1) C  3- C  4       0.00818     0.87598
   54. BD*( 1) C  3- H 11       0.00594     0.74139
   55. BD*( 1) C  4- C  5       0.01157     0.89743
   56. BD*( 2) C  4- C  5       0.17073     0.28830
   57. BD*( 1) C  4- H 12       0.00638     0.74662
   58. BD*( 1) C  5- C  6       0.01335     0.85901
   59. BD*( 1) C  5- C 10       0.01154     0.80861
   60. BD*( 1) C  6- C  7       0.01176     0.89844
   61. BD*( 2) C  6- C  7       0.16686     0.27341
   62. BD*( 1) C  6- C  8       0.01000     0.70930
   63. BD*( 1) C  7- H 13       0.00690     0.73993
   64. BD*( 1) C  8- C  9       0.00675     0.71006
   65. BD*( 1) C  8- H 14       0.00615     0.69865
   66. BD*( 1) C  8- H 15       0.00615     0.69865
   67. BD*( 1) C  9- C 10       0.00617     0.96079
   68. BD*( 2) C  9- C 10       0.03686     0.32033
   69. BD*( 1) C  9- H 16       0.00643     0.76446
   70. BD*( 1) C 10- H 17       0.00687     0.76013
   71. RY ( 1)Br  1             0.00137     0.84680
   72. RY ( 2)Br  1             0.00050     0.90391
   73. RY ( 3)Br  1             0.00029     1.24596
   74. RY ( 4)Br  1             0.00018     1.01712
   75. RY ( 5)Br  1             0.00005     1.08428
   76. RY ( 6)Br  1             0.00003     0.80237
   77. RY ( 7)Br  1             0.00002     0.83088
   78. RY ( 8)Br  1             0.00001     0.90964
   79. RY ( 9)Br  1             0.00000     0.86014
   80. RY ( 1) C  2             0.00259     1.29119
   81. RY ( 2) C  2             0.00237     1.55009
   82. RY ( 3) C  2             0.00029     1.14666
   83. RY ( 4) C  2             0.00021     0.89739
   84. RY ( 1) C  3             0.00237     1.51617
   85. RY ( 2) C  3             0.00173     1.21104
   86. RY ( 3) C  3             0.00021     0.89657
   87. RY ( 4) C  3             0.00016     1.11229
   88. RY ( 1) C  4             0.00213     1.57282
   89. RY ( 2) C  4             0.00165     1.19114
   90. RY ( 3) C  4             0.00018     0.90900
   91. RY ( 4) C  4             0.00015     1.12516
   92. RY ( 1) C  5             0.00230     1.59916
   93. RY ( 2) C  5             0.00216     1.73438
   94. RY ( 3) C  5             0.00039     0.94574
   95. RY ( 4) C  5             0.00009     1.20834
   96. RY ( 1) C  6             0.00209     1.70715
   97. RY ( 2) C  6             0.00170     1.49354
   98. RY ( 3) C  6             0.00050     1.19801
   99. RY ( 4) C  6             0.00037     0.95540
  100. RY ( 1) C  7             0.00250     1.47550
  101. RY ( 2) C  7             0.00181     1.23068
  102. RY ( 3) C  7             0.00028     0.89399
  103. RY ( 4) C  7             0.00013     1.11750
  104. RY ( 1) C  8             0.00097     1.14733
  105. RY ( 2) C  8             0.00078     1.12848
  106. RY ( 3) C  8             0.00016     1.34707
  107. RY ( 4) C  8             0.00005     1.26155
  108. RY ( 1) C  9             0.00126     1.53617
  109. RY ( 2) C  9             0.00088     1.12314
  110. RY ( 3) C  9             0.00052     1.14081
  111. RY ( 4) C  9             0.00010     0.94842
  112. RY ( 1) C 10             0.00184     1.48687
  113. RY ( 2) C 10             0.00112     1.23376
  114. RY ( 3) C 10             0.00013     0.89936
  115. RY ( 4) C 10             0.00012     1.12533
  116. RY ( 1) H 11             0.00065     0.77003
  117. RY ( 1) H 12             0.00048     0.77943
  118. RY ( 1) H 13             0.00067     0.77606
  119. RY ( 1) H 14             0.00062     0.77177
  120. RY ( 1) H 15             0.00062     0.77177
  121. RY ( 1) H 16             0.00037     0.77594
  122. RY ( 1) H 17             0.00039     0.77222
          -------------------------------
                 Total Lewis   47.22110  ( 98.3773%)
           Valence non-Lewis    0.73634  (  1.5340%)
           Rydberg non-Lewis    0.04256  (  0.0887%)
          -------------------------------
               Total unit  1   48.00000  (100.0000%)
              Charge unit  1    0.00000

 $CHOOSE
  ALPHA
   LONE 1 3 2 1 9 1 END
   BOND S 1 2 S 2 3 S 2 7 D 3 4 S 3 11 S 4 5 S 4 12 S 5 6 D 5 10 D 6 7 S 6 8
        S 7 13 S 8 9 S 8 14 S 8 15 S 9 10 S 9 16 S 10 17 END
  END
  BETA
   LONE 1 3 END
   BOND S 1 2 D 2 3 S 2 7 S 3 4 S 3 11 D 4 5 S 4 12 S 5 6 S 5 10 D 6 7 S 6 8
        S 7 13 S 8 9 S 8 14 S 8 15 D 9 10 S 9 16 S 10 17 END
  END
 $END

 NBO analysis completed in 0.95 CPU seconds (1 wall second)
 Maximum scratch memory used by NBO was 613677 words (4.68 MB)
 Maximum scratch memory used by G16NBO was 38735 words (0.30 MB)

 Opening RunExU unformatted file "/home/rpaton/arbr500/xtb/fukui/Gau-2142486.EUF"
 Read unf file /home/rpaton/arbr500/xtb/fukui/Gau-2142486.EUF:
 Label Gaussian matrix elements                                         IVers= 2 NLab= 2 Version=ES64L-G16RevC.01
 Title energy: -26.906191220599 gnorm: 0.000555879614 xtb: 6.7.0 (08769
 NAtoms=    17 NBasis=   122 NBsUse=   122 ICharg=    -1 Multip=     2 NE=    97 Len12L=8 Len4L=8 IOpCl= 1 ICGU=112
 GAUSSIAN SCALARS                    NI= 1 NR= 1 NTot=       1 LenBuf=    2 NRI=1 N=    1000
 NPA CHARGES                         NI= 0 NR= 1 NTot=      17 LenBuf= 2048 NRI=1 N=      17
 Recovered energy= -2907.00614814     dipole=      1.619006669805     -0.200401682886     -0.000001854182
 Unable to Open any file for archive entry.
 1\1\GINC-DYNAMO\SP\UwB97XD\MIDIx\C9H7Br1(1-,2)\RPATON\28-Sep-2024\0\\#
  wb97xd midix pop(nbo6,hirshfeld)\\energy: -26.906191220599 gnorm: 0.0
 00555879614 xtb: 6.7.0 (08769fc)\\-1,2\Br,0,-2.64822,-0.20666,0.\C,0,-
 0.77531,0.16473,-0.00001\C,0,-0.35488,1.48639,0.\C,0,0.99834,1.77915,0
 .00001\C,0,1.90759,0.73246,0.00001\C,0,1.46155,-0.6007,0.\C,0,0.11683,
 -0.89876,0.\C,0,2.6502,-1.50914,0.\C,0,3.7932,-0.54132,0.00001\C,0,3.3
 5613,0.72312,0.00001\H,0,-1.08639,2.28009,0.\H,0,1.33235,2.80574,0.000
 01\H,0,-0.24034,-1.91759,0.\H,0,2.66891,-2.15785,-0.87911\H,0,2.66891,
 -2.15785,0.87911\H,0,4.81771,-0.86782,0.00001\H,0,3.95869,1.61368,0.00
 002\\Version=ES64L-G16RevC.01\State=2-A\HF=-2907.0061481\S2=0.771423\S
 2-1=0.\S2A=0.750191\RMSD=3.583e-09\Dipole=-1.6194386,-0.1968808,0.0000
 019\Quadrupole=-13.7865024,8.237865,5.5486374,0.2219647,-0.0000484,0.0
 000037\PG=C01 [X(C9H7Br1)]\\@
 The archive entry for this job was punched.


 The number of Unix installations has grown to 10,
  with more expected.
                  -- The Unix Programmer's Manual,
                     2nd Edition, June, 1972.
 Job cpu time:       0 days  0 hours  7 minutes 12.0 seconds.
 Elapsed time:       0 days  0 hours  0 minutes 18.2 seconds.
 File lengths (MBytes):  RWF=     20 Int=      0 D2E=      0 Chk=      2 Scr=      1
 Normal termination of Gaussian 16 at Sat Sep 28 19:20:45 2024.
