 Entering Gaussian System, Link 0=/usr/local/Gaussian/G16C/g16/g16
 Input=arbr39_xtbopt_oxd.com
 Output=arbr39_xtbopt_oxd.log
 Initial command:
 /usr/local/Gaussian/G16C/g16/l1.exe "/home/rpaton/arbr500/xtb/fukui/Gau-2144819.inp" -scrdir="/home/rpaton/arbr500/xtb/fukui/"
 Entering Link 1 = /usr/local/Gaussian/G16C/g16/l1.exe PID=   2144820.
  
 Copyright (c) 1988-2019, Gaussian, Inc.  All Rights Reserved.
  
 This is part of the Gaussian(R) 16 program.  It is based on
 the Gaussian(R) 09 system (copyright 2009, Gaussian, Inc.),
 the Gaussian(R) 03 system (copyright 2003, Gaussian, Inc.),
 the Gaussian(R) 98 system (copyright 1998, Gaussian, Inc.),
 the Gaussian(R) 94 system (copyright 1995, Gaussian, Inc.),
 the Gaussian 92(TM) system (copyright 1992, Gaussian, Inc.),
 the Gaussian 90(TM) system (copyright 1990, Gaussian, Inc.),
 the Gaussian 88(TM) system (copyright 1988, Gaussian, Inc.),
 the Gaussian 86(TM) system (copyright 1986, Carnegie Mellon
 University), and the Gaussian 82(TM) system (copyright 1983,
 Carnegie Mellon University). Gaussian is a federally registered
 trademark of Gaussian, Inc.
  
 This software contains proprietary and confidential information,
 including trade secrets, belonging to Gaussian, Inc.
  
 This software is provided under written license and may be
 used, copied, transmitted, or stored only in accord with that
 written license.
  
 The following legend is applicable only to US Government
 contracts under FAR:
  
                    RESTRICTED RIGHTS LEGEND
  
 Use, reproduction and disclosure by the US Government is
 subject to restrictions as set forth in subparagraphs (a)
 and (c) of the Commercial Computer Software - Restricted
 Rights clause in FAR 52.227-19.
  
 Gaussian, Inc.
 340 Quinnipiac St., Bldg. 40, Wallingford CT 06492
  
  
 ---------------------------------------------------------------
 Warning -- This program may not be used in any manner that
 competes with the business of Gaussian, Inc. or will provide
 assistance to any competitor of Gaussian, Inc.  The licensee
 of this program is prohibited from giving any competitor of
 Gaussian, Inc. access to this program.  By using this program,
 the user acknowledges that Gaussian, Inc. is engaged in the
 business of creating and licensing software in the field of
 computational chemistry and represents and warrants to the
 licensee that it is not a competitor of Gaussian, Inc. and that
 it will not use this program in any manner prohibited above.
 ---------------------------------------------------------------
  

 Cite this work as:
 Gaussian 16, Revision C.01,
 M. J. Frisch, G. W. Trucks, H. B. Schlegel, G. E. Scuseria, 
 M. A. Robb, J. R. Cheeseman, G. Scalmani, V. Barone, 
 G. A. Petersson, H. Nakatsuji, X. Li, M. Caricato, A. V. Marenich, 
 J. Bloino, B. G. Janesko, R. Gomperts, B. Mennucci, H. P. Hratchian, 
 J. V. Ortiz, A. F. Izmaylov, J. L. Sonnenberg, D. Williams-Young, 
 F. Ding, F. Lipparini, F. Egidi, J. Goings, B. Peng, A. Petrone, 
 T. Henderson, D. Ranasinghe, V. G. Zakrzewski, J. Gao, N. Rega, 
 G. Zheng, W. Liang, M. Hada, M. Ehara, K. Toyota, R. Fukuda, 
 J. Hasegawa, M. Ishida, T. Nakajima, Y. Honda, O. Kitao, H. Nakai, 
 T. Vreven, K. Throssell, J. A. Montgomery, Jr., J. E. Peralta, 
 F. Ogliaro, M. J. Bearpark, J. J. Heyd, E. N. Brothers, K. N. Kudin, 
 V. N. Staroverov, T. A. Keith, R. Kobayashi, J. Normand, 
 K. Raghavachari, A. P. Rendell, J. C. Burant, S. S. Iyengar, 
 J. Tomasi, M. Cossi, J. M. Millam, M. Klene, C. Adamo, R. Cammi, 
 J. W. Ochterski, R. L. Martin, K. Morokuma, O. Farkas, 
 J. B. Foresman, and D. J. Fox, Gaussian, Inc., Wallingford CT, 2019.
 
 ******************************************
 Gaussian 16:  ES64L-G16RevC.01  3-Jul-2019
                28-Sep-2024 
 ******************************************
 %nprocshared=24
 Will use up to   24 processors via shared memory.
 ----------------------------------
 # wb97xd midix pop(nbo6,hirshfeld)
 ----------------------------------
 1/38=1,172=1/1;
 2/12=2,17=6,18=5,40=1/2;
 3/5=20,11=2,25=1,30=1,74=-58/1,2,3;
 4//1;
 5/5=2,38=5/2;
 6/7=2,8=2,9=2,10=2,28=1,40=1,79=1,113=1,114=1,124=3103,126=1/1,12;
 99/5=1,9=1/99;
 -------------------------------------------------------------------
 energy: -39.449151330410 gnorm: 0.000222488892 xtb: 6.7.0 (08769fc)
 -------------------------------------------------------------------
 Symbolic Z-matrix:
 Charge =  1 Multiplicity = 2
 O                     1.80646  -2.16681   0.00003 
 C                     1.66232  -0.96881   0.00009 
 C                     0.39264  -0.22246   0. 
 C                    -0.8986   -0.72816  -0.00005 
 C                    -1.93697   0.18521  -0.00003 
 Br                   -3.73627  -0.44384   0.00002 
 C                    -1.70685   1.55551  -0.00001 
 C                    -0.41025   2.04486   0.00001 
 C                     0.64429   1.1496    0.00002 
 C                     2.11396   1.4321    0. 
 C                     2.78652   0.05376  -0.00001 
 C                     3.87342  -0.187     1.07518 
 C                     4.96299  -0.10283  -0.00001 
 C                     3.87342  -0.18698  -1.07521 
 H                    -1.07281  -1.79289   0. 
 H                    -2.54476   2.23601  -0.00002 
 H                    -0.2359    3.11032  -0.00002 
 H                     2.39247   2.01675   0.87982 
 H                     2.39246   2.01675  -0.87982 
 H                     3.91588   0.55249   1.87236 
 H                     3.78647  -1.18128   1.50926 
 H                     5.69426  -0.90681   0. 
 H                     5.48406   0.85231   0. 
 H                     3.91588   0.55251  -1.87239 
 H                     3.78648  -1.18126  -1.50928 
 
                          Input orientation:                          
 ---------------------------------------------------------------------
 Center     Atomic      Atomic             Coordinates (Angstroms)
 Number     Number       Type             X           Y           Z
 ---------------------------------------------------------------------
      1          8           0        1.806460   -2.166810    0.000030
      2          6           0        1.662320   -0.968810    0.000090
      3          6           0        0.392640   -0.222460    0.000000
      4          6           0       -0.898600   -0.728160   -0.000050
      5          6           0       -1.936970    0.185210   -0.000030
      6         35           0       -3.736270   -0.443840    0.000020
      7          6           0       -1.706850    1.555510   -0.000010
      8          6           0       -0.410250    2.044860    0.000010
      9          6           0        0.644290    1.149600    0.000020
     10          6           0        2.113960    1.432100    0.000000
     11          6           0        2.786520    0.053760   -0.000010
     12          6           0        3.873420   -0.187000    1.075180
     13          6           0        4.962990   -0.102830   -0.000010
     14          6           0        3.873420   -0.186980   -1.075210
     15          1           0       -1.072810   -1.792890    0.000000
     16          1           0       -2.544760    2.236010   -0.000020
     17          1           0       -0.235900    3.110320   -0.000020
     18          1           0        2.392470    2.016750    0.879820
     19          1           0        2.392460    2.016750   -0.879820
     20          1           0        3.915880    0.552490    1.872360
     21          1           0        3.786470   -1.181280    1.509260
     22          1           0        5.694260   -0.906810    0.000000
     23          1           0        5.484060    0.852310    0.000000
     24          1           0        3.915880    0.552510   -1.872390
     25          1           0        3.786480   -1.181260   -1.509280
 ---------------------------------------------------------------------
                    Distance matrix (angstroms):
                    1          2          3          4          5
     1  O    0.000000
     2  C    1.206640   0.000000
     3  C    2.404035   1.472795   0.000000
     4  C    3.063831   2.572202   1.386735   0.000000
     5  C    4.421003   3.779769   2.365011   1.382916   0.000000
     6  Br   5.804350   5.424055   4.134841   2.851878   1.906091
     7  C    5.118497   4.209928   2.751188   2.422482   1.389488
     8  C    4.759408   3.657561   2.405280   2.815693   2.406070
     9  C    3.514145   2.350329   1.394947   2.430328   2.755531
    10  C    3.612023   2.443020   2.387574   3.707053   4.238487
    11  C    2.427231   1.519696   2.409763   3.767162   4.725319
    12  C    3.057437   2.579924   3.643226   4.921499   5.920747
    13  C    3.771431   3.412381   4.571915   5.894852   6.905970
    14  C    3.057481   2.580018   3.643235   4.921486   5.920741
    15  H    2.903448   2.856579   2.147974   1.078888   2.158623
    16  H    6.190149   5.288704   3.830456   3.390597   2.138969
    17  H    5.658563   4.499171   3.391531   3.895266   3.383771
    18  H    4.315045   3.196969   3.128492   4.374911   4.782544
    19  H    4.315056   3.197017   3.128486   4.374883   4.782524
    20  H    3.917890   3.301255   4.064419   5.322143   6.156021
    21  H    2.677589   2.614336   3.836051   4.942997   6.074785
    22  H    4.086880   4.032417   5.345607   6.595280   7.708967
    23  H    4.758133   4.233459   5.203623   6.575427   7.450954
    24  H    3.917947   3.301383   4.064436   5.322123   6.156013
    25  H    2.677649   2.614458   3.836062   4.942980   6.074780
                    6          7          8          9         10
     6  Br   0.000000
     7  C    2.848850   0.000000
     8  C    4.154039   1.385870   0.000000
     9  C    4.661369   2.385922   1.383309   0.000000
    10  C    6.143642   3.822803   2.597520   1.496575   0.000000
    11  C    6.541743   4.737682   3.766141   2.406245   1.533675
    12  C    7.689559   5.944055   4.948436   3.656467   2.621678
    13  C    8.705941   6.872907   5.786560   4.496638   3.236199
    14  C    7.689569   5.944051   4.948438   3.656480   2.621678
    15  H    2.985625   3.407901   3.894523   3.406858   4.533880
    16  H    2.932796   1.079432   2.143052   3.369025   4.727573
    17  H    4.988451   2.140357   1.079631   2.149223   2.887605
    18  H    6.662582   4.217970   2.937702   2.140591   1.092459
    19  H    6.662579   4.217956   2.937699   2.140599   1.092456
    20  H    7.940638   6.010567   4.944519   3.816477   2.743421
    21  H    7.707998   6.320165   5.504387   4.193340   3.450349
    22  H    9.441887   7.799965   6.780664   5.452616   4.276570
    23  H    9.310988   7.225211   6.013740   4.848892   3.419610
    24  H    7.940657   6.010566   4.944531   3.816508   2.743436
    25  H    7.708018   6.320165   5.504394   4.193358   3.450348
                   11         12         13         14         15
    11  C    0.000000
    12  C    1.547692   0.000000
    13  C    2.182096   1.533063   0.000000
    14  C    1.547696   2.150390   1.533069   0.000000
    15  H    4.278381   5.310375   6.267949   5.310387   0.000000
    16  H    5.760622   6.944067   7.863618   6.944059   4.289367
    17  H    4.298556   5.377256   6.111693   5.377242   4.974122
    18  H    2.186940   2.662310   3.445910   3.297238   5.224520
    19  H    2.186934   3.297238   3.445912   2.662301   5.224513
    20  H    2.242756   1.088184   2.243135   3.039208   5.821818
    21  H    2.191602   1.088383   2.196622   2.770501   5.124894
    22  H    3.062294   2.233741   1.086802   2.233761   6.824835
    23  H    2.813255   2.197803   1.088029   2.197808   7.070334
    24  H    2.242769   3.039218   2.243149   1.088184   5.821836
    25  H    2.191595   2.770477   2.196607   1.088379   5.124911
                   16         17         18         19         20
    16  H    0.000000
    17  H    2.468857   0.000000
    18  H    5.019804   2.979655   0.000000
    19  H    5.019787   2.979634   1.759640   0.000000
    20  H    6.933968   5.223560   2.334517   3.469778   0.000000
    21  H    7.351209   6.072497   3.544972   4.228281   1.776104
    22  H    8.818093   7.162690   4.497011   4.497018   2.966129
    23  H    8.147182   6.149516   3.418762   3.418771   2.460653
    24  H    6.933961   5.223547   3.469789   2.334524   3.744750
    25  H    7.351204   6.072484   4.228278   3.544965   3.802384
                   21         22         23         24         25
    21  H    0.000000
    22  H    2.448032   0.000000
    23  H    3.048797   1.771634   0.000000
    24  H    3.802411   2.966158   2.460673   0.000000
    25  H    3.018540   2.448035   3.048788   1.776106   0.000000
 Stoichiometry    C12H11BrO(1+,2)
 Framework group  C1[X(C12H11BrO)]
 Deg. of freedom    69
 Full point group                 C1      NOp   1
 Largest Abelian subgroup         C1      NOp   1
 Largest concise Abelian subgroup C1      NOp   1
                         Standard orientation:                         
 ---------------------------------------------------------------------
 Center     Atomic      Atomic             Coordinates (Angstroms)
 Number     Number       Type             X           Y           Z
 ---------------------------------------------------------------------
      1          8           0       -1.759661   -2.164075   -0.000024
      2          6           0       -1.626812   -0.964770   -0.000084
      3          6           0       -0.364219   -0.206494    0.000006
      4          6           0        0.931727   -0.700009    0.000056
      5          6           0        1.961448    0.223102    0.000036
      6         35           0        3.766593   -0.388972   -0.000014
      7          6           0        1.718431    1.591173    0.000016
      8          6           0        0.417279    2.068288   -0.000004
      9          6           0       -0.628781    1.163135   -0.000014
     10          6           0       -2.101047    1.431779    0.000006
     11          6           0       -2.760594    0.047165    0.000016
     12          6           0       -3.845178   -0.203822   -1.075174
     13          6           0       -4.935493   -0.129918    0.000016
     14          6           0       -3.845178   -0.203802    1.075216
     15          1           0        1.115959   -1.763050    0.000006
     16          1           0        2.549894    2.279535    0.000026
     17          1           0        0.232901    3.132059    0.000026
     18          1           0       -2.385052    2.013780   -0.879814
     19          1           0       -2.385042    2.013780    0.879826
     20          1           0       -3.894602    0.535236   -1.872354
     21          1           0       -3.748867   -1.197239   -1.509254
     22          1           0       -5.659157   -0.940751    0.000006
     23          1           0       -5.465536    0.820271    0.000006
     24          1           0       -3.894602    0.535256    1.872396
     25          1           0       -3.748877   -1.197219    1.509286
 ---------------------------------------------------------------------
 Rotational constants (GHZ):           1.6802535           0.2236325           0.2038877
 Standard basis: MIDIx (5D, 7F)
 There are   174 symmetry adapted cartesian basis functions of A   symmetry.
 There are   171 symmetry adapted basis functions of A   symmetry.
   171 basis functions,   297 primitive gaussians,   174 cartesian basis functions
    63 alpha electrons       62 beta electrons
       nuclear repulsion energy      1116.6305797454 Hartrees.
 NAtoms=   25 NActive=   25 NUniq=   25 SFac= 1.00D+00 NAtFMM=   60 NAOKFM=F Big=F
 Integral buffers will be    131072 words long.
 Raffenetti 2 integral format.
 Two-electron integral symmetry is turned on.
 Nuclear repulsion after empirical dispersion term =     1116.6124888995 Hartrees.
 One-electron integrals computed using PRISM.
 NBasis=   171 RedAO= T EigKep=  9.34D-04  NBF=   171
 NBsUse=   171 1.00D-06 EigRej= -1.00D+00 NBFU=   171
 ExpMin= 1.47D-01 ExpMax= 6.10D+03 ExpMxC= 6.10D+03 IAcc=3 IRadAn=         5 AccDes= 0.00D+00
 Harris functional with IExCor= 4639 and IRadAn=       5 diagonalized for initial guess.
 HarFok:  IExCor= 4639 AccDes= 0.00D+00 IRadAn=         5 IDoV= 1 UseB2=F ITyADJ=14
 ICtDFT=  3500011 ScaDFX=  1.000000  1.000000  1.000000  1.000000
 FoFCou: FMM=F IPFlag=           0 FMFlag=      100000 FMFlg1=           0
         NFxFlg=           0 DoJE=T BraDBF=F KetDBF=T FulRan=T
         wScrn=  0.000000 ICntrl=       500 IOpCl=  0 I1Cent=   200000004 NGrid=           0
         NMat0=    1 NMatS0=      1 NMatT0=    0 NMatD0=    1 NMtDS0=    0 NMtDT0=    0
 Petite list used in FoFCou.
 Initial guess <Sx>= 0.0000 <Sy>= 0.0000 <Sz>= 0.5000 <S**2>= 0.7500 S= 0.5000
 Requested convergence on RMS density matrix=1.00D-08 within 128 cycles.
 Requested convergence on MAX density matrix=1.00D-06.
 Requested convergence on             energy=1.00D-06.
 No special actions if energy rises.
 Integral accuracy reduced to 1.0D-05 until final iterations.
 Initial convergence to 1.0D-05 achieved.  Increase integral accuracy.
 SCF Done:  E(UwB97XD) =  -3097.51485432     A.U. after   24 cycles
            NFock= 24  Conv=0.81D-08     -V/T= 2.0025
 <Sx>= 0.0000 <Sy>= 0.0000 <Sz>= 0.5000 <S**2>= 0.7572 S= 0.5036
 <L.S>= 0.000000000000E+00
 Annihilation of the first spin contaminant:
 S**2 before annihilation     0.7572,   after     0.7500

 **********************************************************************

            Population analysis using the SCF Density.

 **********************************************************************

 Orbital symmetries:
 Alpha Orbitals:
       Occupied  (A) (A) (A) (A) (A) (A) (A) (A) (A) (A) (A) (A)
                 (A) (A) (A) (A) (A) (A) (A) (A) (A) (A) (A) (A)
                 (A) (A) (A) (A) (A) (A) (A) (A) (A) (A) (A) (A)
                 (A) (A) (A) (A) (A) (A) (A) (A) (A) (A) (A) (A)
                 (A) (A) (A) (A) (A) (A) (A) (A) (A) (A) (A) (A)
                 (A) (A) (A)
       Virtual   (A) (A) (A) (A) (A) (A) (A) (A) (A) (A) (A) (A)
                 (A) (A) (A) (A) (A) (A) (A) (A) (A) (A) (A) (A)
                 (A) (A) (A) (A) (A) (A) (A) (A) (A) (A) (A) (A)
                 (A) (A) (A) (A) (A) (A) (A) (A) (A) (A) (A) (A)
                 (A) (A) (A) (A) (A) (A) (A) (A) (A) (A) (A) (A)
                 (A) (A) (A) (A) (A) (A) (A) (A) (A) (A) (A) (A)
                 (A) (A) (A) (A) (A) (A) (A) (A) (A) (A) (A) (A)
                 (A) (A) (A) (A) (A) (A) (A) (A) (A) (A) (A) (A)
                 (A) (A) (A) (A) (A) (A) (A) (A) (A) (A) (A) (A)
 Beta  Orbitals:
       Occupied  (A) (A) (A) (A) (A) (A) (A) (A) (A) (A) (A) (A)
                 (A) (A) (A) (A) (A) (A) (A) (A) (A) (A) (A) (A)
                 (A) (A) (A) (A) (A) (A) (A) (A) (A) (A) (A) (A)
                 (A) (A) (A) (A) (A) (A) (A) (A) (A) (A) (A) (A)
                 (A) (A) (A) (A) (A) (A) (A) (A) (A) (A) (A) (A)
                 (A) (A)
       Virtual   (A) (A) (A) (A) (A) (A) (A) (A) (A) (A) (A) (A)
                 (A) (A) (A) (A) (A) (A) (A) (A) (A) (A) (A) (A)
                 (A) (A) (A) (A) (A) (A) (A) (A) (A) (A) (A) (A)
                 (A) (A) (A) (A) (A) (A) (A) (A) (A) (A) (A) (A)
                 (A) (A) (A) (A) (A) (A) (A) (A) (A) (A) (A) (A)
                 (A) (A) (A) (A) (A) (A) (A) (A) (A) (A) (A) (A)
                 (A) (A) (A) (A) (A) (A) (A) (A) (A) (A) (A) (A)
                 (A) (A) (A) (A) (A) (A) (A) (A) (A) (A) (A) (A)
                 (A) (A) (A) (A) (A) (A) (A) (A) (A) (A) (A) (A)
                 (A)
 The electronic state is 2-A.
 Alpha  occ. eigenvalues -- -480.27481 -62.70842 -56.29771 -56.29300 -56.29291
 Alpha  occ. eigenvalues --  -19.47271 -10.56801 -10.46617 -10.45454 -10.45049
 Alpha  occ. eigenvalues --  -10.43937 -10.42663 -10.41721 -10.41586 -10.40898
 Alpha  occ. eigenvalues --  -10.40258 -10.40226 -10.38009  -9.01678  -6.80251
 Alpha  occ. eigenvalues --   -6.78689  -6.78659  -2.90536  -2.89998  -2.89994
 Alpha  occ. eigenvalues --   -2.88697  -2.88692  -1.45585  -1.19871  -1.15734
 Alpha  occ. eigenvalues --   -1.10175  -1.05735  -1.02609  -0.98266  -0.96289
 Alpha  occ. eigenvalues --   -0.94079  -0.90638  -0.87619  -0.85149  -0.81596
 Alpha  occ. eigenvalues --   -0.79289  -0.78028  -0.76254  -0.74870  -0.73650
 Alpha  occ. eigenvalues --   -0.71854  -0.70965  -0.70275  -0.68272  -0.65304
 Alpha  occ. eigenvalues --   -0.64536  -0.64206  -0.63815  -0.60728  -0.60294
 Alpha  occ. eigenvalues --   -0.58889  -0.56381  -0.56217  -0.55973  -0.54190
 Alpha  occ. eigenvalues --   -0.51466  -0.48750  -0.45808
 Alpha virt. eigenvalues --   -0.19656  -0.10148  -0.06642  -0.04643   0.01172
 Alpha virt. eigenvalues --    0.02976   0.04178   0.04842   0.07141   0.08113
 Alpha virt. eigenvalues --    0.08995   0.09786   0.10227   0.11574   0.12179
 Alpha virt. eigenvalues --    0.12797   0.13843   0.14828   0.15907   0.17370
 Alpha virt. eigenvalues --    0.18934   0.20544   0.21018   0.21567   0.25110
 Alpha virt. eigenvalues --    0.27514   0.30162   0.30660   0.34551   0.39452
 Alpha virt. eigenvalues --    0.40832   0.44277   0.45257   0.46509   0.49978
 Alpha virt. eigenvalues --    0.51916   0.52061   0.52154   0.52711   0.55474
 Alpha virt. eigenvalues --    0.56192   0.58890   0.59364   0.59744   0.59905
 Alpha virt. eigenvalues --    0.62595   0.62873   0.63198   0.64880   0.67950
 Alpha virt. eigenvalues --    0.68793   0.68986   0.71911   0.73322   0.73722
 Alpha virt. eigenvalues --    0.75677   0.77478   0.78527   0.80064   0.81039
 Alpha virt. eigenvalues --    0.81230   0.81775   0.81973   0.84067   0.84622
 Alpha virt. eigenvalues --    0.85664   0.86482   0.86671   0.88712   0.89435
 Alpha virt. eigenvalues --    0.89715   0.91063   0.91127   0.92329   0.92944
 Alpha virt. eigenvalues --    0.93523   0.95114   0.96190   0.97618   0.99279
 Alpha virt. eigenvalues --    1.01960   1.02215   1.06025   1.07433   1.11499
 Alpha virt. eigenvalues --    1.12301   1.14147   1.18602   1.19248   1.22609
 Alpha virt. eigenvalues --    1.27541   1.32399   1.41094   1.41472   1.44028
 Alpha virt. eigenvalues --    1.47494   1.50632   1.53844   1.58141   1.60817
 Alpha virt. eigenvalues --    1.65943   1.72541   1.72762   1.81287   1.82534
 Alpha virt. eigenvalues --    1.93748   2.13343   2.84597
  Beta  occ. eigenvalues -- -480.27479 -62.70841 -56.29769 -56.29298 -56.29290
  Beta  occ. eigenvalues --  -19.45711 -10.56825 -10.46336 -10.45198 -10.45028
  Beta  occ. eigenvalues --  -10.43940 -10.42674 -10.41721 -10.41604 -10.40882
  Beta  occ. eigenvalues --  -10.40251 -10.40220 -10.37974  -9.01675  -6.80246
  Beta  occ. eigenvalues --   -6.78687  -6.78656  -2.90533  -2.89995  -2.89992
  Beta  occ. eigenvalues --   -2.88695  -2.88691  -1.41855  -1.19271  -1.15403
  Beta  occ. eigenvalues --   -1.09913  -1.05392  -1.02370  -0.97441  -0.95982
  Beta  occ. eigenvalues --   -0.93979  -0.89877  -0.86848  -0.83913  -0.80302
  Beta  occ. eigenvalues --   -0.78236  -0.75954  -0.75204  -0.74662  -0.73184
  Beta  occ. eigenvalues --   -0.71501  -0.70525  -0.69699  -0.66070  -0.65131
  Beta  occ. eigenvalues --   -0.64398  -0.63577  -0.61843  -0.60431  -0.58798
  Beta  occ. eigenvalues --   -0.57528  -0.56045  -0.55858  -0.53943  -0.51381
  Beta  occ. eigenvalues --   -0.48724  -0.45801
  Beta virt. eigenvalues --   -0.32246  -0.19188  -0.10184  -0.06420  -0.04543
  Beta virt. eigenvalues --    0.01457   0.03310   0.04255   0.05141   0.07250
  Beta virt. eigenvalues --    0.08318   0.09021   0.10095   0.10319   0.11728
  Beta virt. eigenvalues --    0.12240   0.12922   0.14378   0.14999   0.15961
  Beta virt. eigenvalues --    0.17980   0.19211   0.20741   0.21354   0.21808
  Beta virt. eigenvalues --    0.25404   0.27870   0.30481   0.31393   0.34824
  Beta virt. eigenvalues --    0.39519   0.40908   0.44544   0.45349   0.46600
  Beta virt. eigenvalues --    0.50212   0.51946   0.52078   0.52489   0.52782
  Beta virt. eigenvalues --    0.55534   0.56236   0.59059   0.59380   0.59773
  Beta virt. eigenvalues --    0.60464   0.62759   0.62910   0.63482   0.65193
  Beta virt. eigenvalues --    0.67996   0.68866   0.69141   0.72058   0.73365
  Beta virt. eigenvalues --    0.73950   0.75814   0.77470   0.78795   0.80081
  Beta virt. eigenvalues --    0.81126   0.81302   0.81908   0.82205   0.84136
  Beta virt. eigenvalues --    0.84702   0.85810   0.86533   0.86712   0.88829
  Beta virt. eigenvalues --    0.89529   0.89754   0.91143   0.91202   0.92445
  Beta virt. eigenvalues --    0.93250   0.93597   0.95342   0.96237   0.97707
  Beta virt. eigenvalues --    0.99502   1.02140   1.02347   1.06174   1.07747
  Beta virt. eigenvalues --    1.11557   1.12760   1.15058   1.19001   1.19362
  Beta virt. eigenvalues --    1.23225   1.27817   1.32745   1.42595   1.43246
  Beta virt. eigenvalues --    1.46242   1.48124   1.51452   1.54696   1.59506
  Beta virt. eigenvalues --    1.64782   1.66358   1.73575   1.73866   1.81921
  Beta virt. eigenvalues --    1.84225   1.94616   2.15869   2.86246
          Condensed to atoms (all electrons):
               1          2          3          4          5          6
     1  O    7.950202   0.451468  -0.046026  -0.005233   0.000154  -0.000000
     2  C    0.451468   4.545192   0.333071   0.002714   0.001038  -0.000032
     3  C   -0.046026   0.333071   5.289951   0.376217  -0.015045   0.002384
     4  C   -0.005233   0.002714   0.376217   4.906928   0.480613  -0.038544
     5  C    0.000154   0.001038  -0.015045   0.480613   5.055941   0.220992
     6  Br  -0.000000  -0.000032   0.002384  -0.038544   0.220992  34.807616
     7  C   -0.000005   0.000601  -0.035926  -0.040708   0.444921  -0.038394
     8  C    0.000004   0.000183  -0.025765  -0.023495  -0.024433   0.001792
     9  C    0.001848  -0.015272   0.392228  -0.010076  -0.055185   0.000408
    10  C    0.002341  -0.021918  -0.043070  -0.000423   0.000652   0.000002
    11  C   -0.062059   0.121418  -0.085067   0.001610   0.000003  -0.000000
    12  C   -0.000230  -0.034109   0.003342   0.000014   0.000001  -0.000000
    13  C    0.000154   0.019971  -0.000715  -0.000002  -0.000000   0.000000
    14  C   -0.000229  -0.034090   0.003341   0.000014   0.000001  -0.000000
    15  H    0.001800  -0.003812  -0.015188   0.378912  -0.006290   0.000953
    16  H    0.000000   0.000004   0.000004   0.002366  -0.016661   0.001689
    17  H    0.000000  -0.000076   0.002408   0.000013   0.002273  -0.000043
    18  H   -0.000017   0.000562   0.001417   0.000003   0.000003  -0.000000
    19  H   -0.000017   0.000563   0.001417   0.000003   0.000003  -0.000000
    20  H    0.000045   0.001464   0.000049  -0.000001  -0.000000   0.000000
    21  H    0.001932  -0.003948   0.000703   0.000015  -0.000000  -0.000000
    22  H   -0.000008  -0.000662   0.000006  -0.000000   0.000000  -0.000000
    23  H   -0.000009  -0.000389   0.000012  -0.000000   0.000000  -0.000000
    24  H    0.000045   0.001464   0.000049  -0.000001  -0.000000   0.000000
    25  H    0.001932  -0.003951   0.000703   0.000015  -0.000000  -0.000000
               7          8          9         10         11         12
     1  O   -0.000005   0.000004   0.001848   0.002341  -0.062059  -0.000230
     2  C    0.000601   0.000183  -0.015272  -0.021918   0.121418  -0.034109
     3  C   -0.035926  -0.025765   0.392228  -0.043070  -0.085067   0.003342
     4  C   -0.040708  -0.023495  -0.010076  -0.000423   0.001610   0.000014
     5  C    0.444921  -0.024433  -0.055185   0.000652   0.000003   0.000001
     6  Br  -0.038394   0.001792   0.000408   0.000002  -0.000000  -0.000000
     7  C    4.950013   0.484471  -0.020384   0.000250  -0.000187   0.000001
     8  C    0.484471   4.900058   0.443781   0.003317   0.002685   0.000003
     9  C   -0.020384   0.443781   5.132714   0.296773  -0.063920   0.002618
    10  C    0.000250   0.003317   0.296773   5.188903   0.141927  -0.026079
    11  C   -0.000187   0.002685  -0.063920   0.141927   6.572540   0.076515
    12  C    0.000001   0.000003   0.002618  -0.026079   0.076515   5.407240
    13  C   -0.000000   0.000001  -0.000410   0.012155  -0.200632   0.299978
    14  C    0.000001   0.000003   0.002617  -0.026069   0.076506  -0.179683
    15  H    0.001998  -0.000003   0.001551  -0.000070   0.000161  -0.000001
    16  H    0.383805  -0.013918   0.002540  -0.000010   0.000001  -0.000000
    17  H   -0.014972   0.391316  -0.017816  -0.004248   0.000092  -0.000001
    18  H    0.000046  -0.004293  -0.022950   0.382133  -0.022873  -0.002108
    19  H    0.000046  -0.004293  -0.022947   0.382136  -0.022877   0.001492
    20  H   -0.000000  -0.000012   0.000330  -0.006259  -0.017565   0.376401
    21  H    0.000000  -0.000001  -0.000314   0.003011  -0.034047   0.390742
    22  H    0.000000  -0.000000   0.000004  -0.000379   0.012657  -0.027408
    23  H   -0.000000  -0.000000   0.000011   0.000434   0.004818  -0.030139
    24  H   -0.000000  -0.000012   0.000330  -0.006260  -0.017564   0.008625
    25  H    0.000000  -0.000001  -0.000314   0.003011  -0.034040   0.008307
              13         14         15         16         17         18
     1  O    0.000154  -0.000229   0.001800   0.000000   0.000000  -0.000017
     2  C    0.019971  -0.034090  -0.003812   0.000004  -0.000076   0.000562
     3  C   -0.000715   0.003341  -0.015188   0.000004   0.002408   0.001417
     4  C   -0.000002   0.000014   0.378912   0.002366   0.000013   0.000003
     5  C   -0.000000   0.000001  -0.006290  -0.016661   0.002273   0.000003
     6  Br   0.000000  -0.000000   0.000953   0.001689  -0.000043  -0.000000
     7  C   -0.000000   0.000001   0.001998   0.383805  -0.014972   0.000046
     8  C    0.000001   0.000003  -0.000003  -0.013918   0.391316  -0.004293
     9  C   -0.000410   0.002617   0.001551   0.002540  -0.017816  -0.022950
    10  C    0.012155  -0.026069  -0.000070  -0.000010  -0.004248   0.382133
    11  C   -0.200632   0.076506   0.000161   0.000001   0.000092  -0.022873
    12  C    0.299978  -0.179683  -0.000001  -0.000000  -0.000001  -0.002108
    13  C    5.274315   0.299976   0.000000   0.000000  -0.000000  -0.000471
    14  C    0.299976   5.407212  -0.000001  -0.000000  -0.000001   0.001492
    15  H    0.000000  -0.000001   0.377775  -0.000035   0.000003   0.000001
    16  H    0.000000  -0.000000  -0.000035   0.374569  -0.003208  -0.000000
    17  H   -0.000000  -0.000001   0.000003  -0.003208   0.390815   0.000686
    18  H   -0.000471   0.001492   0.000001  -0.000000   0.000686   0.412260
    19  H   -0.000471  -0.002108   0.000001  -0.000000   0.000686  -0.019652
    20  H   -0.023879   0.008626   0.000000  -0.000000   0.000000   0.004244
    21  H   -0.031352   0.008308  -0.000001   0.000000   0.000000   0.000141
    22  H    0.394318  -0.027405  -0.000000  -0.000000   0.000000   0.000014
    23  H    0.393870  -0.030139   0.000000  -0.000000   0.000000  -0.000022
    24  H   -0.023879   0.376403   0.000000  -0.000000   0.000000   0.000081
    25  H   -0.031352   0.390736  -0.000001   0.000000   0.000000  -0.000097
              19         20         21         22         23         24
     1  O   -0.000017   0.000045   0.001932  -0.000008  -0.000009   0.000045
     2  C    0.000563   0.001464  -0.003948  -0.000662  -0.000389   0.001464
     3  C    0.001417   0.000049   0.000703   0.000006   0.000012   0.000049
     4  C    0.000003  -0.000001   0.000015  -0.000000  -0.000000  -0.000001
     5  C    0.000003  -0.000000  -0.000000   0.000000   0.000000  -0.000000
     6  Br  -0.000000   0.000000  -0.000000  -0.000000  -0.000000   0.000000
     7  C    0.000046  -0.000000   0.000000   0.000000  -0.000000  -0.000000
     8  C   -0.004293  -0.000012  -0.000001  -0.000000  -0.000000  -0.000012
     9  C   -0.022947   0.000330  -0.000314   0.000004   0.000011   0.000330
    10  C    0.382136  -0.006259   0.003011  -0.000379   0.000434  -0.006260
    11  C   -0.022877  -0.017565  -0.034047   0.012657   0.004818  -0.017564
    12  C    0.001492   0.376401   0.390742  -0.027408  -0.030139   0.008625
    13  C   -0.000471  -0.023879  -0.031352   0.394318   0.393870  -0.023879
    14  C   -0.002108   0.008626   0.008308  -0.027405  -0.030139   0.376403
    15  H    0.000001   0.000000  -0.000001  -0.000000   0.000000   0.000000
    16  H   -0.000000  -0.000000   0.000000  -0.000000  -0.000000  -0.000000
    17  H    0.000686   0.000000   0.000000   0.000000   0.000000   0.000000
    18  H   -0.019652   0.004244   0.000141   0.000014  -0.000022   0.000081
    19  H    0.412253   0.000081  -0.000097   0.000014  -0.000021   0.004243
    20  H    0.000081   0.424081  -0.016136   0.001349  -0.004821  -0.000320
    21  H   -0.000097  -0.016136   0.431368  -0.004849   0.002324  -0.000299
    22  H    0.000014   0.001349  -0.004849   0.420050  -0.018869   0.001349
    23  H   -0.000021  -0.004821   0.002324  -0.018869   0.433508  -0.004821
    24  H    0.004243  -0.000320  -0.000299   0.001349  -0.004821   0.424077
    25  H    0.000141  -0.000299  -0.000048  -0.004849   0.002324  -0.016135
              25
     1  O    0.001932
     2  C   -0.003951
     3  C    0.000703
     4  C    0.000015
     5  C   -0.000000
     6  Br  -0.000000
     7  C    0.000000
     8  C   -0.000001
     9  C   -0.000314
    10  C    0.003011
    11  C   -0.034040
    12  C    0.008307
    13  C   -0.031352
    14  C    0.390736
    15  H   -0.000001
    16  H    0.000000
    17  H    0.000000
    18  H   -0.000097
    19  H    0.000141
    20  H   -0.000299
    21  H   -0.000048
    22  H   -0.004849
    23  H    0.002324
    24  H   -0.016135
    25  H    0.431370
          Atomic-Atomic Spin Densities.
               1          2          3          4          5          6
     1  O    0.794267  -0.074170  -0.020818   0.000727   0.000038   0.000000
     2  C   -0.074170  -0.115555   0.010236   0.001161  -0.000468   0.000007
     3  C   -0.020818   0.010236   0.248659  -0.023178   0.003805   0.000157
     4  C    0.000727   0.001161  -0.023178   0.008172  -0.002569  -0.001829
     5  C    0.000038  -0.000468   0.003805  -0.002569   0.012643   0.000229
     6  Br   0.000000   0.000007   0.000157  -0.001829   0.000229   0.006625
     7  C   -0.000002  -0.000034  -0.002758   0.003625  -0.002687   0.000161
     8  C    0.000002  -0.000206   0.000935  -0.000838   0.000716  -0.000006
     9  C    0.000270   0.009998  -0.022005   0.000415  -0.000498   0.000006
    10  C    0.000206  -0.009446   0.014479   0.000450  -0.000064  -0.000000
    11  C   -0.014807   0.117447  -0.052417  -0.000517   0.000034   0.000000
    12  C    0.003488  -0.005461   0.002723   0.000016  -0.000001  -0.000000
    13  C   -0.001033   0.001390  -0.000507  -0.000002   0.000000   0.000000
    14  C    0.003485  -0.005459   0.002721   0.000016  -0.000001  -0.000000
    15  H    0.001553  -0.000452  -0.000214  -0.002196   0.000415   0.000586
    16  H   -0.000000  -0.000001  -0.000027   0.000055  -0.000120  -0.000056
    17  H    0.000000   0.000019   0.000084  -0.000059   0.000059   0.000000
    18  H   -0.000005   0.000270  -0.000591  -0.000018   0.000003   0.000000
    19  H   -0.000005   0.000270  -0.000592  -0.000018   0.000004   0.000000
    20  H   -0.000036  -0.000026  -0.000105  -0.000001   0.000000   0.000000
    21  H    0.001757  -0.001680   0.000516   0.000003  -0.000000  -0.000000
    22  H    0.000053  -0.000006   0.000007   0.000000  -0.000000  -0.000000
    23  H    0.000005   0.000010   0.000008   0.000000  -0.000000  -0.000000
    24  H   -0.000036  -0.000026  -0.000105  -0.000001   0.000000   0.000000
    25  H    0.001756  -0.001679   0.000516   0.000003  -0.000000  -0.000000
               7          8          9         10         11         12
     1  O   -0.000002   0.000002   0.000270   0.000206  -0.014807   0.003488
     2  C   -0.000034  -0.000206   0.009998  -0.009446   0.117447  -0.005461
     3  C   -0.002758   0.000935  -0.022005   0.014479  -0.052417   0.002723
     4  C    0.003625  -0.000838   0.000415   0.000450  -0.000517   0.000016
     5  C   -0.002687   0.000716  -0.000498  -0.000064   0.000034  -0.000001
     6  Br   0.000161  -0.000006   0.000006  -0.000000   0.000000  -0.000000
     7  C   -0.015499  -0.001831   0.002223   0.000115  -0.000027   0.000000
     8  C   -0.001831   0.012050  -0.000254  -0.000208  -0.000035  -0.000004
     9  C    0.002223  -0.000254  -0.005122  -0.003941   0.008963  -0.000540
    10  C    0.000115  -0.000208  -0.003941   0.004895  -0.012337   0.002589
    11  C   -0.000027  -0.000035   0.008963  -0.012337   0.171721  -0.015030
    12  C    0.000000  -0.000004  -0.000540   0.002589  -0.015030   0.009494
    13  C   -0.000000   0.000001   0.000129  -0.001655  -0.009752  -0.000764
    14  C    0.000000  -0.000004  -0.000539   0.002586  -0.015030   0.003835
    15  H   -0.000078   0.000004   0.000188  -0.000030   0.000144  -0.000003
    16  H    0.000480  -0.000120   0.000013   0.000001  -0.000000   0.000000
    17  H   -0.000417   0.001217  -0.000876   0.000051   0.000021  -0.000001
    18  H   -0.000014   0.000075   0.000114   0.000110  -0.000103  -0.000191
    19  H   -0.000014   0.000075   0.000113   0.000112  -0.000103  -0.000162
    20  H   -0.000000   0.000001   0.000041  -0.000330   0.000408   0.000496
    21  H    0.000000  -0.000000  -0.000055   0.000267  -0.000973   0.002794
    22  H    0.000000  -0.000000  -0.000001   0.000024   0.000174  -0.000100
    23  H    0.000000  -0.000000  -0.000004   0.000101   0.000642  -0.000030
    24  H   -0.000000   0.000001   0.000041  -0.000330   0.000408  -0.000247
    25  H    0.000000  -0.000000  -0.000055   0.000267  -0.000974   0.000484
              13         14         15         16         17         18
     1  O   -0.001033   0.003485   0.001553  -0.000000   0.000000  -0.000005
     2  C    0.001390  -0.005459  -0.000452  -0.000001   0.000019   0.000270
     3  C   -0.000507   0.002721  -0.000214  -0.000027   0.000084  -0.000591
     4  C   -0.000002   0.000016  -0.002196   0.000055  -0.000059  -0.000018
     5  C    0.000000  -0.000001   0.000415  -0.000120   0.000059   0.000003
     6  Br   0.000000  -0.000000   0.000586  -0.000056   0.000000   0.000000
     7  C   -0.000000   0.000000  -0.000078   0.000480  -0.000417  -0.000014
     8  C    0.000001  -0.000004   0.000004  -0.000120   0.001217   0.000075
     9  C    0.000129  -0.000539   0.000188   0.000013  -0.000876   0.000114
    10  C   -0.001655   0.002586  -0.000030   0.000001   0.000051   0.000110
    11  C   -0.009752  -0.015030   0.000144  -0.000000   0.000021  -0.000103
    12  C   -0.000764   0.003835  -0.000003   0.000000  -0.000001  -0.000191
    13  C    0.038287  -0.000754   0.000000  -0.000000   0.000000   0.000246
    14  C   -0.000754   0.009478  -0.000003   0.000000  -0.000001  -0.000162
    15  H    0.000000  -0.000003   0.003745  -0.000003   0.000001   0.000001
    16  H   -0.000000   0.000000  -0.000003   0.000534  -0.000041  -0.000000
    17  H    0.000000  -0.000001   0.000001  -0.000041   0.001967   0.000057
    18  H    0.000246  -0.000162   0.000001  -0.000000   0.000057   0.002326
    19  H    0.000246  -0.000191   0.000001  -0.000000   0.000057   0.000601
    20  H    0.000902  -0.000247   0.000000  -0.000000   0.000000   0.000132
    21  H   -0.003584   0.000483  -0.000002   0.000000  -0.000000  -0.000054
    22  H   -0.001079  -0.000100  -0.000000   0.000000  -0.000000  -0.000003
    23  H   -0.001374  -0.000031  -0.000000   0.000000  -0.000000  -0.000038
    24  H    0.000901   0.000497   0.000000  -0.000000   0.000000   0.000026
    25  H   -0.003585   0.002794  -0.000002   0.000000  -0.000000  -0.000009
              19         20         21         22         23         24
     1  O   -0.000005  -0.000036   0.001757   0.000053   0.000005  -0.000036
     2  C    0.000270  -0.000026  -0.001680  -0.000006   0.000010  -0.000026
     3  C   -0.000592  -0.000105   0.000516   0.000007   0.000008  -0.000105
     4  C   -0.000018  -0.000001   0.000003   0.000000   0.000000  -0.000001
     5  C    0.000004   0.000000  -0.000000  -0.000000  -0.000000   0.000000
     6  Br   0.000000   0.000000  -0.000000  -0.000000  -0.000000   0.000000
     7  C   -0.000014  -0.000000   0.000000   0.000000   0.000000  -0.000000
     8  C    0.000075   0.000001  -0.000000  -0.000000  -0.000000   0.000001
     9  C    0.000113   0.000041  -0.000055  -0.000001  -0.000004   0.000041
    10  C    0.000112  -0.000330   0.000267   0.000024   0.000101  -0.000330
    11  C   -0.000103   0.000408  -0.000973   0.000174   0.000642   0.000408
    12  C   -0.000162   0.000496   0.002794  -0.000100  -0.000030  -0.000247
    13  C    0.000246   0.000902  -0.003584  -0.001079  -0.001374   0.000901
    14  C   -0.000191  -0.000247   0.000483  -0.000100  -0.000031   0.000497
    15  H    0.000001   0.000000  -0.000002  -0.000000  -0.000000   0.000000
    16  H   -0.000000  -0.000000   0.000000   0.000000   0.000000  -0.000000
    17  H    0.000057   0.000000  -0.000000  -0.000000  -0.000000   0.000000
    18  H    0.000601   0.000132  -0.000054  -0.000003  -0.000038   0.000026
    19  H    0.002333   0.000026  -0.000009  -0.000003  -0.000038   0.000132
    20  H    0.000026   0.000825  -0.000867  -0.000058  -0.000114   0.000009
    21  H   -0.000009  -0.000867   0.005484   0.000479   0.000157  -0.000018
    22  H   -0.000003  -0.000058   0.000479   0.004335   0.000685  -0.000058
    23  H   -0.000038  -0.000114   0.000157   0.000685   0.001909  -0.000114
    24  H    0.000132   0.000009  -0.000018  -0.000058  -0.000114   0.000823
    25  H   -0.000054  -0.000018   0.000264   0.000479   0.000157  -0.000866
              25
     1  O    0.001756
     2  C   -0.001679
     3  C    0.000516
     4  C    0.000003
     5  C   -0.000000
     6  Br  -0.000000
     7  C    0.000000
     8  C   -0.000000
     9  C   -0.000055
    10  C    0.000267
    11  C   -0.000974
    12  C    0.000484
    13  C   -0.003585
    14  C    0.002794
    15  H   -0.000002
    16  H    0.000000
    17  H   -0.000000
    18  H   -0.000009
    19  H   -0.000054
    20  H   -0.000018
    21  H    0.000264
    22  H    0.000479
    23  H    0.000157
    24  H   -0.000866
    25  H    0.005486
 Mulliken charges and spin densities:
               1          2
     1  O   -0.298093   0.696696
     2  C    0.638544  -0.073863
     3  C   -0.140501   0.161529
     4  C   -0.030955  -0.016584
     5  C   -0.088981   0.011538
     6  Br   0.041178   0.005881
     7  C   -0.115577  -0.016757
     8  C   -0.131391   0.011570
     9  C   -0.048163  -0.011375
    10  C   -0.282260  -0.002086
    11  C   -0.450101   0.177855
    12  C   -0.275522   0.003386
    13  C   -0.381575   0.018013
    14  C   -0.275511   0.003375
    15  H    0.262245   0.003657
    16  H    0.268854   0.000713
    17  H    0.252073   0.002139
    18  H    0.269399   0.002772
    19  H    0.269404   0.002778
    20  H    0.252621   0.001040
    21  H    0.252547   0.004962
    22  H    0.254668   0.004830
    23  H    0.251927   0.001930
    24  H    0.252622   0.001038
    25  H    0.252548   0.004964
 Sum of Mulliken charges =   1.00000   1.00000
 Mulliken charges and spin densities with hydrogens summed into heavy atoms:
               1          2
     1  O   -0.298093   0.696696
     2  C    0.638544  -0.073863
     3  C   -0.140501   0.161529
     4  C    0.231290  -0.012928
     5  C   -0.088981   0.011538
     6  Br   0.041178   0.005881
     7  C    0.153277  -0.016044
     8  C    0.120682   0.013709
     9  C   -0.048163  -0.011375
    10  C    0.256544   0.003464
    11  C   -0.450101   0.177855
    12  C    0.229646   0.009388
    13  C    0.125020   0.024773
    14  C    0.229659   0.009377
 Electronic spatial extent (au):  <R**2>=           4783.1269
 Charge=              1.0000 electrons
 Dipole moment (field-independent basis, Debye):
    X=             -7.3925    Y=              1.5073    Z=             -0.0001  Tot=              7.5446
 Quadrupole moment (field-independent basis, Debye-Ang):
   XX=            -48.1195   YY=            -75.9621   ZZ=            -90.7876
   XY=              1.4913   XZ=             -0.0000   YZ=              0.0005
 Traceless Quadrupole moment (field-independent basis, Debye-Ang):
   XX=             23.5036   YY=             -4.3391   ZZ=            -19.1645
   XY=              1.4913   XZ=             -0.0000   YZ=              0.0005
 Octapole moment (field-independent basis, Debye-Ang**2):
  XXX=              7.6808  YYY=              0.5259  ZZZ=             -0.0005  XYY=             32.1294
  XXY=             -7.5487  XXZ=             -0.0003  XZZ=             21.5225  YZZ=             -7.8733
  YYZ=              0.0002  XYZ=             -0.0003
 Hexadecapole moment (field-independent basis, Debye-Ang**3):
 XXXX=          -3746.9449 YYYY=           -624.4186 ZZZZ=           -206.9463 XXXY=            -33.0985
 XXXZ=             -0.0020 YYYX=            -20.8331 YYYZ=             -0.0005 ZZZX=              0.0015
 ZZZY=             -0.0018 XXYY=           -798.4964 XXZZ=           -769.9116 YYZZ=           -151.7063
 XXYZ=              0.0021 YYXZ=              0.0009 ZZXY=            -16.6959
 N-N= 1.116612488900D+03 E-N=-9.579061156275D+03  KE= 3.089781514460D+03
 There are a total of      571444 grid points.
 ElSum from          density=      124.9999874963
 ElSum from atomic densities=      126.0000370432
 Hirshfeld populations at iteration   1 (CA, CB, DipXYZ):
               1          2          3          4          5
     1  O    4.285709   3.670114   0.002573   0.002954   0.000002
     2  C    2.918918   2.856395  -0.015285  -0.045641  -0.000047
     3  C    3.051016   2.951871  -0.042956  -0.060155   0.000005
     4  C    3.003361   3.000121  -0.002115  -0.049194   0.000008
     5  C    2.987891   2.980916   0.033635  -0.002186  -0.000000
     6  Br  17.485395  17.479272   0.128955  -0.033842  -0.000003
     7  C    2.985532   2.994432   0.027868   0.047581  -0.000001
     8  C    3.007734   3.000625  -0.002914   0.059659   0.000001
     9  C    2.985279   2.981158  -0.040916   0.043325  -0.000001
    10  C    3.017422   3.007567  -0.005915   0.019094   0.000003
    11  C    3.034981   2.914301   0.023793  -0.008237   0.000001
    12  C    3.017630   3.003968  -0.027463   0.009097  -0.003617
    13  C    3.020617   3.003350  -0.004110  -0.005638   0.000002
    14  C    3.017625   3.003969  -0.027462   0.009102   0.003619
    15  H    0.464280   0.462084   0.022089  -0.175703  -0.000010
    16  H    0.461654   0.462167   0.121918   0.128214   0.000002
    17  H    0.464761   0.462530  -0.024031   0.175442   0.000006
    18  H    0.469444   0.466654  -0.042608   0.102258  -0.123471
    19  H    0.469444   0.466649  -0.042608   0.102260   0.123473
    20  H    0.473247   0.471338  -0.020207   0.103743  -0.126016
    21  H    0.477304   0.472959  -0.000838  -0.140348  -0.075944
    22  H    0.474439   0.470109  -0.115014  -0.119604  -0.000003
    23  H    0.475759   0.473150  -0.086974   0.136925  -0.000002
    24  H    0.473245   0.471337  -0.020207   0.103744   0.126017
    25  H    0.477304   0.472958  -0.000839  -0.140350   0.075942
       Tot  62.999994  61.999994  -0.161632   0.262498  -0.000033

 Dip from Atomic Chgs             -2.746848   0.330589   0.000007
         Total Dipole             -2.908481   0.593087  -0.000027

 Hirshfeld charges, spin densities, dipoles, and CM5 charges using IRadAn=      5:
              Q-H        S-H        Dx         Dy         Dz        Q-CM5   
     1  O    0.044177   0.615595   0.002573   0.002954   0.000002  -0.004319
     2  C    0.224687   0.062522  -0.015285  -0.045641  -0.000047   0.257725
     3  C   -0.002887   0.099145  -0.042956  -0.060155   0.000005  -0.005529
     4  C   -0.003482   0.003240  -0.002115  -0.049194   0.000008  -0.053789
     5  C    0.031193   0.006975   0.033635  -0.002186  -0.000000   0.010303
     6  Br   0.035333   0.006123   0.128955  -0.033842  -0.000003   0.049931
     7  C    0.020035  -0.008900   0.027868   0.047581  -0.000001  -0.034091
     8  C   -0.008358   0.007109  -0.002914   0.059659   0.000001  -0.061997
     9  C    0.033563   0.004120  -0.040916   0.043325  -0.000001   0.022604
    10  C   -0.024989   0.009855  -0.005915   0.019094   0.000003  -0.122487
    11  C    0.050717   0.120680   0.023793  -0.008237   0.000001   0.033333
    12  C   -0.021598   0.013663  -0.027463   0.009097  -0.003617  -0.125398
    13  C   -0.023967   0.017267  -0.004110  -0.005638   0.000002  -0.132045
    14  C   -0.021594   0.013657  -0.027462   0.009102   0.003619  -0.125394
    15  H    0.073636   0.002195   0.022089  -0.175703  -0.000010   0.132895
    16  H    0.076179  -0.000513   0.121918   0.128214   0.000002   0.133750
    17  H    0.072709   0.002231  -0.024031   0.175442   0.000006   0.129725
    18  H    0.063902   0.002791  -0.042608   0.102258  -0.123471   0.120572
    19  H    0.063906   0.002795  -0.042608   0.102260   0.123473   0.120577
    20  H    0.055415   0.001910  -0.020207   0.103743  -0.126016   0.110508
    21  H    0.049737   0.004345  -0.000838  -0.140348  -0.075944   0.108379
    22  H    0.055452   0.004330  -0.115014  -0.119604  -0.000003   0.109738
    23  H    0.051090   0.002609  -0.086974   0.136925  -0.000002   0.106129
    24  H    0.055418   0.001908  -0.020207   0.103744   0.126017   0.110511
    25  H    0.049738   0.004346  -0.000839  -0.140350   0.075942   0.108380
       Tot   1.000013   1.000000  -0.161632   0.262498  -0.000033   1.000013
 Hirshfeld charges and spin densities with hydrogens summed into heavy atoms:
              Q-H        S-H       Q-CM5   
     1  O    0.044177   0.615595  -0.004319
     2  C    0.224687   0.062522   0.257725
     3  C   -0.002887   0.099145  -0.005529
     4  C    0.070155   0.005435   0.079105
     5  C    0.031193   0.006975   0.010303
     6  Br   0.035333   0.006123   0.049931
     7  C    0.096214  -0.009413   0.099659
     8  C    0.064350   0.009340   0.067728
     9  C    0.033563   0.004120   0.022604
    10  C    0.102819   0.015441   0.118662
    11  C    0.050717   0.120680   0.033333
    12  C    0.083554   0.019918   0.093490
    13  C    0.082575   0.024206   0.083822
    14  C    0.083562   0.019911   0.093497
 
 EQQ= 0.703347464752E-01 EQD=-0.259303971007E-01 EDD= 0.633500044573E-02
 EQQ+QD+DD= 0.507393498201E-01
 
                          Isotropic Fermi Contact Couplings
        Atom                 a.u.       MegaHertz       Gauss      10(-4) cm-1
     1  O(17)              0.10524     -63.79347     -22.76310     -21.27921
     2  C(13)             -0.03999     -44.95652     -16.04160     -14.99588
     3  C(13)              0.04504      50.63876      18.06917      16.89127
     4  C(13)             -0.00294      -3.31014      -1.18114      -1.10414
     5  C(13)              0.00446       5.01097       1.78804       1.67148
     6  Br(79)            -0.00138      -1.55107      -0.55346      -0.51738
     7  C(13)             -0.00162      -1.82506      -0.65123      -0.60878
     8  C(13)              0.00260       2.92850       1.04496       0.97684
     9  C(13)             -0.00394      -4.42434      -1.57871      -1.47580
    10  C(13)             -0.00336      -3.77762      -1.34795      -1.26008
    11  C(13)              0.01471      16.53319       5.89945       5.51488
    12  C(13)             -0.00348      -3.91249      -1.39607      -1.30506
    13  C(13)              0.00809       9.09828       3.24649       3.03486
    14  C(13)             -0.00348      -3.91267      -1.39614      -1.30513
    15  H(1)               0.00060       2.69441       0.96143       0.89876
    16  H(1)               0.00019       0.85473       0.30499       0.28511
    17  H(1)               0.00096       4.26919       1.52335       1.42405
    18  H(1)               0.00116       5.19260       1.85285       1.73207
    19  H(1)               0.00116       5.20542       1.85742       1.73634
    20  H(1)               0.00063       2.82903       1.00947       0.94366
    21  H(1)               0.00122       5.43773       1.94032       1.81383
    22  H(1)               0.00184       8.24651       2.94256       2.75074
    23  H(1)               0.00079       3.53408       1.26105       1.17884
    24  H(1)               0.00063       2.82558       1.00824       0.94251
    25  H(1)               0.00122       5.44071       1.94138       1.81482
 --------------------------------------------------------
       Center         ----  Spin Dipole Couplings  ----
                      3XX-RR        3YY-RR        3ZZ-RR
 --------------------------------------------------------
     1   Atom        2.284258     -1.225492     -1.058766
     2   Atom        0.092588      0.026638     -0.119225
     3   Atom        0.051393      0.036136     -0.087529
     4   Atom        0.026563     -0.003267     -0.023296
     5   Atom        0.003780     -0.002234     -0.001546
     6   Atom        0.060379     -0.033960     -0.026418
     7   Atom        0.008541      0.007822     -0.016363
     8   Atom       -0.003494      0.002908      0.000587
     9   Atom       -0.000140      0.031890     -0.031750
    10   Atom       -0.008694      0.021563     -0.012869
    11   Atom        0.073926      0.053616     -0.127543
    12   Atom        0.021501     -0.011470     -0.010031
    13   Atom        0.031926     -0.015839     -0.016087
    14   Atom        0.021494     -0.011465     -0.010029
    15   Atom        0.010732     -0.004199     -0.006533
    16   Atom        0.000498      0.000391     -0.000889
    17   Atom       -0.001045      0.002666     -0.001622
    18   Atom       -0.003120      0.004352     -0.001232
    19   Atom       -0.003120      0.004352     -0.001232
    20   Atom       -0.000688     -0.001281      0.001969
    21   Atom        0.002261     -0.003018      0.000757
    22   Atom        0.003598      0.000569     -0.004168
    23   Atom        0.002211      0.001620     -0.003831
    24   Atom       -0.000687     -0.001282      0.001969
    25   Atom        0.002261     -0.003019      0.000758
 --------------------------------------------------------
                        XY            XZ            YZ
 --------------------------------------------------------
     1   Atom       -0.452589      0.000183     -0.000015
     2   Atom       -0.028212     -0.000002     -0.000004
     3   Atom        0.143955     -0.000041     -0.000035
     4   Atom        0.001075     -0.000002      0.000002
     5   Atom        0.009159      0.000010      0.000009
     6   Atom        0.048592      0.000129      0.000028
     7   Atom        0.001956      0.000002     -0.000002
     8   Atom        0.007243     -0.000002     -0.000003
     9   Atom       -0.008988     -0.000011      0.000023
    10   Atom        0.005102      0.000002      0.000005
    11   Atom       -0.187689      0.000014     -0.000014
    12   Atom       -0.007677      0.007820     -0.002037
    13   Atom       -0.004632      0.000002     -0.000000
    14   Atom       -0.007679     -0.007807      0.002037
    15   Atom       -0.000529     -0.000000      0.000000
    16   Atom        0.000156      0.000000      0.000000
    17   Atom        0.000871     -0.000000      0.000000
    18   Atom        0.000022      0.000496     -0.002774
    19   Atom        0.000022     -0.000497      0.002774
    20   Atom       -0.001554      0.002550     -0.003863
    21   Atom       -0.002374      0.008825     -0.000701
    22   Atom        0.000802     -0.000000     -0.000000
    23   Atom       -0.002878     -0.000000      0.000000
    24   Atom       -0.001555     -0.002550      0.003862
    25   Atom       -0.002373     -0.008824      0.000701
 --------------------------------------------------------


 ---------------------------------------------------------------------------------
              Anisotropic Spin Dipole Couplings in Principal Axis System
 ---------------------------------------------------------------------------------

       Atom             a.u.   MegaHertz   Gauss  10(-4) cm-1        Axes

              Baa    -1.2829    92.831    33.124    30.965  0.1259  0.9920 -0.0000
     1 O(17)  Bbb    -1.0588    76.612    27.337    25.555 -0.0000  0.0000  1.0000
              Bcc     2.3417  -169.442   -60.461   -56.520  0.9920 -0.1259  0.0001
 
              Baa    -0.1192   -15.999    -5.709    -5.337  0.0000  0.0000  1.0000
     2 C(13)  Bbb     0.0162     2.176     0.776     0.726  0.3465  0.9380 -0.0000
              Bcc     0.1030    13.823     4.932     4.611  0.9380 -0.3465 -0.0000
 
              Baa    -0.1004   -13.472    -4.807    -4.494 -0.6881  0.7256 -0.0002
     3 C(13)  Bbb    -0.0875   -11.746    -4.191    -3.918 -0.0000  0.0003  1.0000
              Bcc     0.1879    25.217     8.998     8.412  0.7256  0.6881 -0.0002
 
              Baa    -0.0233    -3.126    -1.115    -1.043  0.0000 -0.0001  1.0000
     4 C(13)  Bbb    -0.0033    -0.444    -0.158    -0.148 -0.0360  0.9994  0.0001
              Bcc     0.0266     3.570     1.274     1.191  0.9994  0.0360 -0.0000
 
              Baa    -0.0089    -1.190    -0.425    -0.397 -0.5866  0.8099 -0.0002
     5 C(13)  Bbb    -0.0015    -0.207    -0.074    -0.069 -0.0010 -0.0005  1.0000
              Bcc     0.0104     1.397     0.499     0.466  0.8099  0.5866  0.0011
 
              Baa    -0.0545    -7.312    -2.609    -2.439 -0.3895  0.9210  0.0009
     6 Br(79) Bbb    -0.0264    -3.544    -1.264    -1.182 -0.0008 -0.0013  1.0000
              Bcc     0.0809    10.856     3.874     3.621  0.9210  0.3895  0.0012
 
              Baa    -0.0164    -2.196    -0.783    -0.732 -0.0001  0.0001  1.0000
     7 C(13)  Bbb     0.0062     0.831     0.297     0.277 -0.6400  0.7684 -0.0001
              Bcc     0.0102     1.365     0.487     0.455  0.7684  0.6400  0.0000
 
              Baa    -0.0082    -1.102    -0.393    -0.368  0.8379 -0.5458  0.0000
     8 C(13)  Bbb     0.0006     0.079     0.028     0.026  0.0002  0.0004  1.0000
              Bcc     0.0076     1.023     0.365     0.341  0.5458  0.8379 -0.0005
 
              Baa    -0.0318    -4.261    -1.520    -1.421  0.0003 -0.0003  1.0000
     9 C(13)  Bbb    -0.0025    -0.334    -0.119    -0.111  0.9675  0.2529 -0.0002
              Bcc     0.0342     4.595     1.639     1.533 -0.2529  0.9675  0.0004
 
              Baa    -0.0129    -1.727    -0.616    -0.576 -0.0005 -0.0001  1.0000
    10 C(13)  Bbb    -0.0095    -1.279    -0.456    -0.427  0.9868 -0.1619  0.0004
              Bcc     0.0224     3.006     1.073     1.003  0.1619  0.9868  0.0002
 
              Baa    -0.1275   -17.115    -6.107    -5.709  0.0000  0.0001  1.0000
    11 C(13)  Bbb    -0.1242   -16.665    -5.947    -5.559  0.6877  0.7260 -0.0001
              Bcc     0.2517    33.780    12.054    11.268  0.7260 -0.6877  0.0001
 
              Baa    -0.0132    -1.776    -0.634    -0.592  0.1667  0.9642  0.2062
    12 C(13)  Bbb    -0.0118    -1.587    -0.566    -0.529 -0.2601 -0.1588  0.9525
              Bcc     0.0251     3.363     1.200     1.122  0.9511 -0.2124  0.2243
 
              Baa    -0.0163    -2.185    -0.780    -0.729  0.0956  0.9954 -0.0004
    13 C(13)  Bbb    -0.0161    -2.159    -0.770    -0.720  0.0000  0.0004  1.0000
              Bcc     0.0324     4.344     1.550     1.449  0.9954 -0.0956  0.0000
 
              Baa    -0.0132    -1.775    -0.633    -0.592  0.1667  0.9641 -0.2070
    14 C(13)  Bbb    -0.0118    -1.586    -0.566    -0.529  0.2600  0.1595  0.9524
              Bcc     0.0250     3.361     1.199     1.121  0.9511 -0.2125 -0.2240
 
              Baa    -0.0065    -3.485    -1.244    -1.163  0.0000 -0.0000  1.0000
    15 H(1)   Bbb    -0.0042    -2.251    -0.803    -0.751  0.0354  0.9994  0.0000
              Bcc     0.0108     5.736     2.047     1.913  0.9994 -0.0354 -0.0000
 
              Baa    -0.0009    -0.474    -0.169    -0.158 -0.0002 -0.0001  1.0000
    16 H(1)   Bbb     0.0003     0.150     0.053     0.050 -0.5818  0.8133 -0.0000
              Bcc     0.0006     0.325     0.116     0.108  0.8133  0.5818  0.0002
 
              Baa    -0.0016    -0.865    -0.309    -0.289  0.0003 -0.0001  1.0000
    17 H(1)   Bbb    -0.0012    -0.661    -0.236    -0.221  0.9760 -0.2178 -0.0003
              Bcc     0.0029     1.526     0.545     0.509  0.2178  0.9760  0.0000
 
              Baa    -0.0033    -1.786    -0.637    -0.596  0.9012 -0.1492 -0.4070
    18 H(1)   Bbb    -0.0022    -1.148    -0.410    -0.383  0.4330  0.3524  0.8297
              Bcc     0.0055     2.934     1.047     0.979 -0.0196  0.9239 -0.3821
 
              Baa    -0.0033    -1.786    -0.637    -0.596  0.9012 -0.1492  0.4070
    19 H(1)   Bbb    -0.0022    -1.147    -0.409    -0.383 -0.4331 -0.3524  0.8296
              Bcc     0.0055     2.934     1.047     0.979 -0.0197  0.9239  0.3822
 
              Baa    -0.0039    -2.056    -0.734    -0.686 -0.0552  0.8207  0.5687
    20 H(1)   Bbb    -0.0020    -1.086    -0.387    -0.362  0.9089  0.2770 -0.3116
              Bcc     0.0059     3.142     1.121     1.048  0.4133 -0.4997  0.7613
 
              Baa    -0.0076    -4.067    -1.451    -1.356 -0.6779 -0.2440  0.6935
    21 H(1)   Bbb    -0.0031    -1.657    -0.591    -0.553 -0.0499  0.9564  0.2877
              Bcc     0.0107     5.723     2.042     1.909  0.7335 -0.1604  0.6605
 
              Baa    -0.0042    -2.224    -0.793    -0.742  0.0000  0.0000  1.0000
    22 H(1)   Bbb     0.0004     0.197     0.070     0.066 -0.2412  0.9705  0.0000
              Bcc     0.0038     2.026     0.723     0.676  0.9705  0.2412 -0.0000
 
              Baa    -0.0038    -2.044    -0.729    -0.682  0.0000 -0.0000  1.0000
    23 H(1)   Bbb    -0.0010    -0.521    -0.186    -0.174  0.6701  0.7423 -0.0000
              Bcc     0.0048     2.565     0.915     0.856  0.7423 -0.6701 -0.0000
 
              Baa    -0.0039    -2.056    -0.734    -0.686 -0.0549  0.8208 -0.5686
    24 H(1)   Bbb    -0.0020    -1.086    -0.388    -0.362  0.9089  0.2768  0.3119
              Bcc     0.0059     3.142     1.121     1.048 -0.4133  0.4997  0.7612
 
              Baa    -0.0076    -4.066    -1.451    -1.356  0.6779  0.2439  0.6935
    25 H(1)   Bbb    -0.0031    -1.657    -0.591    -0.553 -0.0499  0.9564 -0.2876
              Bcc     0.0107     5.723     2.042     1.909  0.7335 -0.1604 -0.6605
 

 ---------------------------------------------------------------------------------

 Running external command "gaunbo6 R"
         input file       "/home/rpaton/arbr500/xtb/fukui/Gau-2144820.EIn"
         output file      "/home/rpaton/arbr500/xtb/fukui/Gau-2144820.EOu"
         message file     "/home/rpaton/arbr500/xtb/fukui/Gau-2144820.EMs"
         fchk file        "/home/rpaton/arbr500/xtb/fukui/Gau-2144820.EFC"
         mat. el file     "/home/rpaton/arbr500/xtb/fukui/Gau-2144820.EUF"

 Writing WrtUnf unformatted file "/home/rpaton/arbr500/xtb/fukui/Gau-2144820.EUF"
 Gaussian matrix elements                                         Version   2 NLab=11 Len12L=8 Len4L=8
 Write SHELL TO ATOM MAP                   from file      0 offset           0 length                  99 to matrix element file.
 Write SHELL TYPES                         from file      0 offset           0 length                  99 to matrix element file.
 Write NUMBER OF PRIMITIVES PER SHELL      from file      0 offset           0 length                  99 to matrix element file.
 Write PRIMITIVE EXPONENTS                 from file      0 offset           0 length                 176 to matrix element file.
 Write CONTRACTION COEFFICIENTS            from file      0 offset           0 length                 176 to matrix element file.
 Write P(S=P) CONTRACTION COEFFICIENTS     from file      0 offset           0 length                 176 to matrix element file.
 Write COORDINATES OF EACH SHELL           from file      0 offset           0 length                 297 to matrix element file.
 Write BONDS PER ATOM                      from file      0 offset           0 length                  25 to matrix element file.
 Write BONDED ATOMS                        from file      0 offset           0 length                  54 to matrix element file.
 Write BOND TYPES                          from file      0 offset           0 length                  54 to matrix element file.
 Write ONIOM CHARGE/MULT                   from file      0 offset           0 length                  32 to matrix element file.
 Write ONIOM ATOM LAYERS                   from file      0 offset           0 length                  25 to matrix element file.
 Write ONIOM ATOM MODIFIERS                from file      0 offset           0 length                  25 to matrix element file.
 Write ONIOM ATOM TYPES                    from file      0 offset           0 length                  25 to matrix element file.
 Write ONIOM LINK ATOMS                    from file      0 offset           0 length                  25 to matrix element file.
 Write ONIOM LINK CHARGES                  from file      0 offset           0 length                  25 to matrix element file.
 Write ONIOM LINK DISTANCES                from file      0 offset           0 length                 100 to matrix element file.
 Write SYMINF INTS                         from file      0 offset           0 length                  26 to matrix element file.
 Write ROTTR TO SO                         from file      0 offset           0 length                  12 to matrix element file.
 Write GAUSSIAN SCALARS                    from file    501 offset           0 to matrix element file.
 Write OPTIMIZATION FLAGS                  from file      0 offset           0 length                  25 to matrix element file.
 Write INTEGER ISO                         from file      0 offset           0 length                  25 to matrix element file.
 Write INTEGER SPIN                        from file      0 offset           0 length                  25 to matrix element file.
 Write REAL ZEFFECTIVE                     from file      0 offset           0 length                  25 to matrix element file.
 Write REAL QUADRUPOLEMOMENT               from file      0 offset           0 length                  25 to matrix element file.
 Write REAL GFACTOR                        from file      0 offset           0 length                  25 to matrix element file.
 Write REAL ZNUCLEAR                       from file      0 offset           0 length                  25 to matrix element file.
 Write MULLIKEN CHARGES                    from file      0 offset           0 length                  25 to matrix element file.
 Write TYPE 6 CHARGES                      from file      0 offset           0 length                  25 to matrix element file.
 Write TYPE 7 CHARGES                      from file      0 offset           0 length                  25 to matrix element file.
 Write NUCLEAR GRADIENT                    from file  10584 offset           0 length                  75 to matrix element file.
 Array NUCLEAR FORCE CONSTANTS              on  file  10585 does not exist.
 Write ELECTRIC DIPOLE MOMENT              from file      0 offset           0 length                   3 to matrix element file.
 Write NON-ADIABATIC COUPLING              from file  10810 offset           0 length                  75 to matrix element file.
 Write FINITE EM FIELD                     from file  10521 offset           0 length                  35 to matrix element file.
 Write OVERLAP                             from file  10514 offset           0 length               14706 to matrix element file.
 Write CORE HAMILTONIAN ALPHA              from file  10515 offset           0 length               14706 to matrix element file.
 Write CORE HAMILTONIAN BETA               from file  10515 offset       14706 length               14706 to matrix element file.
 Write KINETIC ENERGY                      from file  10516 offset           0 length               14706 to matrix element file.
 Write ORTHOGONAL BASIS                    from file  10685 offset           0 length               29241 to matrix element file.
 Write DIPOLE INTEGRALS                    from file  10518 offset           0 length               44118 to matrix element file.
 Array DIP VEL INTEGRALS                    on  file  10572 does not exist.
 Array R X DEL INTEGRALS                    on  file  10572 does not exist.
 Write ALPHA ORBITAL ENERGIES              from file      0 offset           0 length                 171 to matrix element file.
 Write BETA ORBITAL ENERGIES               from file      0 offset           0 length                 171 to matrix element file.
 Write ALPHA MO COEFFICIENTS               from file  10524 offset           0 length               29241 to matrix element file.
 Write BETA MO COEFFICIENTS                from file  10526 offset           0 length               29241 to matrix element file.
 Write ALPHA DENSITY MATRIX                from file      0 offset           0 length               14706 to matrix element file.
 Write BETA DENSITY MATRIX                 from file      0 offset           0 length               14706 to matrix element file.
 Write ALPHA FOCK MATRIX                   from file  10536 offset           0 length               14706 to matrix element file.
 Write BETA FOCK MATRIX                    from file  10538 offset           0 length               14706 to matrix element file.
 Write ENERGY-WEIGHTED DENSITY             from file  10571 offset           0 length               14706 to matrix element file.
 Write ALPHA SCF DENSITY MATRIX            from file      0 offset           0 length               14706 to matrix element file.
 Write BETA SCF DENSITY MATRIX             from file      0 offset           0 length               14706 to matrix element file.
 No 2e integrals to process.
 Perform NBO analysis...

 *********************************** NBO 7.0 ***********************************
             N A T U R A L   A T O M I C   O R B I T A L   A N D
          N A T U R A L   B O N D   O R B I T A L   A N A L Y S I S
 **************************** Robert Paton (I101709) ***************************
  (c) Copyright 1996-2019 Board of Regents of the University of Wisconsin System
      on behalf of the Theoretical Chemistry Institute.  All rights reserved.

          Cite this program [NBO 7.0.5 (4-Jun-2019)] as:

          NBO 7.0.  E. D. Glendening, J. K. Badenhoop, A. E. Reed,
          J. E. Carpenter, J. A. Bohmann, C. M. Morales, P. Karafiloglou,
          C. R. Landis, and F. Weinhold, Theoretical Chemistry Institute,
          University of Wisconsin, Madison, WI (2018)

 Filename set to /home/rpaton/arbr500/xtb/fukui/Gau-2144820

 Job title:  energy: -39.449151330410 gnorm: 0.000222488892 xtb: 6.7.0 (08769fc)


 NATURAL POPULATIONS:  Natural atomic orbital occupancies

  NAO Atom No lang   Type(AO)    Occupancy     Spin
 -----------------------------------------------------
   1    O  1  s      Cor( 1s)     1.99989     0.00000
   2    O  1  s      Val( 2s)     1.70244     0.01030
   3    O  1  s      Ryd( 3s)     0.00049    -0.00004
   4    O  1  px     Val( 2p)     1.27099     0.64163
   5    O  1  px     Ryd( 3p)     0.00138     0.00072
   6    O  1  py     Val( 2p)     1.59650     0.01457
   7    O  1  py     Ryd( 3p)     0.00024    -0.00003
   8    O  1  pz     Val( 2p)     1.52924     0.03937
   9    O  1  pz     Ryd( 3p)     0.00032     0.00003
  10    O  1  dxy    Ryd( 3d)     0.00335     0.00090
  11    O  1  dxz    Ryd( 3d)     0.00006     0.00000
  12    O  1  dyz    Ryd( 3d)     0.00495    -0.00003
  13    O  1  dx2y2  Ryd( 3d)     0.00524     0.00008
  14    O  1  dz2    Ryd( 3d)     0.00184     0.00004

  15    C  2  s      Cor( 1s)     1.99985     0.00000
  16    C  2  s      Val( 2s)     0.84048    -0.01415
  17    C  2  s      Ryd( 3s)     0.00481    -0.00043
  18    C  2  px     Val( 2p)     1.01356     0.01240
  19    C  2  px     Ryd( 3p)     0.00413    -0.00036
  20    C  2  py     Val( 2p)     0.80139    -0.01300
  21    C  2  py     Ryd( 3p)     0.02231    -0.00027
  22    C  2  pz     Val( 2p)     0.71779    -0.02394
  23    C  2  pz     Ryd( 3p)     0.00141    -0.00011

  24    C  3  s      Cor( 1s)     1.99989     0.00000
  25    C  3  s      Val( 2s)     0.86005     0.01307
  26    C  3  s      Ryd( 3s)     0.00111     0.00000
  27    C  3  px     Val( 2p)     1.07120     0.05566
  28    C  3  px     Ryd( 3p)     0.00393     0.00024
  29    C  3  py     Val( 2p)     1.07060     0.04179
  30    C  3  py     Ryd( 3p)     0.00445     0.00047
  31    C  3  pz     Val( 2p)     1.13141     0.01029
  32    C  3  pz     Ryd( 3p)     0.00031    -0.00002

  33    C  4  s      Cor( 1s)     1.99982     0.00000
  34    C  4  s      Val( 2s)     0.93990    -0.00133
  35    C  4  s      Ryd( 3s)     0.00129     0.00001
  36    C  4  px     Val( 2p)     1.04619     0.00196
  37    C  4  px     Ryd( 3p)     0.00619     0.00005
  38    C  4  py     Val( 2p)     1.24010    -0.00079
  39    C  4  py     Ryd( 3p)     0.00655     0.00066
  40    C  4  pz     Val( 2p)     0.92908    -0.00918
  41    C  4  pz     Ryd( 3p)     0.00052     0.00001

  42    C  5  s      Cor( 1s)     1.99989     0.00000
  43    C  5  s      Val( 2s)     0.94097     0.00073
  44    C  5  s      Ryd( 3s)     0.00065     0.00000
  45    C  5  px     Val( 2p)     1.04277     0.00180
  46    C  5  px     Ryd( 3p)     0.00750     0.00001
  47    C  5  py     Val( 2p)     1.09689     0.00185
  48    C  5  py     Ryd( 3p)     0.00861     0.00007
  49    C  5  pz     Val( 2p)     1.03954     0.00440
  50    C  5  pz     Ryd( 3p)     0.00104    -0.00001

  51   Br  6  s      Cor( 3s)     2.00000     0.00000
  52   Br  6  s      Cor( 1s)     2.00000     0.00000
  53   Br  6  s      Cor( 2s)     1.99999     0.00000
  54   Br  6  s      Val( 4s)     1.87906    -0.00012
  55   Br  6  s      Ryd( 5s)     0.00299     0.00000
  56   Br  6  px     Cor( 3p)     2.00000     0.00000
  57   Br  6  px     Cor( 2p)     1.99999     0.00000
  58   Br  6  px     Val( 4p)     1.13854     0.00515
  59   Br  6  px     Ryd( 5p)     0.00357     0.00001
  60   Br  6  py     Cor( 3p)     2.00000     0.00000
  61   Br  6  py     Cor( 2p)     1.99999     0.00000
  62   Br  6  py     Val( 4p)     1.88226     0.00030
  63   Br  6  py     Ryd( 5p)     0.00158     0.00000
  64   Br  6  pz     Cor( 3p)     2.00000     0.00000
  65   Br  6  pz     Cor( 2p)     2.00000     0.00000
  66   Br  6  pz     Val( 4p)     1.92776     0.00056
  67   Br  6  pz     Ryd( 5p)     0.00076     0.00000
  68   Br  6  dxy    Cor( 3d)     1.99960     0.00000
  69   Br  6  dxy    Ryd( 4d)     0.00243     0.00001
  70   Br  6  dxz    Cor( 3d)     1.99988     0.00000
  71   Br  6  dxz    Ryd( 4d)     0.00191     0.00000
  72   Br  6  dyz    Cor( 3d)     1.99998     0.00000
  73   Br  6  dyz    Ryd( 4d)     0.00022     0.00000
  74   Br  6  dx2y2  Cor( 3d)     1.99952     0.00000
  75   Br  6  dx2y2  Ryd( 4d)     0.00356    -0.00001
  76   Br  6  dz2    Cor( 3d)     1.99980     0.00000
  77   Br  6  dz2    Ryd( 4d)     0.00163     0.00000

  78    C  7  s      Cor( 1s)     1.99986     0.00000
  79    C  7  s      Val( 2s)     0.95935    -0.00051
  80    C  7  s      Ryd( 3s)     0.00096     0.00001
  81    C  7  px     Val( 2p)     1.16867    -0.00044
  82    C  7  px     Ryd( 3p)     0.00676     0.00002
  83    C  7  py     Val( 2p)     1.13169    -0.00043
  84    C  7  py     Ryd( 3p)     0.00532     0.00001
  85    C  7  pz     Val( 2p)     0.88847    -0.01207
  86    C  7  pz     Ryd( 3p)     0.00025    -0.00001

  87    C  8  s      Cor( 1s)     1.99984     0.00000
  88    C  8  s      Val( 2s)     0.94343     0.00048
  89    C  8  s      Ryd( 3s)     0.00100     0.00000
  90    C  8  px     Val( 2p)     1.06239     0.00145
  91    C  8  px     Ryd( 3p)     0.00548     0.00001
  92    C  8  py     Val( 2p)     1.22442     0.00253
  93    C  8  py     Ryd( 3p)     0.00594     0.00005
  94    C  8  pz     Val( 2p)     0.98614     0.00555
  95    C  8  pz     Ryd( 3p)     0.00027     0.00000

  96    C  9  s      Cor( 1s)     1.99990     0.00000
  97    C  9  s      Val( 2s)     0.85048    -0.00105
  98    C  9  s      Ryd( 3s)     0.00100     0.00000
  99    C  9  px     Val( 2p)     1.09160     0.00104
 100    C  9  px     Ryd( 3p)     0.00480     0.00013
 101    C  9  py     Val( 2p)     1.07430     0.00425
 102    C  9  py     Ryd( 3p)     0.00436     0.00006
 103    C  9  pz     Val( 2p)     0.92694    -0.01156
 104    C  9  pz     Ryd( 3p)     0.00123     0.00000

 105    C 10  s      Cor( 1s)     1.99975     0.00000
 106    C 10  s      Val( 2s)     1.01828    -0.00097
 107    C 10  s      Ryd( 3s)     0.00092     0.00001
 108    C 10  px     Val( 2p)     1.04965    -0.00213
 109    C 10  px     Ryd( 3p)     0.00315     0.00018
 110    C 10  py     Val( 2p)     1.11356     0.00535
 111    C 10  py     Ryd( 3p)     0.00210     0.00007
 112    C 10  pz     Val( 2p)     1.30186    -0.00070
 113    C 10  pz     Ryd( 3p)     0.00271     0.00001

 114    C 11  s      Cor( 1s)     1.99976     0.00000
 115    C 11  s      Val( 2s)     0.93055     0.00491
 116    C 11  s      Ryd( 3s)     0.00177    -0.00007
 117    C 11  px     Val( 2p)     1.01743     0.08446
 118    C 11  px     Ryd( 3p)     0.00308     0.00014
 119    C 11  py     Val( 2p)     1.03152     0.06057
 120    C 11  py     Ryd( 3p)     0.00238     0.00042
 121    C 11  pz     Val( 2p)     1.14089     0.00389
 122    C 11  pz     Ryd( 3p)     0.00152     0.00002

 123    C 12  s      Cor( 1s)     1.99977     0.00000
 124    C 12  s      Val( 2s)     1.04596    -0.00075
 125    C 12  s      Ryd( 3s)     0.00078     0.00009
 126    C 12  px     Val( 2p)     0.97646     0.00996
 127    C 12  px     Ryd( 3p)     0.00171     0.00008
 128    C 12  py     Val( 2p)     1.29363    -0.00019
 129    C 12  py     Ryd( 3p)     0.00372     0.00043
 130    C 12  pz     Val( 2p)     1.12629    -0.00217
 131    C 12  pz     Ryd( 3p)     0.00183     0.00001

 132    C 13  s      Cor( 1s)     1.99978     0.00000
 133    C 13  s      Val( 2s)     1.05148     0.00104
 134    C 13  s      Ryd( 3s)     0.00046     0.00002
 135    C 13  px     Val( 2p)     1.12638     0.01711
 136    C 13  px     Ryd( 3p)     0.00162     0.00008
 137    C 13  py     Val( 2p)     1.30211     0.00000
 138    C 13  py     Ryd( 3p)     0.00354     0.00000
 139    C 13  pz     Val( 2p)     1.00449    -0.00059
 140    C 13  pz     Ryd( 3p)     0.00142     0.00002

 141    C 14  s      Cor( 1s)     1.99977     0.00000
 142    C 14  s      Val( 2s)     1.04596    -0.00075
 143    C 14  s      Ryd( 3s)     0.00078     0.00009
 144    C 14  px     Val( 2p)     0.97645     0.00995
 145    C 14  px     Ryd( 3p)     0.00171     0.00008
 146    C 14  py     Val( 2p)     1.29364    -0.00019
 147    C 14  py     Ryd( 3p)     0.00372     0.00043
 148    C 14  pz     Val( 2p)     1.12628    -0.00218
 149    C 14  pz     Ryd( 3p)     0.00183     0.00001

 150    H 15  s      Val( 1s)     0.70476     0.00279
 151    H 15  s      Ryd( 2s)     0.00139     0.00035

 152    H 16  s      Val( 1s)     0.70427     0.00043
 153    H 16  s      Ryd( 2s)     0.00121     0.00000

 154    H 17  s      Val( 1s)     0.71303     0.00171
 155    H 17  s      Ryd( 2s)     0.00071     0.00001

 156    H 18  s      Val( 1s)     0.69529     0.00232
 157    H 18  s      Ryd( 2s)     0.00097     0.00001

 158    H 19  s      Val( 1s)     0.69528     0.00233
 159    H 19  s      Ryd( 2s)     0.00097     0.00001

 160    H 20  s      Val( 1s)     0.71564     0.00108
 161    H 20  s      Ryd( 2s)     0.00102     0.00001

 162    H 21  s      Val( 1s)     0.71806     0.00454
 163    H 21  s      Ryd( 2s)     0.00160     0.00036

[...]
   55. BD ( 1) C 12- C 13      67. BD*( 1) C  2- C 11      1.33    1.01   0.046
   55. BD ( 1) C 12- C 13      88. BD*( 1) C 12- H 20      0.36    1.17   0.026
   55. BD ( 1) C 12- C 13      89. BD*( 1) C 12- H 21      0.36    1.16   0.026
   55. BD ( 1) C 12- C 13      91. BD*( 1) C 13- H 22      0.32    1.19   0.025
   55. BD ( 1) C 12- C 13      93. BD*( 1) C 14- H 24      0.92    1.17   0.041
   56. BD ( 1) C 12- H 20      67. BD*( 1) C  2- C 11      0.35    0.98   0.023
   56. BD ( 1) C 12- H 20      82. BD*( 1) C 10- C 11      0.34    1.01   0.023
   56. BD ( 1) C 12- H 20      89. BD*( 1) C 12- H 21      0.26    1.13   0.021
   56. BD ( 1) C 12- H 20     145. RY ( 1) C 11            0.38    1.95   0.034
   56. BD ( 1) C 12- H 20     153. RY ( 1) C 13            0.34    1.79   0.031
   57. BD ( 1) C 12- H 21      67. BD*( 1) C  2- C 11      0.65    0.98   0.032
   57. BD ( 1) C 12- H 21      82. BD*( 1) C 10- C 11      0.88    1.01   0.038
   57. BD ( 1) C 12- H 21      87. BD*( 1) C 12- C 13      0.26    1.01   0.021
   57. BD ( 1) C 12- H 21      91. BD*( 1) C 13- H 22      0.27    1.16   0.022
   57. BD ( 1) C 12- H 21      92. BD*( 1) C 13- H 23      0.60    1.15   0.033
   57. BD ( 1) C 12- H 21     153. RY ( 1) C 13            0.43    1.79   0.035
   58. BD ( 1) C 13- C 14      67. BD*( 1) C  2- C 11      1.33    1.01   0.046
   58. BD ( 1) C 13- C 14      88. BD*( 1) C 12- H 20      0.92    1.17   0.041
   58. BD ( 1) C 13- C 14      91. BD*( 1) C 13- H 22      0.32    1.19   0.025
   58. BD ( 1) C 13- C 14      93. BD*( 1) C 14- H 24      0.36    1.17   0.026
   58. BD ( 1) C 13- C 14      94. BD*( 1) C 14- H 25      0.36    1.16   0.026
   59. BD ( 1) C 13- H 22      89. BD*( 1) C 12- H 21      0.30    1.10   0.023
   59. BD ( 1) C 13- H 22      94. BD*( 1) C 14- H 25      0.30    1.10   0.023
   60. BD ( 1) C 13- H 23      88. BD*( 1) C 12- H 20      0.28    1.11   0.022
   60. BD ( 1) C 13- H 23      89. BD*( 1) C 12- H 21      0.65    1.10   0.034
   60. BD ( 1) C 13- H 23      93. BD*( 1) C 14- H 24      0.28    1.11   0.022
   60. BD ( 1) C 13- H 23      94. BD*( 1) C 14- H 25      0.65    1.10   0.034
   60. BD ( 1) C 13- H 23     149. RY ( 1) C 12            0.39    1.75   0.033
   60. BD ( 1) C 13- H 23     157. RY ( 1) C 14            0.39    1.75   0.033
   61. BD ( 1) C 14- H 24      67. BD*( 1) C  2- C 11      0.35    0.98   0.023
   61. BD ( 1) C 14- H 24      82. BD*( 1) C 10- C 11      0.34    1.01   0.023
   61. BD ( 1) C 14- H 24      94. BD*( 1) C 14- H 25      0.26    1.13   0.021
   61. BD ( 1) C 14- H 24     145. RY ( 1) C 11            0.38    1.95   0.034
   61. BD ( 1) C 14- H 24     153. RY ( 1) C 13            0.34    1.79   0.031
   62. BD ( 1) C 14- H 25      67. BD*( 1) C  2- C 11      0.65    0.98   0.032
   62. BD ( 1) C 14- H 25      82. BD*( 1) C 10- C 11      0.88    1.01   0.038
   62. BD ( 1) C 14- H 25      90. BD*( 1) C 13- C 14      0.26    1.01   0.021
   62. BD ( 1) C 14- H 25      91. BD*( 1) C 13- H 22      0.27    1.16   0.022
   62. BD ( 1) C 14- H 25      92. BD*( 1) C 13- H 23      0.60    1.15   0.033
   62. BD ( 1) C 14- H 25     153. RY ( 1) C 13            0.43    1.79   0.035


 NATURAL BOND ORBITALS (Summary):

                                                     Principal Delocalizations
           NBO                 Occupancy    Energy   (geminal,vicinal,remote)
 ===============================================================================
 Molecular unit  1  (C12H11OBr)
 ------ Lewis --------------------------------------
    1. CR ( 1) O  1             0.99995   -19.44828  95(g)
    2. CR ( 1) C  2             0.99993   -10.56453
    3. CR ( 1) C  3             0.99994   -10.44885
    4. CR ( 1) C  4             0.99991   -10.42312
    5. CR ( 1) C  5             0.99994   -10.44848
    6. CR ( 1)Br  6             1.00000   -19.06851
    7. CR ( 2)Br  6             1.00000  -452.78114
    8. CR ( 3)Br  6             1.00000   -80.14963
    9. CR ( 4)Br  6             1.00000    -7.38206
   10. CR ( 5)Br  6             0.99999   -55.71553
   11. CR ( 6)Br  6             1.00000    -7.36902
   12. CR ( 7)Br  6             1.00000   -55.71228
   13. CR ( 8)Br  6             1.00000    -7.36772
   14. CR ( 9)Br  6             1.00000   -55.71192
   15. CR (10)Br  6             0.99980    -2.89943
   16. CR (11)Br  6             0.99994    -2.89840
   17. CR (12)Br  6             0.99999    -2.88817
   18. CR (13)Br  6             0.99976    -2.89948  122(g)
   19. CR (14)Br  6             0.99990    -2.89130
   20. CR ( 1) C  7             0.99993   -10.41272
   21. CR ( 1) C  8             0.99992   -10.40534
   22. CR ( 1) C  9             0.99995   -10.43642
   23. CR ( 1) C 10             0.99988   -10.41323  144(g)
   24. CR ( 1) C 11             0.99988   -10.46058
   25. CR ( 1) C 12             0.99988   -10.39901  151(g)
   26. CR ( 1) C 13             0.99989   -10.37641  155(g)
   27. CR ( 1) C 14             0.99988   -10.39901  159(g)
   28. LP ( 1) O  1             0.99053    -0.89765  104(v),66(v),67(v)
   29. LP ( 1)Br  6             0.99831    -0.88182  117(v)
   30. LP ( 2)Br  6             0.98676    -0.48557  71(v),75(v),116(v)
   31. LP ( 3)Br  6             0.96427    -0.47618  72(v)
   32. BD ( 1) O  1- C  2       0.99866    -1.29237  66(g),67(g)
   33. BD ( 2) O  1- C  2       0.99482    -0.71848  70(v),85(v),86(v)
   34. BD ( 1) C  2- C  3       0.90642    -0.86908  63(v),67(g),68(g),79(v)
                                                     137(v),112(v),145(v),69(g)
                                                     95(v),66(g),82(v),71(v)
                                                     113(v)
   35. BD ( 1) C  2- C 11       0.86499    -0.82907  63(v),68(v),67(g),97(v)
                                                     66(g),109(v),141(v),69(v)
                                                     108(v),150(v),158(v),81(v)
   36. BD ( 1) C  3- C  4       0.98153    -0.88227  69(g),66(g),74(v),71(g)
                                                     116(v),73(g),104(v),137(v)
                                                     81(v),117(v),63(r)
   37. BD ( 1) C  3- C  9       0.97639    -0.87150  68(g),79(g),64(v),113(v)
                                                     63(r),81(g),66(g),80(v)
                                                     105(v),73(v),134(v),82(v)
                                                     133(v),143(v)
   38. BD ( 2) C  3- C  9       0.81112    -0.49264  65(v),72(v),77(v),83(v)
                                                     84(v),115(v),136(v)
   39. BD ( 1) C  4- C  5       0.98427    -0.88481  66(v),75(g),68(g),73(g)
                                                     108(v),78(v),129(v),130(v)
                                                     109(v)
   40. BD ( 2) C  4- C  5       0.83238    -0.48834  77(v),70(v),120(v),132(v)
   41. BD ( 1) C  4- H 15       0.98866    -0.74395  69(v),75(v),117(v),71(g)
                                                     108(v),74(v),68(g),66(v)
                                                     109(v)
   42. BD ( 1) C  5-Br  6       0.99092    -0.75857  68(v),129(v),76(v),112(v)
   43. BD ( 1) C  5- C  7       0.99081    -0.88228  71(g),76(g),78(g),134(v)
                                                     73(v),112(v),80(v),133(v)
   44. BD ( 1) C  7- C  8       0.98737    -0.86116  81(v),74(v),79(g),138(v)
                                                     75(g),116(v),80(g),78(g)
                                                     117(v)
   45. BD ( 2) C  7- C  8       0.80832    -0.46832  70(v),72(v),65(r)
   46. BD ( 1) C  7- H 16       0.99020    -0.72991  71(v),79(v),117(v),133(v)
                                                     76(g),75(g),74(v)
   47. BD ( 1) C  8- C  9       0.98413    -0.87133  69(g),81(g),76(g),130(v)
                                                     66(v),80(g),109(v),78(v)
                                                     143(v),129(v)
   48. BD ( 1) C  8- H 17       0.98872    -0.73082  69(v),75(v),137(v),129(v)
                                                     79(g),76(g),81(v)
   49. BD ( 1) C  9- C 10       0.98708    -0.81242  79(g),68(v),133(v),69(g)
                                                     67(v),108(v),76(v),83(g)
                                                     84(g),66(v),82(g),146(v)
                                                     85(v),86(v)
   50. BD ( 1) C 10- C 11       0.98016    -0.80243  64(v),79(v),63(r),149(v)
                                                     157(v),85(g),86(g),81(g)
                                                     138(v),83(g),84(g),69(v)
                                                     107(v),66(v)
   51. BD ( 1) C 10- H 18       0.98200    -0.72498  70(v),67(v),85(v),86(v)
                                                     69(v),139(v),81(g),82(g)
   52. BD ( 1) C 10- H 19       0.98199    -0.72498  70(v),67(v),86(v),85(v)
                                                     69(v),139(v),81(g),82(g)
   53. BD ( 1) C 11- C 12       0.96430    -0.77237  65(v),63(r),82(g),93(v)
                                                     91(v),86(g),104(v),142(v)
                                                     67(g),106(v),141(v),83(v)
   54. BD ( 1) C 11- C 14       0.96431    -0.77237  65(v),63(r),82(g),88(v)
                                                     91(v),85(g),104(v),142(v)
                                                     67(g),106(v),141(v),84(v)
   55. BD ( 1) C 12- C 13       0.98207    -0.75098  67(v),93(v),89(g),88(g)
                                                     91(g)
   56. BD ( 1) C 12- H 20       0.99219    -0.71985  145(v),67(v),153(v),82(v)
                                                     89(g)
   57. BD ( 1) C 12- H 21       0.99003    -0.71989  82(v),67(v),92(v),153(v)
                                                     91(v),87(g)
   58. BD ( 1) C 13- C 14       0.98206    -0.75097  67(v),88(v),94(g),93(g)
                                                     91(g)
   59. BD ( 1) C 13- H 22       0.99081    -0.69932  89(v),94(v)
   60. BD ( 1) C 13- H 23       0.99108    -0.69860  89(v),94(v),149(v),157(v)
                                                     88(v),93(v)
   61. BD ( 1) C 14- H 24       0.99219    -0.71985  145(v),67(v),153(v),82(v)
                                                     94(g)
   62. BD ( 1) C 14- H 25       0.99003    -0.71989  82(v),67(v),92(v),153(v)
                                                     91(v),90(g)
 ------ non-Lewis ----------------------------------
   63. LV ( 1) O  1             0.30783    -0.38666
   64. BD*( 1) O  1- C  2       0.00543     0.44422
   65. BD*( 2) O  1- C  2       0.12346    -0.17003
   66. BD*( 1) C  2- C  3       0.01775     0.33451
   67. BD*( 1) C  2- C 11       0.02649     0.25881
   68. BD*( 1) C  3- C  4       0.01135     0.50386
   69. BD*( 1) C  3- C  9       0.01404     0.48010
   70. BD*( 2) C  3- C  9       0.21869    -0.11758
   71. BD*( 1) C  4- C  5       0.01064     0.50550
   72. BD*( 2) C  4- C  5       0.15432    -0.09820
   73. BD*( 1) C  4- H 15       0.00520     0.43602
   74. BD*( 1) C  5-Br  6       0.01046     0.04263
   75. BD*( 1) C  5- C  7       0.01076     0.49927
   76. BD*( 1) C  7- C  8       0.00755     0.52046
   77. BD*( 2) C  7- C  8       0.13230    -0.07882
   78. BD*( 1) C  7- H 16       0.00516     0.45280
   79. BD*( 1) C  8- C  9       0.01037     0.52422
   80. BD*( 1) C  8- H 17       0.00533     0.44593
   81. BD*( 1) C  9- C 10       0.00832     0.34581
   82. BD*( 1) C 10- C 11       0.01017     0.28665
   83. BD*( 1) C 10- H 18       0.00532     0.38433
   84. BD*( 1) C 10- H 19       0.00532     0.38433
   85. BD*( 1) C 11- C 12       0.00655     0.25662
   86. BD*( 1) C 11- C 14       0.00655     0.25661
   87. BD*( 1) C 12- C 13       0.00154     0.29504
   88. BD*( 1) C 12- H 20       0.00490     0.41557
   89. BD*( 1) C 12- H 21       0.00389     0.40534
   90. BD*( 1) C 13- C 14       0.00154     0.29504
   91. BD*( 1) C 13- H 22       0.00429     0.44135
   92. BD*( 1) C 13- H 23       0.00402     0.42979
   93. BD*( 1) C 14- H 24       0.00490     0.41557
   94. BD*( 1) C 14- H 25       0.00389     0.40535
   95. RY ( 1) O  1             0.00029     1.75787
   96. RY ( 2) O  1             0.00021     1.42675
   97. RY ( 3) O  1             0.00020     1.57846
   98. RY ( 4) O  1             0.00003     2.31407
   99. RY ( 5) O  1             0.00002     1.96637
  100. RY ( 6) O  1             0.00001     1.68650
  101. RY ( 7) O  1             0.00001     1.59145
  102. RY ( 8) O  1             0.00000     1.64159
  103. RY ( 9) O  1             0.00000     1.66643
  104. RY ( 1) C  2             0.00896     0.77584
  105. RY ( 2) C  2             0.00160     1.01721
  106. RY ( 3) C  2             0.00071     0.73188
  107. RY ( 4) C  2             0.00066     0.73095
  108. RY ( 1) C  3             0.00217     1.28439
  109. RY ( 2) C  3             0.00149     1.29359
  110. RY ( 3) C  3             0.00049     0.57129
  111. RY ( 4) C  3             0.00017     0.82259
  112. RY ( 1) C  4             0.00251     1.11742
  113. RY ( 2) C  4             0.00195     0.89934
  114. RY ( 3) C  4             0.00031     0.57018
  115. RY ( 4) C  4             0.00024     0.76897
  116. RY ( 1) C  5             0.00367     0.95133
  117. RY ( 2) C  5             0.00267     1.21748
  118. RY ( 3) C  5             0.00053     0.79909
  119. RY ( 4) C  5             0.00017     0.57410
  120. RY ( 1)Br  6             0.00076     0.55670
  121. RY ( 2)Br  6             0.00042     0.62713
  122. RY ( 3)Br  6             0.00031     1.01428
  123. RY ( 4)Br  6             0.00009     0.68526
  124. RY ( 5)Br  6             0.00005     0.80617
  125. RY ( 6)Br  6             0.00001     0.61491
  126. RY ( 7)Br  6             0.00001     0.56388
  127. RY ( 8)Br  6             0.00001     0.55477
  128. RY ( 9)Br  6             0.00001     0.60272
  129. RY ( 1) C  7             0.00280     1.20637
  130. RY ( 2) C  7             0.00171     0.87510
  131. RY ( 3) C  7             0.00022     0.58660
  132. RY ( 4) C  7             0.00011     0.77901
  133. RY ( 1) C  8             0.00244     1.25128
  134. RY ( 2) C  8             0.00184     0.83644
  135. RY ( 3) C  8             0.00021     0.59438
  136. RY ( 4) C  8             0.00010     0.78431
  137. RY ( 1) C  9             0.00197     1.38522
  138. RY ( 2) C  9             0.00172     1.09610
  139. RY ( 3) C  9             0.00061     0.83273
  140. RY ( 4) C  9             0.00033     0.61855
  141. RY ( 1) C 10             0.00114     0.80412
  142. RY ( 2) C 10             0.00098     0.97025
  143. RY ( 3) C 10             0.00090     0.81838
  144. RY ( 4) C 10             0.00031     1.08692
  145. RY ( 1) C 11             0.00125     1.22802
  146. RY ( 2) C 11             0.00080     1.19606
  147. RY ( 3) C 11             0.00056     0.98175
  148. RY ( 4) C 11             0.00054     1.28031
  149. RY ( 1) C 12             0.00136     1.04831
  150. RY ( 2) C 12             0.00049     0.82181
  151. RY ( 3) C 12             0.00029     1.04517
  152. RY ( 4) C 12             0.00009     0.78859
  153. RY ( 1) C 13             0.00137     1.06782
  154. RY ( 2) C 13             0.00048     0.84833
  155. RY ( 3) C 13             0.00016     1.03522
  156. RY ( 4) C 13             0.00008     0.78679
  157. RY ( 1) C 14             0.00136     1.04832
  158. RY ( 2) C 14             0.00049     0.82177
  159. RY ( 3) C 14             0.00029     1.04520
  160. RY ( 4) C 14             0.00009     0.78859
  161. RY ( 1) H 15             0.00052     0.46607
  162. RY ( 1) H 16             0.00060     0.47529
  163. RY ( 1) H 17             0.00035     0.47222
  164. RY ( 1) H 18             0.00048     0.48683
  165. RY ( 1) H 19             0.00048     0.48683
  166. RY ( 1) H 20             0.00051     0.48416
  167. RY ( 1) H 21             0.00062     0.48149
  168. RY ( 1) H 22             0.00043     0.47652
  169. RY ( 1) H 23             0.00052     0.48334
  170. RY ( 1) H 24             0.00051     0.48416
  171. RY ( 1) H 25             0.00062     0.48149
          -------------------------------
                 Total Lewis   60.78815  ( 98.0454%)
           Valence non-Lewis    1.14836  (  1.8522%)
           Rydberg non-Lewis    0.06349  (  0.1024%)
          -------------------------------
               Total unit  1   62.00000  (100.0000%)
              Charge unit  1    1.00000

 $CHOOSE
  ALPHA
   LONE 1 2 6 3 END
   BOND D 1 2 S 2 3 S 2 11 S 3 4 D 3 9 D 4 5 S 4 15 S 5 6 S 5 7 D 7 8 S 7 16
        S 8 9 S 8 17 S 9 10 S 10 11 S 10 18 S 10 19 S 11 12 S 11 14 S 12 13
        S 12 20 S 12 21 S 13 14 S 13 22 S 13 23 S 14 24 S 14 25 END
  END
  BETA
   LONE 1 1 6 3 END
   BOND D 1 2 S 2 3 S 2 11 S 3 4 D 3 9 D 4 5 S 4 15 S 5 6 S 5 7 D 7 8 S 7 16
        S 8 9 S 8 17 S 9 10 S 10 11 S 10 18 S 10 19 S 11 12 S 11 14 S 12 13
        S 12 20 S 12 21 S 13 14 S 13 22 S 13 23 S 14 24 S 14 25 END
  END
 $END

 NBO analysis completed in 0.93 CPU seconds (1 wall second)
 Maximum scratch memory used by NBO was 715453 words (5.46 MB)
 Maximum scratch memory used by G16NBO was 67841 words (0.52 MB)

 Opening RunExU unformatted file "/home/rpaton/arbr500/xtb/fukui/Gau-2144820.EUF"
 Read unf file /home/rpaton/arbr500/xtb/fukui/Gau-2144820.EUF:
 Label Gaussian matrix elements                                         IVers= 2 NLab= 2 Version=ES64L-G16RevC.01
 Title energy: -39.449151330410 gnorm: 0.000222488892 xtb: 6.7.0 (08769
 NAtoms=    25 NBasis=   171 NBsUse=   171 ICharg=     1 Multip=     2 NE=   125 Len12L=8 Len4L=8 IOpCl= 1 ICGU=112
 GAUSSIAN SCALARS                    NI= 1 NR= 1 NTot=       1 LenBuf=    2 NRI=1 N=    1000
 NPA CHARGES                         NI= 0 NR= 1 NTot=      25 LenBuf= 2048 NRI=1 N=      25
 Recovered energy= -3097.51485432     dipole=     -2.908448487900      0.593017914257     -0.000026817387
 Unable to Open any file for archive entry.
 1\1\GINC-DYNAMO\SP\UwB97XD\MIDIx\C12H11Br1O1(1+,2)\RPATON\28-Sep-2024\
 0\\# wb97xd midix pop(nbo6,hirshfeld)\\energy: -39.449151330410 gnorm:
  0.000222488892 xtb: 6.7.0 (08769fc)\\1,2\O,0,1.80646,-2.16681,0.00003
 \C,0,1.66232,-0.96881,0.00009\C,0,0.39264,-0.22246,0.\C,0,-0.8986,-0.7
 2816,-0.00005\C,0,-1.93697,0.18521,-0.00003\Br,0,-3.73627,-0.44384,0.0
 0002\C,0,-1.70685,1.55551,-0.00001\C,0,-0.41025,2.04486,0.00001\C,0,0.
 64429,1.1496,0.00002\C,0,2.11396,1.4321,0.\C,0,2.78652,0.05376,-0.0000
 1\C,0,3.87342,-0.187,1.07518\C,0,4.96299,-0.10283,-0.00001\C,0,3.87342
 ,-0.18698,-1.07521\H,0,-1.07281,-1.79289,0.\H,0,-2.54476,2.23601,-0.00
 002\H,0,-0.2359,3.11032,-0.00002\H,0,2.39247,2.01675,0.87982\H,0,2.392
 46,2.01675,-0.87982\H,0,3.91588,0.55249,1.87236\H,0,3.78647,-1.18128,1
 .50926\H,0,5.69426,-0.90681,0.\H,0,5.48406,0.85231,0.\H,0,3.91588,0.55
 251,-1.87239\H,0,3.78648,-1.18126,-1.50928\\Version=ES64L-G16RevC.01\S
 tate=2-A\HF=-3097.5148543\S2=0.757182\S2-1=0.\S2A=0.750039\RMSD=8.079e
 -09\Dipole=2.9027337,0.6203871,0.0000268\Quadrupole=17.4933902,-3.2450
 376,-14.2483526,-0.9135404,0.0000015,-0.0003774\PG=C01 [X(C12H11Br1O1)
 ]\\@
 The archive entry for this job was punched.


 The juvenile sea squirt wanders through the sea searching
 for a suitable rock or hunk of coral to cling to and make
 its home for life.  For this task it has a rudimentary
 nervous system.  When it finds its spot and takes root, it
 doesn't need its brain any more so it eats it.
 It's rather like getting tenure.

                               -- source unknown
 Job cpu time:       0 days  0 hours 11 minutes 17.9 seconds.
 Elapsed time:       0 days  0 hours  0 minutes 28.5 seconds.
 File lengths (MBytes):  RWF=     33 Int=      0 D2E=      0 Chk=      3 Scr=      1
 Normal termination of Gaussian 16 at Sat Sep 28 19:23:51 2024.
