 Entering Gaussian System, Link 0=/usr/local/Gaussian/G16C/g16/g16
 Input=arbr48_xtbopt_red.com
 Output=arbr48_xtbopt_red.log
 Initial command:
 /usr/local/Gaussian/G16C/g16/l1.exe "/home/rpaton/arbr500/xtb/fukui/Gau-2163767.inp" -scrdir="/home/rpaton/arbr500/xtb/fukui/"
 Entering Link 1 = /usr/local/Gaussian/G16C/g16/l1.exe PID=   2163768.
  
 Copyright (c) 1988-2019, Gaussian, Inc.  All Rights Reserved.
  
 This is part of the Gaussian(R) 16 program.  It is based on
 the Gaussian(R) 09 system (copyright 2009, Gaussian, Inc.),
 the Gaussian(R) 03 system (copyright 2003, Gaussian, Inc.),
 the Gaussian(R) 98 system (copyright 1998, Gaussian, Inc.),
 the Gaussian(R) 94 system (copyright 1995, Gaussian, Inc.),
 the Gaussian 92(TM) system (copyright 1992, Gaussian, Inc.),
 the Gaussian 90(TM) system (copyright 1990, Gaussian, Inc.),
 the Gaussian 88(TM) system (copyright 1988, Gaussian, Inc.),
 the Gaussian 86(TM) system (copyright 1986, Carnegie Mellon
 University), and the Gaussian 82(TM) system (copyright 1983,
 Carnegie Mellon University). Gaussian is a federally registered
 trademark of Gaussian, Inc.
  
 This software contains proprietary and confidential information,
 including trade secrets, belonging to Gaussian, Inc.
  
 This software is provided under written license and may be
 used, copied, transmitted, or stored only in accord with that
 written license.
  
 The following legend is applicable only to US Government
 contracts under FAR:
  
                    RESTRICTED RIGHTS LEGEND
  
 Use, reproduction and disclosure by the US Government is
 subject to restrictions as set forth in subparagraphs (a)
 and (c) of the Commercial Computer Software - Restricted
 Rights clause in FAR 52.227-19.
  
 Gaussian, Inc.
 340 Quinnipiac St., Bldg. 40, Wallingford CT 06492
  
  
 ---------------------------------------------------------------
 Warning -- This program may not be used in any manner that
 competes with the business of Gaussian, Inc. or will provide
 assistance to any competitor of Gaussian, Inc.  The licensee
 of this program is prohibited from giving any competitor of
 Gaussian, Inc. access to this program.  By using this program,
 the user acknowledges that Gaussian, Inc. is engaged in the
 business of creating and licensing software in the field of
 computational chemistry and represents and warrants to the
 licensee that it is not a competitor of Gaussian, Inc. and that
 it will not use this program in any manner prohibited above.
 ---------------------------------------------------------------
  

 Cite this work as:
 Gaussian 16, Revision C.01,
 M. J. Frisch, G. W. Trucks, H. B. Schlegel, G. E. Scuseria, 
 M. A. Robb, J. R. Cheeseman, G. Scalmani, V. Barone, 
 G. A. Petersson, H. Nakatsuji, X. Li, M. Caricato, A. V. Marenich, 
 J. Bloino, B. G. Janesko, R. Gomperts, B. Mennucci, H. P. Hratchian, 
 J. V. Ortiz, A. F. Izmaylov, J. L. Sonnenberg, D. Williams-Young, 
 F. Ding, F. Lipparini, F. Egidi, J. Goings, B. Peng, A. Petrone, 
 T. Henderson, D. Ranasinghe, V. G. Zakrzewski, J. Gao, N. Rega, 
 G. Zheng, W. Liang, M. Hada, M. Ehara, K. Toyota, R. Fukuda, 
 J. Hasegawa, M. Ishida, T. Nakajima, Y. Honda, O. Kitao, H. Nakai, 
 T. Vreven, K. Throssell, J. A. Montgomery, Jr., J. E. Peralta, 
 F. Ogliaro, M. J. Bearpark, J. J. Heyd, E. N. Brothers, K. N. Kudin, 
 V. N. Staroverov, T. A. Keith, R. Kobayashi, J. Normand, 
 K. Raghavachari, A. P. Rendell, J. C. Burant, S. S. Iyengar, 
 J. Tomasi, M. Cossi, J. M. Millam, M. Klene, C. Adamo, R. Cammi, 
 J. W. Ochterski, R. L. Martin, K. Morokuma, O. Farkas, 
 J. B. Foresman, and D. J. Fox, Gaussian, Inc., Wallingford CT, 2019.
 
 ******************************************
 Gaussian 16:  ES64L-G16RevC.01  3-Jul-2019
                28-Sep-2024 
 ******************************************
 %nprocshared=24
 Will use up to   24 processors via shared memory.
 ----------------------------------
 # wb97xd midix pop(nbo6,hirshfeld)
 ----------------------------------
 1/38=1,172=1/1;
 2/12=2,17=6,18=5,40=1/2;
 3/5=20,11=2,25=1,30=1,74=-58/1,2,3;
 4//1;
 5/5=2,38=5/2;
 6/7=2,8=2,9=2,10=2,28=1,40=1,79=1,113=1,114=1,124=3103,126=1/1,12;
 99/5=1,9=1/99;
 -------------------------------------------------------------------
 energy: -32.159136574353 gnorm: 0.000850729375 xtb: 6.7.0 (08769fc)
 -------------------------------------------------------------------
 Symbolic Z-matrix:
 Charge = -1 Multiplicity = 2
 Br                    3.49952  -0.89335   0.00664 
 C                     1.8195    0.00208  -0.00085 
 C                     0.65976  -0.75455  -0.00012 
 C                    -0.57029  -0.11604  -0.00167 
 I                    -2.37275  -1.20212  -0.00201 
 C                    -0.61067   1.26535  -0.00373 
 C                     0.56934   2.01229  -0.0073 
 C                     1.79733   1.39259  -0.00607 
 C                     0.19051   3.4642   -0.02291 
 C                    -1.34975   3.39203   0.03979 
 O                    -1.72691   2.01413  -0.00429 
 H                     0.71393  -1.83172   0.00285 
 H                     2.71421   1.96007  -0.00857 
 H                     0.60931   4.00205   0.82808 
 H                     0.53844   3.95082  -0.93587 
 H                    -1.82941   3.89524  -0.80361 
 H                    -1.74362   3.81459   0.96951 
 
                          Input orientation:                          
 ---------------------------------------------------------------------
 Center     Atomic      Atomic             Coordinates (Angstroms)
 Number     Number       Type             X           Y           Z
 ---------------------------------------------------------------------
      1         35           0        3.499520   -0.893350    0.006640
      2          6           0        1.819500    0.002080   -0.000850
      3          6           0        0.659760   -0.754550   -0.000120
      4          6           0       -0.570290   -0.116040   -0.001670
      5         53           0       -2.372750   -1.202120   -0.002010
      6          6           0       -0.610670    1.265350   -0.003730
      7          6           0        0.569340    2.012290   -0.007300
      8          6           0        1.797330    1.392590   -0.006070
      9          6           0        0.190510    3.464200   -0.022910
     10          6           0       -1.349750    3.392030    0.039790
     11          8           0       -1.726910    2.014130   -0.004290
     12          1           0        0.713930   -1.831720    0.002850
     13          1           0        2.714210    1.960070   -0.008570
     14          1           0        0.609310    4.002050    0.828080
     15          1           0        0.538440    3.950820   -0.935870
     16          1           0       -1.829410    3.895240   -0.803610
     17          1           0       -1.743620    3.814590    0.969510
 ---------------------------------------------------------------------
                    Distance matrix (angstroms):
                    1          2          3          4          5
     1  Br   0.000000
     2  C    1.903764   0.000000
     3  C    2.843158   1.384733   0.000000
     4  C    4.143384   2.392708   1.385901   0.000000
     5  I    5.880388   4.361772   3.065361   2.104384   0.000000
     6  C    4.642602   2.738902   2.386211   1.381982   3.032052
     7  C    4.126608   2.367253   2.768326   2.414245   4.357563
     8  C    2.850111   1.390697   2.429879   2.807420   4.911426
     9  C    5.471623   3.826274   4.244828   3.660244   5.324029
    10  C    6.471553   4.640857   4.608020   3.593860   4.706856
    11  O    5.980730   4.077423   3.655380   2.423923   3.280454
    12  H    2.939399   2.141290   1.078535   2.143082   3.150240
    13  H    2.959552   2.152740   3.404409   3.885643   5.989712
    14  H    5.743955   4.260451   4.828427   4.363325   6.055173
    15  H    5.755198   4.255341   4.799047   4.317564   5.991654
    16  H    7.210034   5.395893   5.334989   4.280054   5.188532
    17  H    7.112126   5.307792   5.252948   4.215418   5.148498
                    6          7          8          9         10
     6  C    0.000000
     7  C    1.396551   0.000000
     8  C    2.411361   1.375496   0.000000
     9  C    2.340342   1.500599   2.621778   0.000000
    10  C    2.251866   2.364066   3.728804   1.543224   0.000000
    11  O    1.344122   2.296253   3.578629   2.404069   1.429266
    12  H    3.368449   3.846742   3.401472   5.321785   5.616734
    13  H    3.396688   2.145506   1.078290   2.937971   4.309132
    14  H    3.109628   2.158380   2.986047   1.090349   2.198054
    15  H    3.066119   2.149673   2.998979   1.091490   2.197594
    16  H    3.006901   3.151763   4.478010   2.208023   1.092986
    17  H    2.954555   3.090668   4.399564   2.201938   1.094564
                   11         12         13         14         15
    11  O    0.000000
    12  H    4.555032   0.000000
    13  H    4.441451   4.287064   0.000000
    14  H    3.178457   5.892777   3.049634   0.000000
    15  H    3.122566   5.860867   3.091431   1.766116   0.000000
    16  H    2.046459   6.317992   5.002145   2.936184   2.372192
    17  H    2.047003   6.233362   4.926270   2.364619   2.976043
                   16         17
    16  H    0.000000
    17  H    1.777025   0.000000
 Stoichiometry    C8H6BrIO(1-,2)
 Framework group  C1[X(C8H6BrIO)]
 Deg. of freedom    45
 Full point group                 C1      NOp   1
 Largest Abelian subgroup         C1      NOp   1
 Largest concise Abelian subgroup C1      NOp   1
                         Standard orientation:                         
 ---------------------------------------------------------------------
 Center     Atomic      Atomic             Coordinates (Angstroms)
 Number     Number       Type             X           Y           Z
 ---------------------------------------------------------------------
      1         35           0        3.506710   -0.898446    0.004264
      2          6           0        1.826503   -0.003362   -0.002707
      3          6           0        0.666919   -0.760229   -0.000984
      4          6           0       -0.563262   -0.121971   -0.002146
      5         53           0       -2.365500   -1.208419   -0.000984
      6          6           0       -0.603926    1.259410   -0.004822
      7          6           0        0.575929    2.006589   -0.009392
      8          6           0        1.804046    1.387141   -0.008558
      9          6           0        0.196794    3.458414   -0.025463
     10          6           0       -1.343417    3.385959    0.038125
     11          8           0       -1.720319    2.007962   -0.005109
     12          1           0        0.721311   -1.837386    0.002454
     13          1           0        2.720809    1.954807   -0.011829
     14          1           0        0.615956    3.996743    0.825046
     15          1           0        0.544117    3.944683   -0.938841
     16          1           0       -1.823648    3.888681   -0.805241
     17          1           0       -1.736857    3.808868    0.967868
 ---------------------------------------------------------------------
 Rotational constants (GHZ):           0.6686337           0.2710174           0.1933220
 Standard basis: MIDIx (5D, 7F)
 There are   167 symmetry adapted cartesian basis functions of A   symmetry.
 There are   161 symmetry adapted basis functions of A   symmetry.
   161 basis functions,   315 primitive gaussians,   167 cartesian basis functions
    76 alpha electrons       75 beta electrons
       nuclear repulsion energy      1338.4721735521 Hartrees.
 NAtoms=   17 NActive=   17 NUniq=   17 SFac= 1.00D+00 NAtFMM=   60 NAOKFM=F Big=F
 Integral buffers will be    131072 words long.
 Raffenetti 2 integral format.
 Two-electron integral symmetry is turned on.
 Nuclear repulsion after empirical dispersion term =     1338.4615001820 Hartrees.
 One-electron integrals computed using PRISM.
 NBasis=   161 RedAO= T EigKep=  1.05D-03  NBF=   161
 NBsUse=   161 1.00D-06 EigRej= -1.00D+00 NBFU=   161
 Defaulting to unpruned grid for atomic number  53.
 ExpMin= 1.15D-01 ExpMax= 1.44D+04 ExpMxC= 1.44D+04 IAcc=3 IRadAn=         5 AccDes= 0.00D+00
 Harris functional with IExCor= 4639 and IRadAn=       5 diagonalized for initial guess.
 HarFok:  IExCor= 4639 AccDes= 0.00D+00 IRadAn=         5 IDoV= 1 UseB2=F ITyADJ=14
 ICtDFT=  3500011 ScaDFX=  1.000000  1.000000  1.000000  1.000000
 Defaulting to unpruned grid for atomic number  53.
 FoFCou: FMM=F IPFlag=           0 FMFlag=      100000 FMFlg1=           0
         NFxFlg=           0 DoJE=T BraDBF=F KetDBF=T FulRan=T
         wScrn=  0.000000 ICntrl=       500 IOpCl=  0 I1Cent=   200000004 NGrid=           0
         NMat0=    1 NMatS0=      1 NMatT0=    0 NMatD0=    1 NMtDS0=    0 NMtDT0=    0
 Petite list used in FoFCou.
 Initial guess <Sx>= 0.0000 <Sy>= 0.0000 <Sz>= 0.5000 <S**2>= 0.7500 S= 0.5000
 Requested convergence on RMS density matrix=1.00D-08 within 128 cycles.
 Requested convergence on MAX density matrix=1.00D-06.
 Requested convergence on             energy=1.00D-06.
 No special actions if energy rises.
 Integral accuracy reduced to 1.0D-05 until final iterations.
 Defaulting to unpruned grid for atomic number  53.
 Defaulting to unpruned grid for atomic number  53.
 Defaulting to unpruned grid for atomic number  53.
 Defaulting to unpruned grid for atomic number  53.
 Defaulting to unpruned grid for atomic number  53.
 Defaulting to unpruned grid for atomic number  53.
 Defaulting to unpruned grid for atomic number  53.
 Defaulting to unpruned grid for atomic number  53.
 Defaulting to unpruned grid for atomic number  53.
 Defaulting to unpruned grid for atomic number  53.
 Defaulting to unpruned grid for atomic number  53.
 Defaulting to unpruned grid for atomic number  53.
 Defaulting to unpruned grid for atomic number  53.
 Defaulting to unpruned grid for atomic number  53.
 Defaulting to unpruned grid for atomic number  53.
 Defaulting to unpruned grid for atomic number  53.
 Defaulting to unpruned grid for atomic number  53.
 Defaulting to unpruned grid for atomic number  53.
 Defaulting to unpruned grid for atomic number  53.
 Defaulting to unpruned grid for atomic number  53.
 Defaulting to unpruned grid for atomic number  53.
 Defaulting to unpruned grid for atomic number  53.
 Defaulting to unpruned grid for atomic number  53.
 Defaulting to unpruned grid for atomic number  53.
 Initial convergence to 1.0D-05 achieved.  Increase integral accuracy.
 SCF Done:  E(UwB97XD) =  -9833.59167367     A.U. after   40 cycles
            NFock= 40  Conv=0.41D-08     -V/T= 1.9995
 <Sx>= 0.0000 <Sy>= 0.0000 <Sz>= 0.5000 <S**2>= 0.7547 S= 0.5024
 <L.S>= 0.000000000000E+00
 Annihilation of the first spin contaminant:
 S**2 before annihilation     0.7547,   after     0.7500

 **********************************************************************

            Population analysis using the SCF Density.

 **********************************************************************

 Orbital symmetries:
 Alpha Orbitals:
       Occupied  (A) (A) (A) (A) (A) (A) (A) (A) (A) (A) (A) (A)
                 (A) (A) (A) (A) (A) (A) (A) (A) (A) (A) (A) (A)
                 (A) (A) (A) (A) (A) (A) (A) (A) (A) (A) (A) (A)
                 (A) (A) (A) (A) (A) (A) (A) (A) (A) (A) (A) (A)
                 (A) (A) (A) (A) (A) (A) (A) (A) (A) (A) (A) (A)
                 (A) (A) (A) (A) (A) (A) (A) (A) (A) (A) (A) (A)
                 (A) (A) (A) (A)
       Virtual   (A) (A) (A) (A) (A) (A) (A) (A) (A) (A) (A) (A)
                 (A) (A) (A) (A) (A) (A) (A) (A) (A) (A) (A) (A)
                 (A) (A) (A) (A) (A) (A) (A) (A) (A) (A) (A) (A)
                 (A) (A) (A) (A) (A) (A) (A) (A) (A) (A) (A) (A)
                 (A) (A) (A) (A) (A) (A) (A) (A) (A) (A) (A) (A)
                 (A) (A) (A) (A) (A) (A) (A) (A) (A) (A) (A) (A)
                 (A) (A) (A) (A) (A) (A) (A) (A) (A) (A) (A) (A)
                 (A)
 Beta  Orbitals:
       Occupied  (A) (A) (A) (A) (A) (A) (A) (A) (A) (A) (A) (A)
                 (A) (A) (A) (A) (A) (A) (A) (A) (A) (A) (A) (A)
                 (A) (A) (A) (A) (A) (A) (A) (A) (A) (A) (A) (A)
                 (A) (A) (A) (A) (A) (A) (A) (A) (A) (A) (A) (A)
                 (A) (A) (A) (A) (A) (A) (A) (A) (A) (A) (A) (A)
                 (A) (A) (A) (A) (A) (A) (A) (A) (A) (A) (A) (A)
                 (A) (A) (A)
       Virtual   (A) (A) (A) (A) (A) (A) (A) (A) (A) (A) (A) (A)
                 (A) (A) (A) (A) (A) (A) (A) (A) (A) (A) (A) (A)
                 (A) (A) (A) (A) (A) (A) (A) (A) (A) (A) (A) (A)
                 (A) (A) (A) (A) (A) (A) (A) (A) (A) (A) (A) (A)
                 (A) (A) (A) (A) (A) (A) (A) (A) (A) (A) (A) (A)
                 (A) (A) (A) (A) (A) (A) (A) (A) (A) (A) (A) (A)
                 (A) (A) (A) (A) (A) (A) (A) (A) (A) (A) (A) (A)
                 (A) (A)
 The electronic state is 2-A.
 Alpha  occ. eigenvalues -- **********-480.00729-175.67493-164.41562-164.41358
 Alpha  occ. eigenvalues -- -164.41356 -62.44133 -56.03004 -56.02624 -56.02605
 Alpha  occ. eigenvalues --  -35.70015 -30.85859 -30.85517 -30.85482 -22.79921
 Alpha  occ. eigenvalues --  -22.79702 -22.79693 -22.79421 -22.79417 -19.04706
 Alpha  occ. eigenvalues --  -10.17739 -10.14493 -10.13749 -10.13387 -10.10766
 Alpha  occ. eigenvalues --  -10.10652 -10.08703 -10.06439  -8.74982  -6.53357
 Alpha  occ. eigenvalues --   -6.52091  -6.52090  -6.25784  -4.55663  -4.54724
 Alpha  occ. eigenvalues --   -4.54637  -2.63680  -2.63235  -2.63206  -2.62180
 Alpha  occ. eigenvalues --   -2.62175  -1.92212  -1.91854  -1.91799  -1.90994
 Alpha  occ. eigenvalues --   -1.90993  -1.05237  -0.84280  -0.78496  -0.76223
 Alpha  occ. eigenvalues --   -0.70681  -0.69029  -0.60747  -0.58241  -0.54786
 Alpha  occ. eigenvalues --   -0.51198  -0.47292  -0.46363  -0.45725  -0.40991
 Alpha  occ. eigenvalues --   -0.37316  -0.37209  -0.35934  -0.34711  -0.34274
 Alpha  occ. eigenvalues --   -0.30996  -0.29813  -0.29196  -0.24431  -0.22927
 Alpha  occ. eigenvalues --   -0.22776  -0.20139  -0.14734  -0.12919  -0.11356
 Alpha  occ. eigenvalues --    0.04637
 Alpha virt. eigenvalues --    0.20845   0.22629   0.22658   0.27864   0.30821
 Alpha virt. eigenvalues --    0.32985   0.34794   0.35102   0.39186   0.39599
 Alpha virt. eigenvalues --    0.41240   0.41732   0.45691   0.51659   0.53795
 Alpha virt. eigenvalues --    0.56986   0.57699   0.58281   0.62585   0.66612
 Alpha virt. eigenvalues --    0.68471   0.68716   0.69145   0.71244   0.72929
 Alpha virt. eigenvalues --    0.74462   0.77517   0.77713   0.77755   0.78909
 Alpha virt. eigenvalues --    0.80697   0.81644   0.82285   0.84202   0.84925
 Alpha virt. eigenvalues --    0.85407   0.85722   0.86715   0.88784   0.90492
 Alpha virt. eigenvalues --    0.94997   0.96184   0.98148   1.00103   1.00604
 Alpha virt. eigenvalues --    1.03873   1.04331   1.05502   1.08921   1.09230
 Alpha virt. eigenvalues --    1.10191   1.10392   1.11237   1.12928   1.14276
 Alpha virt. eigenvalues --    1.17168   1.17538   1.18122   1.19105   1.21789
 Alpha virt. eigenvalues --    1.22352   1.27511   1.27959   1.29776   1.32224
 Alpha virt. eigenvalues --    1.34774   1.38113   1.42216   1.45551   1.54825
 Alpha virt. eigenvalues --    1.61620   1.65796   1.71482   1.76558   1.82805
 Alpha virt. eigenvalues --    1.87005   1.96351   2.03328   2.04994   2.12187
 Alpha virt. eigenvalues --    2.17603   2.18189   2.40420   2.64180   2.87159
  Beta  occ. eigenvalues -- **********-480.00715-175.67440-164.41431-164.41327
  Beta  occ. eigenvalues -- -164.41324 -62.44122 -56.02973 -56.02616 -56.02597
  Beta  occ. eigenvalues --  -35.69949 -30.85723 -30.85462 -30.85426 -22.79809
  Beta  occ. eigenvalues --  -22.79640 -22.79631 -22.79379 -22.79374 -19.04696
  Beta  occ. eigenvalues --  -10.17739 -10.14534 -10.13635 -10.13372 -10.10728
  Beta  occ. eigenvalues --  -10.10682 -10.08752 -10.05624  -8.74960  -6.53312
  Beta  occ. eigenvalues --   -6.52079  -6.52077  -6.25619  -4.55404  -4.54632
  Beta  occ. eigenvalues --   -4.54544  -2.63652  -2.63213  -2.63183  -2.62172
  Beta  occ. eigenvalues --   -2.62167  -1.91988  -1.91717  -1.91664  -1.90921
  Beta  occ. eigenvalues --   -1.90920  -1.05212  -0.84043  -0.78371  -0.75880
  Beta  occ. eigenvalues --   -0.70333  -0.68874  -0.60505  -0.57578  -0.54495
  Beta  occ. eigenvalues --   -0.50157  -0.47286  -0.46082  -0.45520  -0.40611
  Beta  occ. eigenvalues --   -0.37206  -0.37160  -0.35619  -0.34574  -0.33689
  Beta  occ. eigenvalues --   -0.30631  -0.29422  -0.29151  -0.23162  -0.22807
  Beta  occ. eigenvalues --   -0.20858  -0.19662  -0.14520  -0.11901  -0.10595
  Beta virt. eigenvalues --    0.21137   0.22504   0.22737   0.27395   0.28250
  Beta virt. eigenvalues --    0.30930   0.32999   0.34944   0.35248   0.39390
  Beta virt. eigenvalues --    0.39816   0.41521   0.41902   0.45801   0.51759
  Beta virt. eigenvalues --    0.54178   0.57235   0.57871   0.58444   0.62751
  Beta virt. eigenvalues --    0.67272   0.68728   0.68924   0.69336   0.71628
  Beta virt. eigenvalues --    0.73103   0.74665   0.77601   0.77947   0.78008
  Beta virt. eigenvalues --    0.79065   0.80852   0.81662   0.83033   0.84459
  Beta virt. eigenvalues --    0.84978   0.85880   0.87502   0.87661   0.89321
  Beta virt. eigenvalues --    0.90640   0.95438   0.96375   0.98918   1.00170
  Beta virt. eigenvalues --    1.01115   1.04222   1.04375   1.06012   1.08867
  Beta virt. eigenvalues --    1.09554   1.10085   1.10677   1.12416   1.13005
  Beta virt. eigenvalues --    1.14749   1.17440   1.17824   1.18215   1.19236
  Beta virt. eigenvalues --    1.22041   1.22600   1.27689   1.28289   1.30042
  Beta virt. eigenvalues --    1.32394   1.34988   1.38229   1.42461   1.45766
  Beta virt. eigenvalues --    1.54893   1.61870   1.65962   1.71598   1.76714
  Beta virt. eigenvalues --    1.82778   1.87487   1.96543   2.03569   2.05002
  Beta virt. eigenvalues --    2.12213   2.17611   2.18349   2.40499   2.64190
  Beta virt. eigenvalues --    2.87192
          Condensed to atoms (all electrons):
               1          2          3          4          5          6
     1  Br  35.176861   0.097359  -0.037338  -0.000305   0.000744   0.001128
     2  C    0.097359   5.184215   0.464221  -0.023414  -0.003263  -0.033736
     3  C   -0.037338   0.464221   5.006637   0.452704  -0.012554  -0.022822
     4  C   -0.000305  -0.023414   0.452704   6.385398  -0.856457   0.412107
     5  I    0.000744  -0.003263  -0.012554  -0.856457  54.240679  -0.015280
     6  C    0.001128  -0.033736  -0.022822   0.412107  -0.015280   4.720207
     7  C    0.001812  -0.038397  -0.043626  -0.010480  -0.005764   0.489019
     8  C   -0.049054   0.510172  -0.039507  -0.026227  -0.001097  -0.029943
     9  C    0.000030   0.000676   0.001206  -0.001045   0.000735  -0.072952
    10  C    0.000001   0.000029  -0.000332   0.007418   0.000613  -0.068653
    11  O    0.000001   0.000061   0.002560  -0.060865   0.012035   0.246039
    12  H    0.012502  -0.057742   0.378998  -0.083570   0.053732   0.006640
    13  H    0.003664  -0.022557   0.002995   0.000001   0.000081   0.003034
    14  H   -0.000003   0.000097  -0.000010   0.000016  -0.000014   0.002140
    15  H   -0.000003   0.000108  -0.000012   0.000002  -0.000019   0.001354
    16  H   -0.000000  -0.000000   0.000009  -0.000060   0.000002   0.003223
    17  H   -0.000000   0.000000   0.000008  -0.000036   0.000003   0.002951
               7          8          9         10         11         12
     1  Br   0.001812  -0.049054   0.000030   0.000001   0.000001   0.012502
     2  C   -0.038397   0.510172   0.000676   0.000029   0.000061  -0.057742
     3  C   -0.043626  -0.039507   0.001206  -0.000332   0.002560   0.378998
     4  C   -0.010480  -0.026227  -0.001045   0.007418  -0.060865  -0.083570
     5  I   -0.005764  -0.001097   0.000735   0.000613   0.012035   0.053732
     6  C    0.489019  -0.029943  -0.072952  -0.068653   0.246039   0.006640
     7  C    5.244899   0.447873   0.267103  -0.087392  -0.065901  -0.000689
     8  C    0.447873   4.941686   0.007471   0.001554   0.002168   0.001480
     9  C    0.267103   0.007471   5.237434   0.334449  -0.037237   0.000033
    10  C   -0.087392   0.001554   0.334449   4.853874   0.206526   0.000006
    11  O   -0.065901   0.002168  -0.037237   0.206526   8.410280   0.000016
    12  H   -0.000689   0.001480   0.000033   0.000006   0.000016   0.534141
    13  H   -0.019153   0.384159  -0.003882   0.000018  -0.000015   0.000039
    14  H   -0.027108  -0.002806   0.379885  -0.030077   0.001787  -0.000001
    15  H   -0.028634  -0.003066   0.379138  -0.030523   0.001779  -0.000001
    16  H    0.004395  -0.000016  -0.037814   0.389453  -0.027026  -0.000000
    17  H    0.003726  -0.000050  -0.039196   0.387265  -0.028498  -0.000000
              13         14         15         16         17
     1  Br   0.003664  -0.000003  -0.000003  -0.000000  -0.000000
     2  C   -0.022557   0.000097   0.000108  -0.000000   0.000000
     3  C    0.002995  -0.000010  -0.000012   0.000009   0.000008
     4  C    0.000001   0.000016   0.000002  -0.000060  -0.000036
     5  I    0.000081  -0.000014  -0.000019   0.000002   0.000003
     6  C    0.003034   0.002140   0.001354   0.003223   0.002951
     7  C   -0.019153  -0.027108  -0.028634   0.004395   0.003726
     8  C    0.384159  -0.002806  -0.003066  -0.000016  -0.000050
     9  C   -0.003882   0.379885   0.379138  -0.037814  -0.039196
    10  C    0.000018  -0.030077  -0.030523   0.389453   0.387265
    11  O   -0.000015   0.001787   0.001779  -0.027026  -0.028498
    12  H    0.000039  -0.000001  -0.000001  -0.000000  -0.000000
    13  H    0.492779   0.000715   0.000563  -0.000000  -0.000001
    14  H    0.000715   0.525356  -0.029692   0.003557  -0.007349
    15  H    0.000563  -0.029692   0.527029  -0.007336   0.004022
    16  H   -0.000000   0.003557  -0.007336   0.547671  -0.042103
    17  H   -0.000001  -0.007349   0.004022  -0.042103   0.553433
          Atomic-Atomic Spin Densities.
               1          2          3          4          5          6
     1  Br   0.147147  -0.101546  -0.000779  -0.002041   0.000869   0.000630
     2  C   -0.101546   0.179186   0.000212   0.014264  -0.006904  -0.000753
     3  C   -0.000779   0.000212  -0.036289  -0.043313   0.027994   0.018831
     4  C   -0.002041   0.014264  -0.043313   1.623329  -1.135910  -0.038633
     5  I    0.000869  -0.006904   0.027994  -1.135910   1.605143   0.032677
     6  C    0.000630  -0.000753   0.018831  -0.038633   0.032677  -0.025677
     7  C   -0.000727  -0.000781  -0.006794   0.009357  -0.009945  -0.011666
     8  C   -0.006478   0.007047  -0.002467   0.000309  -0.001287  -0.002853
     9  C    0.000058   0.000319   0.000542  -0.001012   0.000826   0.000316
    10  C    0.000001   0.000001   0.000077  -0.000916   0.000701  -0.001398
    11  O    0.000001  -0.000013   0.000445  -0.015195   0.011212  -0.003192
    12  H    0.012811  -0.030571  -0.011079  -0.067981   0.051807   0.002868
    13  H    0.003126  -0.002085   0.000532  -0.000029   0.000071   0.000544
    14  H   -0.000002  -0.000005  -0.000012   0.000040  -0.000020   0.000051
    15  H   -0.000003  -0.000005  -0.000015   0.000052  -0.000026   0.000075
    16  H   -0.000000   0.000000  -0.000000   0.000002  -0.000005  -0.000054
    17  H   -0.000000   0.000000  -0.000000   0.000002  -0.000005  -0.000085
               7          8          9         10         11         12
     1  Br  -0.000727  -0.006478   0.000058   0.000001   0.000001   0.012811
     2  C   -0.000781   0.007047   0.000319   0.000001  -0.000013  -0.030571
     3  C   -0.006794  -0.002467   0.000542   0.000077   0.000445  -0.011079
     4  C    0.009357   0.000309  -0.001012  -0.000916  -0.015195  -0.067981
     5  I   -0.009945  -0.001287   0.000826   0.000701   0.011212   0.051807
     6  C   -0.011666  -0.002853   0.000316  -0.001398  -0.003192   0.002868
     7  C    0.071048   0.011211  -0.026030  -0.005947  -0.009103  -0.000757
     8  C    0.011211  -0.024317  -0.004295  -0.000210  -0.000237  -0.001026
     9  C   -0.026030  -0.004295   0.035864   0.001990   0.002470   0.000026
    10  C   -0.005947  -0.000210   0.001990   0.003301   0.002844   0.000003
    11  O   -0.009103  -0.000237   0.002470   0.002844   0.015548   0.000030
    12  H   -0.000757  -0.001026   0.000026   0.000003   0.000030   0.085183
    13  H   -0.001593  -0.005753   0.001862   0.000047   0.000014   0.000112
    14  H    0.001360   0.000189  -0.001749  -0.000647  -0.000099  -0.000001
    15  H    0.001568   0.000211  -0.002052  -0.000802  -0.000130  -0.000001
    16  H   -0.000009   0.000001  -0.000080   0.000210   0.000037  -0.000000
    17  H   -0.000012   0.000002  -0.000031   0.000209   0.000071  -0.000000
              13         14         15         16         17
     1  Br   0.003126  -0.000002  -0.000003  -0.000000  -0.000000
     2  C   -0.002085  -0.000005  -0.000005   0.000000   0.000000
     3  C    0.000532  -0.000012  -0.000015  -0.000000  -0.000000
     4  C   -0.000029   0.000040   0.000052   0.000002   0.000002
     5  I    0.000071  -0.000020  -0.000026  -0.000005  -0.000005
     6  C    0.000544   0.000051   0.000075  -0.000054  -0.000085
     7  C   -0.001593   0.001360   0.001568  -0.000009  -0.000012
     8  C   -0.005753   0.000189   0.000211   0.000001   0.000002
     9  C    0.001862  -0.001749  -0.002052  -0.000080  -0.000031
    10  C    0.000047  -0.000647  -0.000802   0.000210   0.000209
    11  O    0.000014  -0.000099  -0.000130   0.000037   0.000071
    12  H    0.000112  -0.000001  -0.000001  -0.000000  -0.000000
    13  H    0.006801  -0.000157  -0.000166  -0.000000  -0.000000
    14  H   -0.000157   0.000789   0.000331  -0.000020   0.000038
    15  H   -0.000166   0.000331   0.001191   0.000034  -0.000020
    16  H   -0.000000  -0.000020   0.000034  -0.000116   0.000025
    17  H   -0.000000   0.000038  -0.000020   0.000025  -0.000235
 Mulliken charges and spin densities:
               1          2
     1  Br  -0.207400   0.053067
     2  C   -0.077830   0.058367
     3  C   -0.153138  -0.052116
     4  C   -0.195187   0.342324
     5  I   -0.414175   0.577199
     6  C    0.355545  -0.028319
     7  C   -0.131683   0.021180
     8  C   -0.144799  -0.029954
     9  C   -0.416035   0.009024
    10  C    0.035770  -0.000536
    11  O   -0.663712   0.004701
    12  H    0.154417   0.041424
    13  H    0.157560   0.003326
    14  H    0.183507   0.000087
    15  H    0.185290   0.000243
    16  H    0.166045   0.000026
    17  H    0.165827  -0.000041
 Sum of Mulliken charges =  -1.00000   1.00000
 Mulliken charges and spin densities with hydrogens summed into heavy atoms:
               1          2
     1  Br  -0.207400   0.053067
     2  C   -0.077830   0.058367
     3  C    0.001279  -0.010692
     4  C   -0.195187   0.342324
     5  I   -0.414175   0.577199
     6  C    0.355545  -0.028319
     7  C   -0.131683   0.021180
     8  C    0.012761  -0.026628
     9  C   -0.047238   0.009354
    10  C    0.367641  -0.000552
    11  O   -0.663712   0.004701
 Electronic spatial extent (au):  <R**2>=           4624.9804
 Charge=             -1.0000 electrons
 Dipole moment (field-independent basis, Debye):
    X=              4.3008    Y=              5.3944    Z=              0.0261  Tot=              6.8990
 Quadrupole moment (field-independent basis, Debye-Ang):
   XX=           -136.6327   YY=           -102.4550   ZZ=           -104.0397
   XY=             -7.4337   XZ=             -0.0371   YZ=              0.0608
 Traceless Quadrupole moment (field-independent basis, Debye-Ang):
   XX=            -22.2569   YY=             11.9208   ZZ=             10.3361
   XY=             -7.4337   XZ=             -0.0371   YZ=              0.0608
 Octapole moment (field-independent basis, Debye-Ang**2):
  XXX=             25.9295  YYY=            -38.8801  ZZZ=              0.1499  XYY=             10.9315
  XXY=              8.1216  XXZ=              0.0156  XZZ=              0.0020  YZZ=            -20.4115
  YYZ=              0.2621  XYZ=             -0.0072
 Hexadecapole moment (field-independent basis, Debye-Ang**3):
 XXXX=          -3237.4071 YYYY=          -1824.2429 ZZZZ=           -132.1571 XXXY=            -42.1188
 XXXZ=              0.8251 YYYX=            -56.0744 YYYZ=              0.6097 ZZZX=              0.4020
 ZZZY=              0.0206 XXYY=           -836.1182 XXZZ=           -532.6559 YYZZ=           -329.6879
 XXYZ=             -0.1895 YYXZ=              0.7333 ZZXY=             -7.7859
 N-N= 1.338461500182D+03 E-N=-2.609036571529D+04  KE= 9.838920685264D+03
 There are a total of      411906 grid points.
 ElSum from          density=      150.9999874735
 ElSum from atomic densities=      149.9999494264

 Hirshfeld populations at iteration   1 (CX, CA, CB, DipXYZ):
               1          2          3          4          5          6
     1  Br   0.000000  17.610861  17.555595  -0.094397   0.022333  -0.000427
     2  C    0.000000   3.033400   2.994594   0.050447  -0.015173   0.000869
     3  C    0.000000   3.044896   3.030473   0.006921  -0.017228   0.000308
     4  C    0.000000   3.193524   2.913686   0.045592   0.053586   0.000413
     5  I    0.000000  27.030659  26.468893   0.473746   0.320189  -0.000923
     6  C    0.000000   2.982120   2.973490  -0.082813   0.052034  -0.000685
     7  C    0.000000   3.031324   3.017278   0.001027   0.062413  -0.002451
     8  C    0.000000   3.036926   3.048667   0.020062   0.028686  -0.000624
     9  C    0.000000   3.030589   3.023298  -0.032968  -0.004207   0.001514
    10  C    0.000000   2.980450   2.979758   0.008912  -0.030873  -0.004225
    11  O    0.000000   4.080136   4.075551   0.122958   0.062761   0.003462
    12  H    0.000000   0.506536   0.482158   0.018086  -0.122767   0.000741
    13  H    0.000000   0.487776   0.487776   0.118326   0.091221  -0.000620
    14  H    0.000000   0.489191   0.488264   0.053504   0.071312   0.109691
    15  H    0.000000   0.489527   0.488503   0.043783   0.064124  -0.117472
    16  H    0.000000   0.485706   0.485646  -0.058175   0.068361  -0.104710
    17  H    0.000000   0.486372   0.486364  -0.046891   0.058515   0.114350
       Tot   0.000000  75.999993  74.999994   0.648121   0.765287  -0.000788

 Dip from Atomic Chgs              1.043967   1.357077   0.011060
         Total Dipole              1.692088   2.122364   0.010273

 Hirshfeld charges, spin densities, dipoles, and CM5 charges using IRadAn=      5:
              Q-H        S-H        Dx         Dy         Dz        Q-CM5   
     1  Br  -0.166456   0.055266  -0.094397   0.022333  -0.000427  -0.151793
     2  C   -0.027994   0.038807   0.050447  -0.015173   0.000869  -0.048927
     3  C   -0.075369   0.014422   0.006921  -0.017228   0.000308  -0.128084
     4  C   -0.107210   0.279838   0.045592   0.053586   0.000413  -0.132015
     5  I   -0.499552   0.561766   0.473746   0.320189  -0.000923  -0.470247
     6  C    0.044390   0.008630  -0.082813   0.052034  -0.000685   0.066376
     7  C   -0.048602   0.014046   0.001027   0.062413  -0.002451  -0.057321
     8  C   -0.085593  -0.011740   0.020062   0.028686  -0.000624  -0.137068
     9  C   -0.053887   0.007291  -0.032968  -0.004207   0.001514  -0.153881
    10  C    0.039793   0.000692   0.008912  -0.030873  -0.004225  -0.039858
    11  O   -0.155687   0.004586   0.122958   0.062761   0.003462  -0.236264
    12  H    0.011305   0.024378   0.018086  -0.122767   0.000741   0.069685
    13  H    0.024447   0.000000   0.118326   0.091221  -0.000620   0.082460
    14  H    0.022545   0.000926   0.053504   0.071312   0.109691   0.078252
    15  H    0.021970   0.001024   0.043783   0.064124  -0.117472   0.077748
    16  H    0.028648   0.000060  -0.058175   0.068361  -0.104710   0.091189
    17  H    0.027264   0.000008  -0.046891   0.058515   0.114350   0.089762
       Tot  -0.999987   0.999999   0.648121   0.765287  -0.000788  -0.999987
 Hirshfeld charges and spin densities with hydrogens summed into heavy atoms:
              Q-H        S-H       Q-CM5   
     1  Br  -0.166456   0.055266  -0.151793
     2  C   -0.027994   0.038807  -0.048927
     3  C   -0.064064   0.038800  -0.058399
     4  C   -0.107210   0.279838  -0.132015
     5  I   -0.499552   0.561766  -0.470247
     6  C    0.044390   0.008630   0.066376
     7  C   -0.048602   0.014046  -0.057321
     8  C   -0.061146  -0.011740  -0.054609
     9  C   -0.009371   0.009241   0.002118
    10  C    0.095704   0.000760   0.141092
    11  O   -0.155687   0.004586  -0.236264
 
 EQQ= 0.621467294859E-01 EQD=-0.545619551836E-02 EDD= 0.663100815710E-03
 EQQ+QD+DD= 0.573536347832E-01
 
                          Isotropic Fermi Contact Couplings
        Atom                 a.u.       MegaHertz       Gauss      10(-4) cm-1
     1  Br(79)             0.08312      93.40827      33.33039      31.15765
     2  C(13)              0.06524      73.33817      26.16888      24.46298
     3  C(13)             -0.01301     -14.62121      -5.21721      -4.87711
     4  C(13)              0.35891     403.48655     143.97403     134.58863
     5  I(127)             0.88573     797.61600     284.60922     266.05606
     6  C(13)             -0.01251     -14.06246      -5.01783      -4.69073
     7  C(13)              0.01924      21.63505       7.71992       7.21668
     8  C(13)             -0.00249      -2.79761      -0.99826      -0.93318
     9  C(13)              0.00324       3.64127       1.29930       1.21460
    10  C(13)              0.00126       1.41836       0.50611       0.47311
    11  O(17)             -0.00155       0.93996       0.33540       0.31354
    12  H(1)               0.00555      24.81665       8.85520       8.27794
    13  H(1)               0.00039       1.76391       0.62941       0.58838
    14  H(1)               0.00004       0.16819       0.06002       0.05610
    15  H(1)               0.00008       0.35163       0.12547       0.11729
    16  H(1)               0.00005       0.22400       0.07993       0.07472
    17  H(1)               0.00003       0.12341       0.04404       0.04116
 --------------------------------------------------------
       Center         ----  Spin Dipole Couplings  ----
                      3XX-RR        3YY-RR        3ZZ-RR
 --------------------------------------------------------
     1   Atom        0.325168     -0.116905     -0.208263
     2   Atom       -0.021342      0.014846      0.006496
     3   Atom        0.022534      0.023887     -0.046421
     4   Atom        0.137125     -0.008643     -0.128482
     5   Atom        1.964407     -0.164102     -1.800305
     6   Atom        0.002046      0.039511     -0.041556
     7   Atom       -0.004398     -0.001267      0.005665
     8   Atom        0.014574      0.013085     -0.027659
     9   Atom       -0.000496      0.007097     -0.006602
    10   Atom       -0.000917      0.002633     -0.001715
    11   Atom        0.035951      0.008684     -0.044635
    12   Atom        0.008872     -0.002227     -0.006644
    13   Atom        0.000289      0.001548     -0.001837
    14   Atom       -0.001023      0.001642     -0.000618
    15   Atom       -0.001113      0.001587     -0.000474
    16   Atom       -0.000720      0.001921     -0.001201
    17   Atom       -0.000779      0.001912     -0.001132
 --------------------------------------------------------
                        XY            XZ            YZ
 --------------------------------------------------------
     1   Atom       -0.246685      0.006614     -0.002985
     2   Atom       -0.016503     -0.001155      0.001321
     3   Atom       -0.018024      0.001188     -0.002202
     4   Atom        0.239558      0.003341      0.002003
     5   Atom        2.540770     -0.008996     -0.005484
     6   Atom       -0.009075      0.000221     -0.001619
     7   Atom        0.007605     -0.000959     -0.000784
     8   Atom        0.002409     -0.000014     -0.000378
     9   Atom       -0.006442     -0.000011      0.000015
    10   Atom       -0.001119     -0.000077      0.000096
    11   Atom       -0.024016     -0.001534      0.001155
    12   Atom       -0.004943      0.000060      0.000008
    13   Atom       -0.000114      0.000017     -0.000002
    14   Atom        0.000660      0.000545      0.001144
    15   Atom        0.000572     -0.000501     -0.001188
    16   Atom       -0.000356      0.000166     -0.000634
    17   Atom       -0.000301     -0.000207      0.000786
 --------------------------------------------------------


 ---------------------------------------------------------------------------------
              Anisotropic Spin Dipole Couplings in Principal Axis System
 ---------------------------------------------------------------------------------

       Atom             a.u.   MegaHertz   Gauss  10(-4) cm-1        Axes

              Baa    -0.2271   -30.462   -10.870   -10.161  0.4078  0.9131  0.0015
     1 Br(79) Bbb    -0.2083   -27.947    -9.972    -9.322 -0.0109  0.0032  0.9999
              Bcc     0.4354    58.409    20.842    19.483  0.9130 -0.4078  0.0113
 
              Baa    -0.0277    -3.724    -1.329    -1.242  0.9325  0.3608  0.0175
     2 C(13)  Bbb     0.0063     0.849     0.303     0.283  0.0234 -0.1087  0.9938
              Bcc     0.0214     2.875     1.026     0.959 -0.3604  0.9263  0.1098
 
              Baa    -0.0465    -6.239    -2.226    -2.081 -0.0097  0.0288  0.9995
     3 C(13)  Bbb     0.0052     0.695     0.248     0.232  0.7208  0.6930 -0.0130
              Bcc     0.0413     5.544     1.978     1.849 -0.6931  0.7203 -0.0275
 
              Baa    -0.1862   -24.981    -8.914    -8.333 -0.5954  0.8034  0.0066
     4 C(13)  Bbb    -0.1285   -17.245    -6.154    -5.752 -0.0031 -0.0105  0.9999
              Bcc     0.3147    42.226    15.067    14.085  0.8034  0.5953  0.0087
 
              Baa    -1.8545  -199.344   -71.131   -66.494 -0.5539  0.8325 -0.0077
     5 I(127) Bbb    -1.8003  -193.519   -69.052   -64.551 -0.0027  0.0075  1.0000
              Bcc     3.6548   392.863   140.183   131.045  0.8326  0.5539 -0.0019
 
              Baa    -0.0416    -5.581    -1.991    -1.862 -0.0009  0.0199  0.9998
     6 C(13)  Bbb    -0.0000    -0.005    -0.002    -0.002  0.9747  0.2235 -0.0035
              Bcc     0.0416     5.586     1.993     1.863 -0.2235  0.9745 -0.0196
 
              Baa    -0.0106    -1.423    -0.508    -0.475  0.7758 -0.6308  0.0154
     7 C(13)  Bbb     0.0040     0.541     0.193     0.180  0.4997  0.6290  0.5955
              Bcc     0.0066     0.881     0.315     0.294 -0.3853 -0.4543  0.8032
 
              Baa    -0.0277    -3.712    -1.325    -1.238 -0.0002  0.0093  1.0000
     8 C(13)  Bbb     0.0113     1.518     0.542     0.506 -0.5939  0.8045 -0.0076
              Bcc     0.0164     2.194     0.783     0.732  0.8046  0.5938 -0.0054
 
              Baa    -0.0066    -0.886    -0.316    -0.295  0.0013 -0.0005  1.0000
     9 C(13)  Bbb    -0.0042    -0.560    -0.200    -0.187  0.8683  0.4961 -0.0009
              Bcc     0.0108     1.446     0.516     0.482 -0.4961  0.8683  0.0010
 
              Baa    -0.0017    -0.231    -0.082    -0.077  0.1000  0.0037  0.9950
    10 C(13)  Bbb    -0.0012    -0.166    -0.059    -0.055  0.9555  0.2787 -0.0971
              Bcc     0.0030     0.397     0.142     0.132 -0.2777  0.9604  0.0243
 
              Baa    -0.0447     3.233     1.153     1.078  0.0145 -0.0151  0.9998
    11 O(17)  Bbb    -0.0053     0.383     0.137     0.128  0.5033  0.8641  0.0057
              Bcc     0.0500    -3.616    -1.290    -1.206  0.8640 -0.5031 -0.0202
 
              Baa    -0.0066    -3.545    -1.265    -1.183 -0.0069 -0.0095  0.9999
    12 H(1)   Bbb    -0.0041    -2.192    -0.782    -0.731  0.3558  0.9345  0.0114
              Bcc     0.0108     5.738     2.047     1.914  0.9345 -0.3558  0.0030
 
              Baa    -0.0018    -0.980    -0.350    -0.327 -0.0078  0.0003  1.0000
    13 H(1)   Bbb     0.0003     0.149     0.053     0.050  0.9960  0.0894  0.0078
              Bcc     0.0016     0.832     0.297     0.277 -0.0894  0.9960 -0.0010
 
              Baa    -0.0014    -0.752    -0.269    -0.251  0.7713  0.0702 -0.6326
    14 H(1)   Bbb    -0.0009    -0.486    -0.173    -0.162  0.5898 -0.4523  0.6690
              Bcc     0.0023     1.239     0.442     0.413  0.2391  0.8891  0.3903
 
              Baa    -0.0014    -0.742    -0.265    -0.248  0.8508  0.0456  0.5236
    15 H(1)   Bbb    -0.0009    -0.478    -0.170    -0.159 -0.4817  0.4661  0.7421
              Bcc     0.0023     1.220     0.435     0.407  0.2102  0.8836 -0.4185
 
              Baa    -0.0013    -0.715    -0.255    -0.239 -0.1615  0.1712  0.9719
    16 H(1)   Bbb    -0.0008    -0.403    -0.144    -0.135  0.9777  0.1618  0.1340
              Bcc     0.0021     1.118     0.399     0.373 -0.1343  0.9719 -0.1936
 
              Baa    -0.0014    -0.723    -0.258    -0.241  0.2334 -0.2072  0.9500
    17 H(1)   Bbb    -0.0008    -0.420    -0.150    -0.140  0.9654  0.1662 -0.2010
              Bcc     0.0021     1.143     0.408     0.381 -0.1163  0.9641  0.2388
 

 ---------------------------------------------------------------------------------

 Running external command "gaunbo6 R"
         input file       "/home/rpaton/arbr500/xtb/fukui/Gau-2163768.EIn"
         output file      "/home/rpaton/arbr500/xtb/fukui/Gau-2163768.EOu"
         message file     "/home/rpaton/arbr500/xtb/fukui/Gau-2163768.EMs"
         fchk file        "/home/rpaton/arbr500/xtb/fukui/Gau-2163768.EFC"
         mat. el file     "/home/rpaton/arbr500/xtb/fukui/Gau-2163768.EUF"

 Writing WrtUnf unformatted file "/home/rpaton/arbr500/xtb/fukui/Gau-2163768.EUF"
 Gaussian matrix elements                                         Version   2 NLab=11 Len12L=8 Len4L=8
 Write SHELL TO ATOM MAP                   from file      0 offset           0 length                  83 to matrix element file.
 Write SHELL TYPES                         from file      0 offset           0 length                  83 to matrix element file.
 Write NUMBER OF PRIMITIVES PER SHELL      from file      0 offset           0 length                  83 to matrix element file.
 Write PRIMITIVE EXPONENTS                 from file      0 offset           0 length                 159 to matrix element file.
 Write CONTRACTION COEFFICIENTS            from file      0 offset           0 length                 159 to matrix element file.
 Write P(S=P) CONTRACTION COEFFICIENTS     from file      0 offset           0 length                 159 to matrix element file.
 Write COORDINATES OF EACH SHELL           from file      0 offset           0 length                 249 to matrix element file.
 Write BONDS PER ATOM                      from file      0 offset           0 length                  17 to matrix element file.
 Write BONDED ATOMS                        from file      0 offset           0 length                  36 to matrix element file.
 Write BOND TYPES                          from file      0 offset           0 length                  36 to matrix element file.
 Write ONIOM CHARGE/MULT                   from file      0 offset           0 length                  32 to matrix element file.
 Write ONIOM ATOM LAYERS                   from file      0 offset           0 length                  17 to matrix element file.
 Write ONIOM ATOM MODIFIERS                from file      0 offset           0 length                  17 to matrix element file.
 Write ONIOM ATOM TYPES                    from file      0 offset           0 length                  17 to matrix element file.
 Write ONIOM LINK ATOMS                    from file      0 offset           0 length                  17 to matrix element file.
 Write ONIOM LINK CHARGES                  from file      0 offset           0 length                  17 to matrix element file.
 Write ONIOM LINK DISTANCES                from file      0 offset           0 length                  68 to matrix element file.
 Write SYMINF INTS                         from file      0 offset           0 length                  26 to matrix element file.
 Write ROTTR TO SO                         from file      0 offset           0 length                  12 to matrix element file.
 Write GAUSSIAN SCALARS                    from file    501 offset           0 to matrix element file.
 Write OPTIMIZATION FLAGS                  from file      0 offset           0 length                  17 to matrix element file.
 Write INTEGER ISO                         from file      0 offset           0 length                  17 to matrix element file.
 Write INTEGER SPIN                        from file      0 offset           0 length                  17 to matrix element file.
 Write REAL ZEFFECTIVE                     from file      0 offset           0 length                  17 to matrix element file.
 Write REAL QUADRUPOLEMOMENT               from file      0 offset           0 length                  17 to matrix element file.
 Write REAL GFACTOR                        from file      0 offset           0 length                  17 to matrix element file.
 Write REAL ZNUCLEAR                       from file      0 offset           0 length                  17 to matrix element file.
 Write MULLIKEN CHARGES                    from file      0 offset           0 length                  17 to matrix element file.
 Write TYPE 6 CHARGES                      from file      0 offset           0 length                  17 to matrix element file.
 Write TYPE 7 CHARGES                      from file      0 offset           0 length                  17 to matrix element file.
 Write NUCLEAR GRADIENT                    from file  10584 offset           0 length                  51 to matrix element file.
 Array NUCLEAR FORCE CONSTANTS              on  file  10585 does not exist.
 Write ELECTRIC DIPOLE MOMENT              from file      0 offset           0 length                   3 to matrix element file.
 Write NON-ADIABATIC COUPLING              from file  10810 offset           0 length                  51 to matrix element file.
 Write FINITE EM FIELD                     from file  10521 offset           0 length                  35 to matrix element file.
 Write OVERLAP                             from file  10514 offset           0 length               13041 to matrix element file.
 Write CORE HAMILTONIAN ALPHA              from file  10515 offset           0 length               13041 to matrix element file.
 Write CORE HAMILTONIAN BETA               from file  10515 offset       13041 length               13041 to matrix element file.
 Write KINETIC ENERGY                      from file  10516 offset           0 length               13041 to matrix element file.
 Write ORTHOGONAL BASIS                    from file  10685 offset           0 length               25921 to matrix element file.
 Write DIPOLE INTEGRALS                    from file  10518 offset           0 length               39123 to matrix element file.
 Array DIP VEL INTEGRALS                    on  file  10572 does not exist.
 Array R X DEL INTEGRALS                    on  file  10572 does not exist.
 Write ALPHA ORBITAL ENERGIES              from file      0 offset           0 length                 161 to matrix element file.
 Write BETA ORBITAL ENERGIES               from file      0 offset           0 length                 161 to matrix element file.
 Write ALPHA MO COEFFICIENTS               from file  10524 offset           0 length               25921 to matrix element file.
 Write BETA MO COEFFICIENTS                from file  10526 offset           0 length               25921 to matrix element file.
 Write ALPHA DENSITY MATRIX                from file      0 offset           0 length               13041 to matrix element file.
 Write BETA DENSITY MATRIX                 from file      0 offset           0 length               13041 to matrix element file.
 Write ALPHA FOCK MATRIX                   from file  10536 offset           0 length               13041 to matrix element file.
 Write BETA FOCK MATRIX                    from file  10538 offset           0 length               13041 to matrix element file.
 Write ENERGY-WEIGHTED DENSITY             from file  10571 offset           0 length               13041 to matrix element file.
 Write ALPHA SCF DENSITY MATRIX            from file      0 offset           0 length               13041 to matrix element file.
 Write BETA SCF DENSITY MATRIX             from file      0 offset           0 length               13041 to matrix element file.
 No 2e integrals to process.
 Perform NBO analysis...

 *********************************** NBO 7.0 ***********************************
             N A T U R A L   A T O M I C   O R B I T A L   A N D
          N A T U R A L   B O N D   O R B I T A L   A N A L Y S I S
 **************************** Robert Paton (I101709) ***************************
  (c) Copyright 1996-2019 Board of Regents of the University of Wisconsin System
      on behalf of the Theoretical Chemistry Institute.  All rights reserved.

          Cite this program [NBO 7.0.5 (4-Jun-2019)] as:

          NBO 7.0.  E. D. Glendening, J. K. Badenhoop, A. E. Reed,
          J. E. Carpenter, J. A. Bohmann, C. M. Morales, P. Karafiloglou,
          C. R. Landis, and F. Weinhold, Theoretical Chemistry Institute,
          University of Wisconsin, Madison, WI (2018)

 Filename set to /home/rpaton/arbr500/xtb/fukui/Gau-2163768

 Job title:  energy: -32.159136574353 gnorm: 0.000850729375 xtb: 6.7.0 (08769fc)


 NATURAL POPULATIONS:  Natural atomic orbital occupancies

  NAO Atom No lang   Type(AO)    Occupancy     Spin
 -----------------------------------------------------
   1   Br  1  s      Cor( 3s)     2.00000     0.00000
   2   Br  1  s      Cor( 1s)     2.00000     0.00000
   3   Br  1  s      Cor( 2s)     1.99999     0.00000
   4   Br  1  s      Val( 4s)     1.87036     0.00372
   5   Br  1  s      Ryd( 5s)     0.00316     0.00040
   6   Br  1  px     Cor( 3p)     2.00000     0.00000
   7   Br  1  px     Cor( 2p)     1.99999     0.00000
   8   Br  1  px     Val( 4p)     1.38866     0.03814
   9   Br  1  px     Ryd( 5p)     0.00407     0.00116
  10   Br  1  py     Cor( 3p)     2.00000     0.00000
  11   Br  1  py     Cor( 2p)     1.99999     0.00000
  12   Br  1  py     Val( 4p)     1.81097     0.00668
  13   Br  1  py     Ryd( 5p)     0.00180     0.00014
  14   Br  1  pz     Cor( 3p)     2.00000     0.00000
  15   Br  1  pz     Cor( 2p)     2.00000     0.00000
  16   Br  1  pz     Val( 4p)     1.95945     0.00103
  17   Br  1  pz     Ryd( 5p)     0.00065     0.00000
  18   Br  1  dxy    Cor( 3d)     1.99951     0.00000
  19   Br  1  dxy    Ryd( 4d)     0.00352     0.00002
  20   Br  1  dxz    Cor( 3d)     1.99990     0.00000
  21   Br  1  dxz    Ryd( 4d)     0.00187     0.00003
  22   Br  1  dyz    Cor( 3d)     1.99997     0.00000
  23   Br  1  dyz    Ryd( 4d)     0.00062     0.00000
  24   Br  1  dx2y2  Cor( 3d)     1.99962     0.00000
  25   Br  1  dx2y2  Ryd( 4d)     0.00195     0.00015
  26   Br  1  dz2    Cor( 3d)     1.99981     0.00000
  27   Br  1  dz2    Ryd( 4d)     0.00150    -0.00001

  28    C  2  s      Cor( 1s)     1.99989     0.00000
  29    C  2  s      Val( 2s)     0.93939     0.01912
  30    C  2  s      Ryd( 3s)     0.00075     0.00026
  31    C  2  px     Val( 2p)     0.99594     0.00025
  32    C  2  px     Ryd( 3p)     0.00663    -0.00002
  33    C  2  py     Val( 2p)     1.08715     0.01628
  34    C  2  py     Ryd( 3p)     0.00657     0.00004
  35    C  2  pz     Val( 2p)     1.11705     0.01509
  36    C  2  pz     Ryd( 3p)     0.00062    -0.00001

  37    C  3  s      Cor( 1s)     1.99986     0.00000
  38    C  3  s      Val( 2s)     0.93754    -0.00389
  39    C  3  s      Ryd( 3s)     0.00122     0.00004
  40    C  3  px     Val( 2p)     1.07461    -0.00742
  41    C  3  px     Ryd( 3p)     0.00593     0.00007
  42    C  3  py     Val( 2p)     1.22430     0.00029
  43    C  3  py     Ryd( 3p)     0.00869     0.00178
  44    C  3  pz     Val( 2p)     1.00388    -0.02457
  45    C  3  pz     Ryd( 3p)     0.00052    -0.00005

  46    C  4  s      Cor( 1s)     1.99985     0.00002
  47    C  4  s      Val( 2s)     1.03370     0.12239
  48    C  4  s      Ryd( 3s)     0.00624     0.00391
  49    C  4  px     Val( 2p)     1.20805     0.13632
  50    C  4  px     Ryd( 3p)     0.01173     0.00320
  51    C  4  py     Val( 2p)     1.11663     0.07711
  52    C  4  py     Ryd( 3p)     0.00984     0.00108
  53    C  4  pz     Val( 2p)     0.96567     0.03848
  54    C  4  pz     Ryd( 3p)     0.00099     0.00007

  55    I  5  s      Cor( 2s)     2.00000     0.00000
  56    I  5  s      Cor( 1s)     2.00000     0.00000
  57    I  5  s      Cor( 4s)     2.00000     0.00000
  58    I  5  s      Cor( 3s)     1.99999     0.00000
  59    I  5  s      Val( 5s)     1.92880     0.04525
  60    I  5  s      Ryd( 6s)     0.01174     0.00672
  61    I  5  px     Cor( 2p)     2.00000     0.00000
  62    I  5  px     Cor( 4p)     2.00000     0.00000
  63    I  5  px     Cor( 3p)     1.99999     0.00000
  64    I  5  px     Val( 5p)     1.58648     0.32077
  65    I  5  px     Ryd( 6p)     0.02067     0.01492
  66    I  5  py     Cor( 2p)     2.00000     0.00000
  67    I  5  py     Cor( 4p)     2.00000     0.00000
  68    I  5  py     Cor( 3p)     1.99999     0.00000
  69    I  5  py     Val( 5p)     1.82984     0.12502
  70    I  5  py     Ryd( 6p)     0.00703     0.00429
  71    I  5  pz     Cor( 2p)     2.00000     0.00000
  72    I  5  pz     Cor( 4p)     2.00000     0.00000
  73    I  5  pz     Cor( 3p)     2.00000     0.00000
  74    I  5  pz     Val( 5p)     1.94104     0.00367
  75    I  5  pz     Ryd( 6p)     0.00054     0.00009
  76    I  5  dxy    Cor( 3d)     1.99999     0.00000
  77    I  5  dxy    Cor( 4d)     1.99975     0.00005
  78    I  5  dxy    Ryd( 5d)     0.00550     0.00317
  79    I  5  dxz    Cor( 3d)     2.00000     0.00000
  80    I  5  dxz    Cor( 4d)     1.99995     0.00000
  81    I  5  dxz    Ryd( 5d)     0.00082     0.00008
  82    I  5  dyz    Cor( 3d)     2.00000     0.00000
  83    I  5  dyz    Cor( 4d)     1.99998     0.00000
  84    I  5  dyz    Ryd( 5d)     0.00028     0.00003
  85    I  5  dx2y2  Cor( 3d)     2.00000     0.00000
  86    I  5  dx2y2  Cor( 4d)     1.99981     0.00002
  87    I  5  dx2y2  Ryd( 5d)     0.00174     0.00088
  88    I  5  dz2    Cor( 3d)     2.00000     0.00000
  89    I  5  dz2    Cor( 4d)     1.99990     0.00002
  90    I  5  dz2    Ryd( 5d)     0.00197     0.00105

  91    C  6  s      Cor( 1s)     1.99986     0.00000
  92    C  6  s      Val( 2s)     0.80553    -0.00283
  93    C  6  s      Ryd( 3s)     0.00207     0.00033
  94    C  6  px     Val( 2p)     0.83726     0.00120
  95    C  6  px     Ryd( 3p)     0.01131     0.00071
  96    C  6  py     Val( 2p)     1.04870    -0.00300
  97    C  6  py     Ryd( 3p)     0.00427     0.00023
  98    C  6  pz     Val( 2p)     0.99990    -0.01853
  99    C  6  pz     Ryd( 3p)     0.00099     0.00001

 100    C  7  s      Cor( 1s)     1.99991     0.00000
 101    C  7  s      Val( 2s)     0.84969     0.00549
 102    C  7  s      Ryd( 3s)     0.00139     0.00031
 103    C  7  px     Val( 2p)     1.12168     0.00260
 104    C  7  px     Ryd( 3p)     0.00462    -0.00002
 105    C  7  py     Val( 2p)     1.04616    -0.00051
 106    C  7  py     Ryd( 3p)     0.00364     0.00000
 107    C  7  pz     Val( 2p)     1.08072     0.00921
 108    C  7  pz     Ryd( 3p)     0.00137     0.00001

 109    C  8  s      Cor( 1s)     1.99983     0.00000
 110    C  8  s      Val( 2s)     0.92212     0.00027
 111    C  8  s      Ryd( 3s)     0.00142     0.00031
 112    C  8  px     Val( 2p)     1.16953    -0.00068
 113    C  8  px     Ryd( 3p)     0.00628     0.00000
 114    C  8  py     Val( 2p)     1.11252    -0.00115
 115    C  8  py     Ryd( 3p)     0.00495     0.00004
 116    C  8  pz     Val( 2p)     1.06464    -0.02046
 117    C  8  pz     Ryd( 3p)     0.00066    -0.00005

 118    C  9  s      Cor( 1s)     1.99976     0.00000
 119    C  9  s      Val( 2s)     1.03506     0.00052
 120    C  9  s      Ryd( 3s)     0.00040     0.00001
 121    C  9  px     Val( 2p)     1.09129     0.00287
 122    C  9  px     Ryd( 3p)     0.00176     0.00008
 123    C  9  py     Val( 2p)     1.14457     0.00333
 124    C  9  py     Ryd( 3p)     0.00131     0.00008
 125    C  9  pz     Val( 2p)     1.26036     0.00010
 126    C  9  pz     Ryd( 3p)     0.00144     0.00000

 127    C 10  s      Cor( 1s)     1.99977     0.00000
 128    C 10  s      Val( 2s)     1.03970     0.00055
 129    C 10  s      Ryd( 3s)     0.00113     0.00001
 130    C 10  px     Val( 2p)     1.05276    -0.00004
 131    C 10  px     Ryd( 3p)     0.00265     0.00005
 132    C 10  py     Val( 2p)     0.80426    -0.00026
 133    C 10  py     Ryd( 3p)     0.00289     0.00000
 134    C 10  pz     Val( 2p)     1.24111     0.00003
 135    C 10  pz     Ryd( 3p)     0.00137     0.00000

 136    O 11  s      Cor( 1s)     1.99985     0.00000
 137    O 11  s      Val( 2s)     1.58952    -0.00009
 138    O 11  s      Ryd( 3s)     0.00044     0.00000
 139    O 11  px     Val( 2p)     1.67960     0.00544
 140    O 11  px     Ryd( 3p)     0.00170     0.00001
 141    O 11  py     Val( 2p)     1.35870     0.00219
 142    O 11  py     Ryd( 3p)     0.00041     0.00000
 143    O 11  pz     Val( 2p)     1.83283    -0.00418
 144    O 11  pz     Ryd( 3p)     0.00103    -0.00001
 145    O 11  dxy    Ryd( 3d)     0.00444     0.00001
 146    O 11  dxz    Ryd( 3d)     0.00271     0.00001
 147    O 11  dyz    Ryd( 3d)     0.00038    -0.00001
 148    O 11  dx2y2  Ryd( 3d)     0.00293     0.00000
 149    O 11  dz2    Ryd( 3d)     0.00290     0.00001

 150    H 12  s      Val( 1s)     0.76490     0.02758
 151    H 12  s      Ryd( 2s)     0.01080     0.00850

 152    H 13  s      Val( 1s)     0.76017     0.00147
 153    H 13  s      Ryd( 2s)     0.00179     0.00048

 154    H 14  s      Val( 1s)     0.74795     0.00007
 155    H 14  s      Ryd( 2s)     0.00141     0.00006

 156    H 15  s      Val( 1s)     0.74814     0.00019
 157    H 15  s      Ryd( 2s)     0.00156     0.00008

 158    H 16  s      Val( 1s)     0.77605     0.00004
 159    H 16  s      Ryd( 2s)     0.00137     0.00000

 160    H 17  s      Val( 1s)     0.77779     0.00000
 161    H 17  s      Ryd( 2s)     0.00158     0.00000


 Summary of Natural Population Analysis:

                                     Natural Population                 Natural
             Natural    ---------------------------------------------    Spin
  Atom No    Charge        Core      Valence    Rydberg      Total      Density
 -------------------------------------------------------------------------------
   Br  1   -0.04734     27.99878     7.02944    0.01913    35.04734     0.05146
    C  2   -0.15399      1.99989     4.13952    0.01458     6.15399     0.05103
    C  3   -0.25655      1.99986     4.24033    0.01636     6.25655    -0.03376
    C  4   -0.35270      1.99985     4.32406    0.02879     6.35270     0.38257
    I  5   -0.33581     45.99936     7.28616    0.05029    53.33581     0.52603
    C  6    0.29011      1.99986     3.69139    0.01864     5.70989    -0.02188
    C  7   -0.10919      1.99991     4.09826    0.01103     6.10919     0.01710
    C  8   -0.28197      1.99983     4.26882    0.01332     6.28197    -0.02172
    C  9   -0.53595      1.99976     4.53128    0.00492     6.53595     0.00698
    C 10   -0.14563      1.99977     4.13783    0.00803     6.14563     0.00034
    O 11   -0.47744      1.99985     6.46065    0.01694     8.47744     0.00339
    H 12    0.22430      0.00000     0.76490    0.01080     0.77570     0.03608
    H 13    0.23804      0.00000     0.76017    0.00179     0.76196     0.00195
    H 14    0.25064      0.00000     0.74795    0.00141     0.74936     0.00013
    H 15    0.25030      0.00000     0.74814    0.00156     0.74970     0.00027
    H 16    0.22257      0.00000     0.77605    0.00137     0.77743     0.00004
    H 17    0.22063      0.00000     0.77779    0.00158     0.77937    -0.00001
 ===============================================================================
 * Total * -1.00000     91.99672    58.78274    0.22054   151.00000     1.00000

                                 Natural Population
 ---------------------------------------------------------
   Core                      91.99672 ( 99.9964% of   92)
   Valence                   58.78274 ( 99.6318% of   59)
   Natural Minimal Basis    150.77946 ( 99.8539% of  151)
   Natural Rydberg Basis      0.22054 (  0.1461% of  151)
 ---------------------------------------------------------

    Atom No         Natural Electron Configuration
 ----------------------------------------------------------------------------
     Br  1      [core]4s( 1.87)4p( 5.16)4d( 0.01)5p( 0.01)
      C  2      [core]2s( 0.94)2p( 3.20)3p( 0.01)
      C  3      [core]2s( 0.94)2p( 3.30)3p( 0.02)
      C  4      [core]2s( 1.03)2p( 3.29)3s( 0.01)3p( 0.02)
      I  5      [core]5s( 1.93)5p( 5.36)6s( 0.01)5d( 0.01)6p( 0.03)
      C  6      [core]2s( 0.81)2p( 2.89)3p( 0.02)
      C  7      [core]2s( 0.85)2p( 3.25)3p( 0.01)
      C  8      [core]2s( 0.92)2p( 3.35)3p( 0.01)
      C  9      [core]2s( 1.04)2p( 3.50)
      C 10      [core]2s( 1.04)2p( 3.10)3p( 0.01)
      O 11      [core]2s( 1.59)2p( 4.87)3d( 0.01)
      H 12            1s( 0.76)2s( 0.01)
      H 13            1s( 0.76)
      H 14            1s( 0.75)
      H 15            1s( 0.75)
      H 16            1s( 0.78)
      H 17            1s( 0.78)


 ***************************************************
 *******         Alpha spin orbitals         *******
 ***************************************************


 NATURAL POPULATIONS:  Natural atomic orbital occupancies

  NAO Atom No lang   Type(AO)    Occupancy      Energy
 -------------------------------------------------------
   1   Br  1  s      Cor( 3s)     1.00000     -21.41966
   2   Br  1  s      Cor( 1s)     1.00000    -450.01747
   3   Br  1  s      Cor( 2s)     1.00000     -79.76052
   4   Br  1  s      Val( 4s)     0.93704      -0.63537
   5   Br  1  s      Ryd( 5s)     0.00178       0.97456
   6   Br  1  px     Cor( 3p)     1.00000      -6.94445
   7   Br  1  px     Cor( 2p)     0.99999     -55.61499
   8   Br  1  px     Val( 4p)     0.71340      -0.14307
   9   Br  1  px     Ryd( 5p)     0.00261       0.87002
  10   Br  1  py     Cor( 3p)     1.00000      -6.93734
  11   Br  1  py     Cor( 2p)     1.00000     -55.61318
  12   Br  1  py     Val( 4p)     0.90883      -0.20468
  13   Br  1  py     Ryd( 5p)     0.00097       0.88876
  14   Br  1  pz     Cor( 3p)     1.00000      -6.93442
  15   Br  1  pz     Cor( 2p)     1.00000     -55.61240
  16   Br  1  pz     Val( 4p)     0.98024      -0.22686
  17   Br  1  pz     Ryd( 5p)     0.00032       0.85738
  18   Br  1  dxy    Cor( 3d)     0.99976      -2.63192
  19   Br  1  dxy    Ryd( 4d)     0.00177       1.11232
  20   Br  1  dxz    Cor( 3d)     0.99995      -2.62954
  21   Br  1  dxz    Ryd( 4d)     0.00095       0.83799
  22   Br  1  dyz    Cor( 3d)     0.99998      -2.62401
  23   Br  1  dyz    Ryd( 4d)     0.00031       0.79616
  24   Br  1  dx2y2  Cor( 3d)     0.99981      -2.63182
  25   Br  1  dx2y2  Ryd( 4d)     0.00105       1.08050
  26   Br  1  dz2    Cor( 3d)     0.99990      -2.62517
  27   Br  1  dz2    Ryd( 4d)     0.00074       0.89694

  28    C  2  s      Cor( 1s)     0.99995     -10.13564
  29    C  2  s      Val( 2s)     0.47926       0.01259
  30    C  2  s      Ryd( 3s)     0.00051       0.86576
  31    C  2  px     Val( 2p)     0.49810       0.04508
  32    C  2  px     Ryd( 3p)     0.00331       1.44830
  33    C  2  py     Val( 2p)     0.55172       0.07681
  34    C  2  py     Ryd( 3p)     0.00331       1.31395
  35    C  2  pz     Val( 2p)     0.56607      -0.01432
  36    C  2  pz     Ryd( 3p)     0.00031       1.09570

  37    C  3  s      Cor( 1s)     0.99993     -10.08387
  38    C  3  s      Val( 2s)     0.46682       0.09402
  39    C  3  s      Ryd( 3s)     0.00063       0.87571
  40    C  3  px     Val( 2p)     0.53359       0.13559
  41    C  3  px     Ryd( 3p)     0.00300       1.15334
  42    C  3  py     Val( 2p)     0.61229       0.07902
  43    C  3  py     Ryd( 3p)     0.00524       1.49271
  44    C  3  pz     Val( 2p)     0.48965       0.04201
  45    C  3  pz     Ryd( 3p)     0.00024       1.09033

  46    C  4  s      Cor( 1s)     0.99994     -10.06211
  47    C  4  s      Val( 2s)     0.57805       0.02145
  48    C  4  s      Ryd( 3s)     0.00507       0.90447
  49    C  4  px     Val( 2p)     0.67219       0.04022
  50    C  4  px     Ryd( 3p)     0.00747       1.42839
  51    C  4  py     Val( 2p)     0.59687       0.09800
  52    C  4  py     Ryd( 3p)     0.00546       1.30619
  53    C  4  pz     Val( 2p)     0.50208       0.04063
  54    C  4  pz     Ryd( 3p)     0.00053       1.13913

  55    I  5  s      Cor( 2s)     1.00000    -330.44554
  56    I  5  s      Cor( 1s)     1.00000    -852.05587
  57    I  5  s      Cor( 4s)     1.00000     -60.95526
  58    I  5  s      Cor( 3s)     1.00000    -133.20696
  59    I  5  s      Val( 5s)     0.98702      -0.46565
  60    I  5  s      Ryd( 6s)     0.00923       0.69450
  61    I  5  px     Cor( 2p)     1.00000    -101.36199
  62    I  5  px     Cor( 4p)     1.00000      -7.58682
  63    I  5  px     Cor( 3p)     1.00000     -90.87701
  64    I  5  px     Val( 5p)     0.95362      -0.09645
  65    I  5  px     Ryd( 6p)     0.01780       0.75764
  66    I  5  py     Cor( 2p)     1.00000    -101.36061
  67    I  5  py     Cor( 4p)     1.00000      -7.58224
  68    I  5  py     Cor( 3p)     1.00000     -90.87604
  69    I  5  py     Val( 5p)     0.97743      -0.11666
  70    I  5  py     Ryd( 6p)     0.00566       0.75095
  71    I  5  pz     Cor( 2p)     1.00000    -101.36006
  72    I  5  pz     Cor( 4p)     1.00000      -7.58027
  73    I  5  pz     Cor( 3p)     1.00000     -90.87559
  74    I  5  pz     Val( 5p)     0.97236      -0.12427
  75    I  5  pz     Ryd( 6p)     0.00031       0.69522
  76    I  5  dxy    Cor( 3d)     1.00000     -16.21836
  77    I  5  dxy    Cor( 4d)     0.99990      -8.49623
  78    I  5  dxy    Ryd( 5d)     0.00434       1.23537
  79    I  5  dxz    Cor( 3d)     1.00000     -16.21751
  80    I  5  dxz    Cor( 4d)     0.99997      -8.49456
  81    I  5  dxz    Ryd( 5d)     0.00045       0.92445
  82    I  5  dyz    Cor( 3d)     1.00000     -16.21583
  83    I  5  dyz    Cor( 4d)     0.99999      -8.49131
  84    I  5  dyz    Ryd( 5d)     0.00016       0.88788
  85    I  5  dx2y2  Cor( 3d)     1.00000     -16.21822
  86    I  5  dx2y2  Cor( 4d)     0.99991      -8.49606
  87    I  5  dx2y2  Ryd( 5d)     0.00131       1.12597
  88    I  5  dz2    Cor( 3d)     1.00000     -16.21622
  89    I  5  dz2    Cor( 4d)     0.99996      -8.49209
  90    I  5  dz2    Ryd( 5d)     0.00151       1.00062

  91    C  6  s      Cor( 1s)     0.99993     -10.14118
  92    C  6  s      Val( 2s)     0.40135       0.12502
  93    C  6  s      Ryd( 3s)     0.00120       0.90432
  94    C  6  px     Val( 2p)     0.41923       0.16648
  95    C  6  px     Ryd( 3p)     0.00601       1.34080
  96    C  6  py     Val( 2p)     0.52285       0.12794
  97    C  6  py     Ryd( 3p)     0.00225       1.49238
  98    C  6  pz     Val( 2p)     0.49069       0.02593
  99    C  6  pz     Ryd( 3p)     0.00050       1.11090

 100    C  7  s      Cor( 1s)     0.99995     -10.10473
 101    C  7  s      Val( 2s)     0.42759       0.10787
 102    C  7  s      Ryd( 3s)     0.00085       0.86060
 103    C  7  px     Val( 2p)     0.56214       0.10215
 104    C  7  px     Ryd( 3p)     0.00230       1.42839
 105    C  7  py     Val( 2p)     0.52283       0.09865
 106    C  7  py     Ryd( 3p)     0.00182       1.64392
 107    C  7  pz     Val( 2p)     0.54497       0.01058
 108    C  7  pz     Ryd( 3p)     0.00069       1.13975

 109    C  8  s      Cor( 1s)     0.99992     -10.10314
 110    C  8  s      Val( 2s)     0.46119       0.08777
 111    C  8  s      Ryd( 3s)     0.00087       0.84819
 112    C  8  px     Val( 2p)     0.58442       0.08583
 113    C  8  px     Ryd( 3p)     0.00314       1.38498
 114    C  8  py     Val( 2p)     0.55569       0.09595
 115    C  8  py     Ryd( 3p)     0.00250       1.24140
 116    C  8  pz     Val( 2p)     0.52209       0.01418
 117    C  8  pz     Ryd( 3p)     0.00031       1.07304

 118    C  9  s      Cor( 1s)     0.99988     -10.13014
 119    C  9  s      Val( 2s)     0.51779      -0.05401
 120    C  9  s      Ryd( 3s)     0.00021       1.32725
 121    C  9  px     Val( 2p)     0.54708       0.01466
 122    C  9  px     Ryd( 3p)     0.00092       1.08203
 123    C  9  py     Val( 2p)     0.57395       0.02184
 124    C  9  py     Ryd( 3p)     0.00069       1.03575
 125    C  9  pz     Val( 2p)     0.63023      -0.00826
 126    C  9  pz     Ryd( 3p)     0.00072       1.24031

 127    C 10  s      Cor( 1s)     0.99989     -10.17415
 128    C 10  s      Val( 2s)     0.52012      -0.09074
 129    C 10  s      Ryd( 3s)     0.00057       1.22115
 130    C 10  px     Val( 2p)     0.52636       0.02776
 131    C 10  px     Ryd( 3p)     0.00135       1.04298
 132    C 10  py     Val( 2p)     0.40200       0.06355
 133    C 10  py     Ryd( 3p)     0.00144       1.05224
 134    C 10  pz     Val( 2p)     0.62057      -0.00913
 135    C 10  pz     Ryd( 3p)     0.00068       1.19146

 136    O 11  s      Cor( 1s)     0.99993     -19.04455
 137    O 11  s      Val( 2s)     0.79472      -0.61604
 138    O 11  s      Ryd( 3s)     0.00022       1.98983
 139    O 11  px     Val( 2p)     0.84252      -0.23216
 140    O 11  px     Ryd( 3p)     0.00085       2.02015
 141    O 11  py     Val( 2p)     0.68044      -0.16372
 142    O 11  py     Ryd( 3p)     0.00021       2.29426
 143    O 11  pz     Val( 2p)     0.91433      -0.22884
 144    O 11  pz     Ryd( 3p)     0.00051       1.84237
 145    O 11  dxy    Ryd( 3d)     0.00222       2.40362
 146    O 11  dxz    Ryd( 3d)     0.00136       2.01901
 147    O 11  dyz    Ryd( 3d)     0.00019       2.11327
 148    O 11  dx2y2  Ryd( 3d)     0.00147       2.36942
 149    O 11  dz2    Ryd( 3d)     0.00146       2.25058

 150    H 12  s      Val( 1s)     0.39624       0.28115
 151    H 12  s      Ryd( 2s)     0.00965       0.77727

 152    H 13  s      Val( 1s)     0.38082       0.25674
 153    H 13  s      Ryd( 2s)     0.00114       0.73810

 154    H 14  s      Val( 1s)     0.37401       0.22490
 155    H 14  s      Ryd( 2s)     0.00074       0.70860

 156    H 15  s      Val( 1s)     0.37416       0.22455
 157    H 15  s      Ryd( 2s)     0.00082       0.71085

 158    H 16  s      Val( 1s)     0.38805       0.21320
 159    H 16  s      Ryd( 2s)     0.00069       0.69176

 160    H 17  s      Val( 1s)     0.38889       0.21186
 161    H 17  s      Ryd( 2s)     0.00079       0.69526


 Summary of Natural Population Analysis:

                                     Natural Population
             Natural    ---------------------------------------------
  Atom No    Charge        Core      Valence    Rydberg      Total
 --------------------------------------------------------------------
   Br  1   -0.04940     13.99939     3.53951    0.01050    17.54940
    C  2   -0.10251      0.99995     2.09514    0.00743     3.10251
    C  3   -0.11140      0.99993     2.10236    0.00911     3.11140
    C  4   -0.36764      0.99994     2.34918    0.01852     3.36764
    I  5   -0.43092     22.99972     3.89043    0.04076    26.93092
    C  6    0.15600      0.99993     1.83411    0.00996     2.84400
    C  7   -0.06315      0.99995     2.05753    0.00566     3.06315
    C  8   -0.13012      0.99992     2.12340    0.00681     3.13012
    C  9   -0.27147      0.99988     2.26905    0.00254     3.27147
    C 10   -0.07298      0.99989     2.06905    0.00405     3.07298
    O 11   -0.24042      0.99993     3.23201    0.00848     4.24042
    H 12    0.09411      0.00000     0.39624    0.00965     0.40589
    H 13    0.11805      0.00000     0.38082    0.00114     0.38195
    H 14    0.12525      0.00000     0.37401    0.00074     0.37475
    H 15    0.12502      0.00000     0.37416    0.00082     0.37498
    H 16    0.11127      0.00000     0.38805    0.00069     0.38873
    H 17    0.11032      0.00000     0.38889    0.00079     0.38968
 ====================================================================
 * Total * -1.00000     45.99842    29.86394    0.13763    76.00000

                                 Natural Population
 ---------------------------------------------------------
   Core                      45.99842 ( 99.9966% of   46)
   Valence                   29.86394 ( 99.5465% of   30)
   Natural Minimal Basis     75.86237 ( 99.8189% of   76)
   Natural Rydberg Basis      0.13763 (  0.1811% of   76)
 ---------------------------------------------------------

    Atom No         Natural Electron Configuration
 ----------------------------------------------------------------------------
     Br  1      [core]4s( 0.94)4p( 2.60)
      C  2      [core]2s( 0.48)2p( 1.62)3p( 0.01)
      C  3      [core]2s( 0.47)2p( 1.64)3p( 0.01)
      C  4      [core]2s( 0.58)2p( 1.77)3s( 0.01)3p( 0.01)
      I  5      [core]5s( 0.99)5p( 2.90)6s( 0.01)5d( 0.01)6p( 0.02)
      C  6      [core]2s( 0.40)2p( 1.43)3p( 0.01)
      C  7      [core]2s( 0.43)2p( 1.63)
      C  8      [core]2s( 0.46)2p( 1.66)3p( 0.01)
      C  9      [core]2s( 0.52)2p( 1.75)
      C 10      [core]2s( 0.52)2p( 1.55)
      O 11      [core]2s( 0.79)2p( 2.44)3d( 0.01)
      H 12            1s( 0.40)2s( 0.01)
      H 13            1s( 0.38)
      H 14            1s( 0.37)
      H 15            1s( 0.37)
      H 16            1s( 0.39)
      H 17            1s( 0.39)


 NATURAL BOND ORBITAL ANALYSIS, alpha spin orbitals:

                            Occupancies       Lewis Structure    Low   High
         Max    Occ     -------------------  -----------------   occ   occ
  Cycle  Ctr   Thresh    Lewis   non-Lewis     CR  BD  nC  LP    (L)   (NL)
 ============================================================================
    1     2     0.95    74.13967   1.86033     46  18   0  12     5      3
    2     2     0.93    74.13967   1.86033     46  18   0  12     4      3
    3     2     0.91    74.06934   1.93066     46  17   0  13     4      3
    4     2     0.89    74.06934   1.93066     46  17   0  13     4      3
    5     2     0.87    74.11914   1.88086     46  17   0  13     3      3
    6     2     0.86    74.42112   1.57888     46  18   0  12     2      3
    7     2     0.85    74.71086   1.28914     46  19   0  11     1      3
    8     2     0.82    74.99440   1.00560     46  20   0  10     0      3
    9     2     0.79    75.00739   0.99261     46  20   0  10     0      3
 ----------------------------------------------------------------------------

 Structure accepted: No low occupancy Lewis orbitals

 -------------------------------------------------------
   Core                     45.99842 ( 99.997% of  46)
   Valence Lewis            29.00896 ( 96.697% of  30)
  ==================      =============================
   Total Lewis              75.00739 ( 98.694% of  76)
  -----------------------------------------------------
   Valence non-Lewis         0.89160 (  1.173% of  76)
   Rydberg non-Lewis         0.10101 (  0.133% of  76)
  ==================      =============================
   Total non-Lewis           0.99261 (  1.306% of  76)
 -------------------------------------------------------


     (Occupancy)   Bond orbital / Coefficients / Hybrids
[...]
   65. BD ( 1) C  6- O 11      83. BD*( 1) C  4- C  6      0.57    1.60   0.038
   65. BD ( 1) C  6- O 11      87. BD*( 1) C  7- C  8      0.64    1.60   0.040
   65. BD ( 1) C  6- O 11      91. BD*( 1) C  9- C 10      0.37    1.29   0.028
   65. BD ( 1) C  6- O 11      95. BD*( 1) C 10- H 16      0.26    1.39   0.024
   66. BD ( 1) C  7- C  8      76. BD*( 1)Br  1- C  2      1.91    0.88   0.052
   66. BD ( 1) C  7- C  8      79. BD*( 1) C  2- C  8      1.89    1.36   0.064
   66. BD ( 1) C  7- C  8      85. BD*( 1) C  6- C  7      2.34    1.36   0.071
   66. BD ( 1) C  7- C  8      86. BD*( 1) C  6- O 11      1.09    1.18   0.045
   66. BD ( 1) C  7- C  8      89. BD*( 1) C  7- C  9      1.58    1.20   0.055
   66. BD ( 1) C  7- C  8      90. BD*( 1) C  8- H 13      1.04    1.27   0.046
   66. BD ( 1) C  7- C  8     106. RY ( 1) C  2            1.21    1.82   0.059
   66. BD ( 1) C  7- C  8     107. RY ( 2) C  2            0.26    2.07   0.029
   66. BD ( 1) C  7- C  8     128. RY ( 2) C  6            0.97    2.03   0.056
   66. BD ( 1) C  7- C  8     139. RY ( 1) C  9            0.44    1.66   0.034
   67. BD ( 2) C  7- C  8      78. BD*( 2) C  2- C  3     16.27    0.39   0.101
   67. BD ( 2) C  7- C  8      84. BD*( 2) C  4- C  6     12.44    0.42   0.092
   67. BD ( 2) C  7- C  8      92. BD*( 1) C  9- H 14      1.18    0.83   0.039
   67. BD ( 2) C  7- C  8      93. BD*( 1) C  9- H 15      1.31    0.83   0.042
   67. BD ( 2) C  7- C  8     108. RY ( 3) C  2            0.29    1.29   0.025
   67. BD ( 2) C  7- C  8     130. RY ( 4) C  6            0.29    1.30   0.024
   68. BD ( 1) C  7- C  9      79. BD*( 1) C  2- C  8      0.62    1.31   0.036
   68. BD ( 1) C  7- C  9      83. BD*( 1) C  4- C  6      1.31    1.36   0.053
   68. BD ( 1) C  7- C  9      85. BD*( 1) C  6- C  7      0.82    1.31   0.041
   68. BD ( 1) C  7- C  9      86. BD*( 1) C  6- O 11      0.89    1.13   0.040
   68. BD ( 1) C  7- C  9      87. BD*( 1) C  7- C  8      1.65    1.35   0.060
   68. BD ( 1) C  7- C  9      91. BD*( 1) C  9- C 10      0.41    1.05   0.026
   68. BD ( 1) C  7- C  9      92. BD*( 1) C  9- H 14      0.51    1.15   0.030
   68. BD ( 1) C  7- C  9      93. BD*( 1) C  9- H 15      0.49    1.15   0.030
   68. BD ( 1) C  7- C  9      94. BD*( 1) C 10- O 11      1.73    0.98   0.052
   68. BD ( 1) C  7- C  9      95. BD*( 1) C 10- H 16      0.28    1.15   0.023
   68. BD ( 1) C  7- C  9     127. RY ( 1) C  6            0.57    1.85   0.041
   68. BD ( 1) C  7- C  9     135. RY ( 1) C  8            0.86    1.93   0.052
   69. BD ( 1) C  8- H 13      76. BD*( 1)Br  1- C  2      0.38    0.77   0.022
   69. BD ( 1) C  8- H 13      77. BD*( 1) C  2- C  3      1.19    1.27   0.049
   69. BD ( 1) C  8- H 13      79. BD*( 1) C  2- C  8      0.53    1.25   0.033
   69. BD ( 1) C  8- H 13      85. BD*( 1) C  6- C  7      1.54    1.25   0.055
   69. BD ( 1) C  8- H 13      87. BD*( 1) C  7- C  8      0.72    1.30   0.038
   69. BD ( 1) C  8- H 13     107. RY ( 2) C  2            0.90    1.96   0.053
   69. BD ( 1) C  8- H 13     131. RY ( 1) C  7            0.74    2.04   0.049
   70. BD ( 1) C  9- C 10      85. BD*( 1) C  6- C  7      0.30    1.32   0.025
   70. BD ( 1) C  9- C 10      87. BD*( 1) C  7- C  8      1.79    1.37   0.062
   70. BD ( 1) C  9- C 10      89. BD*( 1) C  7- C  9      0.59    1.16   0.033
   70. BD ( 1) C  9- C 10      92. BD*( 1) C  9- H 14      0.28    1.17   0.023
   70. BD ( 1) C  9- C 10      93. BD*( 1) C  9- H 15      0.28    1.16   0.023
   70. BD ( 1) C  9- C 10     132. RY ( 2) C  7            0.33    1.92   0.032
   71. BD ( 1) C  9- H 14      85. BD*( 1) C  6- C  7      0.27    1.26   0.023
   71. BD ( 1) C  9- H 14      88. BD*( 2) C  7- C  8      1.93    0.67   0.045
   71. BD ( 1) C  9- H 14      89. BD*( 1) C  7- C  9      0.39    1.10   0.026
   71. BD ( 1) C  9- H 14      94. BD*( 1) C 10- O 11      0.52    0.93   0.028
   71. BD ( 1) C  9- H 14      95. BD*( 1) C 10- H 16      0.26    1.10   0.022
   71. BD ( 1) C  9- H 14      96. BD*( 1) C 10- H 17      0.26    1.10   0.021
   71. BD ( 1) C  9- H 14     133. RY ( 3) C  7            0.37    1.60   0.031
   71. BD ( 1) C  9- H 14     145. RY ( 3) C 10            0.27    1.64   0.027
   72. BD ( 1) C  9- H 15      88. BD*( 2) C  7- C  8      2.25    0.66   0.049
   72. BD ( 1) C  9- H 15      89. BD*( 1) C  7- C  9      0.41    1.09   0.027
   72. BD ( 1) C  9- H 15      94. BD*( 1) C 10- O 11      0.30    0.93   0.021
   72. BD ( 1) C  9- H 15      95. BD*( 1) C 10- H 16      0.26    1.10   0.022
   72. BD ( 1) C  9- H 15      96. BD*( 1) C 10- H 17      0.39    1.10   0.026
   72. BD ( 1) C  9- H 15     133. RY ( 3) C  7            0.40    1.60   0.032
   73. BD ( 1) C 10- O 11      83. BD*( 1) C  4- C  6      2.07    1.52   0.071
   73. BD ( 1) C 10- O 11      85. BD*( 1) C  6- C  7      0.33    1.47   0.028
   73. BD ( 1) C 10- O 11      89. BD*( 1) C  7- C  9      0.38    1.31   0.028
   73. BD ( 1) C 10- O 11     127. RY ( 1) C  6            0.65    2.01   0.046
   73. BD ( 1) C 10- O 11     128. RY ( 2) C  6            0.36    2.14   0.035
   74. BD ( 1) C 10- H 16      86. BD*( 1) C  6- O 11      0.41    1.10   0.027
   74. BD ( 1) C 10- H 16      92. BD*( 1) C  9- H 14      0.31    1.12   0.024
   74. BD ( 1) C 10- H 16      93. BD*( 1) C  9- H 15      0.29    1.12   0.023
   74. BD ( 1) C 10- H 16     140. RY ( 2) C  9            0.31    1.71   0.029
   75. BD ( 1) C 10- H 17      86. BD*( 1) C  6- O 11      0.35    1.09   0.025
   75. BD ( 1) C 10- H 17      92. BD*( 1) C  9- H 14      0.28    1.12   0.022
   75. BD ( 1) C 10- H 17      93. BD*( 1) C  9- H 15      0.46    1.12   0.029


 NATURAL BOND ORBITALS (Summary):

                                                     Principal Delocalizations
           NBO                 Occupancy    Energy   (geminal,vicinal,remote)
 ===============================================================================
 Molecular unit  1  (C8H6IOBr)
 ------ Lewis --------------------------------------
    1. CR ( 1)Br  1             1.00000   -21.41943
    2. CR ( 2)Br  1             1.00000  -450.01731
    3. CR ( 3)Br  1             1.00000   -79.76042
    4. CR ( 4)Br  1             1.00000    -6.94406
    5. CR ( 5)Br  1             0.99999   -55.61471
    6. CR ( 6)Br  1             1.00000    -6.93716
    7. CR ( 7)Br  1             1.00000   -55.61306
    8. CR ( 8)Br  1             1.00000    -6.93429
    9. CR ( 9)Br  1             1.00000   -55.61232
   10. CR (10)Br  1             0.99975    -2.63170  99(g)
   11. CR (11)Br  1             0.99995    -2.62934
   12. CR (12)Br  1             0.99998    -2.62390
   13. CR (13)Br  1             0.99981    -2.63159
   14. CR (14)Br  1             0.99990    -2.62504
   15. CR ( 1) C  2             0.99995   -10.13448
   16. CR ( 1) C  3             0.99993   -10.08436
   17. CR ( 1) C  4             0.99991   -10.05389
   18. CR ( 1) I  5             1.00000  -330.44491
   19. CR ( 2) I  5             1.00000  -852.05525
   20. CR ( 3) I  5             1.00000   -60.95396
   21. CR ( 4) I  5             1.00000  -133.20613
   22. CR ( 5) I  5             1.00000  -101.36107
   23. CR ( 6) I  5             1.00000    -7.58479
   24. CR ( 7) I  5             1.00000   -90.87578
   25. CR ( 8) I  5             1.00000  -101.35992
   26. CR ( 9) I  5             1.00000    -7.58079
   27. CR (10) I  5             1.00000   -90.87531
   28. CR (11) I  5             1.00000  -101.35957
   29. CR (12) I  5             1.00000    -7.57932
   30. CR (13) I  5             1.00000   -90.87524
   31. CR (14) I  5             1.00000   -16.21726
   32. CR (15) I  5             0.99985    -8.49467  121(g)
   33. CR (16) I  5             1.00000   -16.21684
   34. CR (17) I  5             0.99997    -8.49351
   35. CR (18) I  5             1.00000   -16.21528
   36. CR (19) I  5             0.99999    -8.49042
   37. CR (20) I  5             1.00000   -16.21735
   38. CR (21) I  5             0.99990    -8.49476
   39. CR (22) I  5             1.00000   -16.21555
   40. CR (23) I  5             0.99994    -8.49107
   41. CR ( 1) C  6             0.99993   -10.14159
   42. CR ( 1) C  7             0.99995   -10.10433
   43. CR ( 1) C  8             0.99992   -10.10346
   44. CR ( 1) C  9             0.99988   -10.12999  142(g)
   45. CR ( 1) C 10             0.99989   -10.17414
   46. CR ( 1) O 11             0.99993   -19.04445  149(g)
   47. LP ( 1)Br  1             0.99869    -0.61997  107(v)
   48. LP ( 2)Br  1             0.99225    -0.22880  79(v),77(v),106(v)
   49. LP ( 3)Br  1             0.97947    -0.22573  78(v)
   50. LP ( 1) I  5             0.99897    -0.43358
   51. LP ( 2) I  5             0.99157    -0.11750  83(v),80(v),114(v)
   52. LP ( 3) I  5             0.96875    -0.11337  84(v)
   53. LP ( 1) O 11             0.98323    -0.43312  85(v),91(v),127(v),143(v)
                                                     83(v),82(r),87(r),95(v)
   54. LP ( 2) O 11             0.92001    -0.23290  84(v),96(v),95(v),88(r)
   55. BD ( 1)Br  1- C  2       0.99391    -0.48421  110(v),87(v),135(v),80(v)
   56. BD ( 1) C  2- C  3       0.98849    -0.56206  79(g),80(g),82(v),81(g)
                                                     90(v),114(v),135(v),115(v)
   57. BD ( 2) C  2- C  3       0.85970    -0.18007  88(v),84(v),97(v),138(v)
                                                     116(v)
   58. BD ( 1) C  2- C  8       0.98872    -0.56932  77(g),89(v),87(g),132(v)
                                                     90(g),81(v),111(v),110(v)
   59. BD ( 1) C  3- C  4       0.98420    -0.52842  86(v),76(v),77(g),83(g)
                                                     81(g),107(v),127(v),106(v)
                                                     128(v)
   60. BD ( 1) C  3- H 12       0.98978    -0.41764  79(v),83(v),80(g),115(v)
                                                     107(v),77(g),76(v)
   61. BD ( 1) C  4- I  5       0.98711    -0.32355  85(v),77(v),86(v),110(v)
                                                     127(v),81(v)
   62. BD ( 1) C  4- C  6       0.98817    -0.55647  85(g),80(g),131(v),111(v)
                                                     81(v),94(v),89(v),86(g)
                                                     147(v),110(v)
   63. BD ( 2) C  4- C  6       0.78659    -0.14817  88(v),78(v),119(v),113(v)
                                                     148(v),133(v)
   64. BD ( 1) C  6- C  7       0.98369    -0.55135  83(g),87(g),82(v),114(v)
                                                     90(v),136(v),89(g),91(v)
                                                     115(v),92(v),139(v)
   65. BD ( 1) C  6- O 11       0.99557    -0.74952  87(v),83(g),91(v),80(v)
                                                     95(v)
   66. BD ( 1) C  7- C  8       0.98312    -0.56171  85(g),76(v),79(g),89(g)
                                                     106(v),86(v),90(g),128(v)
                                                     139(v),107(v)
   67. BD ( 2) C  7- C  8       0.86773    -0.18765  78(v),84(v),93(v),92(v)
                                                     108(v),130(v)
   68. BD ( 1) C  7- C  9       0.98497    -0.50758  94(v),87(g),83(v),86(v)
                                                     135(v),85(g),79(v),127(v)
                                                     92(g),93(g),91(g),95(v)
   69. BD ( 1) C  8- H 13       0.99096    -0.44971  85(v),77(v),107(v),131(v)
                                                     87(g),79(g),76(v)
   70. BD ( 1) C  9- C 10       0.99517    -0.52156  87(v),89(g),132(v),85(v)
                                                     92(g),93(g)
   71. BD ( 1) C  9- H 14       0.99102    -0.45948  88(v),94(v),89(g),133(v)
                                                     85(v),145(v),95(v),96(v)
   72. BD ( 1) C  9- H 15       0.99076    -0.45775  88(v),89(g),133(v),96(v)
                                                     94(v),95(v)
   73. BD ( 1) C 10- O 11       0.99532    -0.67001  83(v),127(v),89(v),128(v)
                                                     85(v)
   74. BD ( 1) C 10- H 16       0.99619    -0.47815  86(v),140(v),92(v),93(v)
   75. BD ( 1) C 10- H 17       0.99621    -0.47630  93(v),86(v),92(v)
 ------ non-Lewis ----------------------------------
   76. BD*( 1)Br  1- C  2       0.01397     0.32314
   77. BD*( 1) C  2- C  3       0.01152     0.82407
   78. BD*( 2) C  2- C  3       0.20558     0.20541
   79. BD*( 1) C  2- C  8       0.01096     0.80258
   80. BD*( 1) C  3- C  4       0.00900     0.85376
   81. BD*( 1) C  3- H 12       0.00664     0.74253
   82. BD*( 1) C  4- I  5       0.00877     0.35978
   83. BD*( 1) C  4- C  6       0.01294     0.85091
   84. BD*( 2) C  4- C  6       0.18638     0.23586
   85. BD*( 1) C  6- C  7       0.01738     0.80016
   86. BD*( 1) C  6- O 11       0.01311     0.61815
   87. BD*( 1) C  7- C  8       0.01190     0.84606
   88. BD*( 2) C  7- C  8       0.21070     0.20708
   89. BD*( 1) C  7- C  9       0.00992     0.63707
   90. BD*( 1) C  8- H 13       0.00657     0.70524
   91. BD*( 1) C  9- C 10       0.00897     0.54296
   92. BD*( 1) C  9- H 14       0.00647     0.64379
   93. BD*( 1) C  9- H 15       0.00689     0.64188
   94. BD*( 1) C 10- O 11       0.00854     0.47468
   95. BD*( 1) C 10- H 16       0.00836     0.64438
   96. BD*( 1) C 10- H 17       0.00931     0.64118
   97. RY ( 1)Br  1             0.00126     0.82047
   98. RY ( 2)Br  1             0.00049     0.88212
   99. RY ( 3)Br  1             0.00030     1.19776
  100. RY ( 4)Br  1             0.00016     1.01370
  101. RY ( 5)Br  1             0.00005     1.06903
  102. RY ( 6)Br  1             0.00004     0.78541
  103. RY ( 7)Br  1             0.00002     0.81054
  104. RY ( 8)Br  1             0.00001     0.88961
  105. RY ( 9)Br  1             0.00000     0.84202
  106. RY ( 1) C  2             0.00289     1.25719
  107. RY ( 2) C  2             0.00246     1.50589
  108. RY ( 3) C  2             0.00032     1.09760
  109. RY ( 4) C  2             0.00016     0.86340
  110. RY ( 1) C  3             0.00305     1.48711
  111. RY ( 2) C  3             0.00187     1.14526
  112. RY ( 3) C  3             0.00023     0.88085
  113. RY ( 4) C  3             0.00021     1.08996
  114. RY ( 1) C  4             0.00303     1.24553
  115. RY ( 2) C  4             0.00153     1.49549
  116. RY ( 3) C  4             0.00044     1.14761
  117. RY ( 4) C  4             0.00013     0.91356
  118. RY ( 1) I  5             0.00076     0.76690
  119. RY ( 2) I  5             0.00061     0.84334
  120. RY ( 3) I  5             0.00029     0.82491
  121. RY ( 4) I  5             0.00012     1.37089
  122. RY ( 5) I  5             0.00006     0.94352
  123. RY ( 6) I  5             0.00003     0.81902
  124. RY ( 7) I  5             0.00001     0.90699
  125. RY ( 8) I  5             0.00001     0.87550
  126. RY ( 9) I  5             0.00000     0.79120
  127. RY ( 1) C  6             0.00351     1.33879
  128. RY ( 2) C  6             0.00185     1.46538
  129. RY ( 3) C  6             0.00076     0.93568
  130. RY ( 4) C  6             0.00035     1.11144
  131. RY ( 1) C  7             0.00199     1.59023
  132. RY ( 2) C  7             0.00160     1.39528
  133. RY ( 3) C  7             0.00067     1.14058
  134. RY ( 4) C  7             0.00029     0.94751
  135. RY ( 1) C  8             0.00260     1.42628
  136. RY ( 2) C  8             0.00179     1.18568
  137. RY ( 3) C  8             0.00031     0.84938
  138. RY ( 4) C  8             0.00026     1.07333
  139. RY ( 1) C  9             0.00083     1.09391
  140. RY ( 2) C  9             0.00057     1.23122
  141. RY ( 3) C  9             0.00031     1.03180
  142. RY ( 4) C  9             0.00017     1.32472
  143. RY ( 1) C 10             0.00144     1.01515
  144. RY ( 2) C 10             0.00064     1.15209
  145. RY ( 3) C 10             0.00052     1.17830
  146. RY ( 4) C 10             0.00012     1.15649
  147. RY ( 1) O 11             0.00073     1.82161
  148. RY ( 2) O 11             0.00055     1.81236
  149. RY ( 3) O 11             0.00018     2.15954
  150. RY ( 4) O 11             0.00017     2.11630
  151. RY ( 5) O 11             0.00011     2.55535
  152. RY ( 6) O 11             0.00004     2.27406
  153. RY ( 7) O 11             0.00001     2.25324
  154. RY ( 8) O 11             0.00001     2.22848
  155. RY ( 9) O 11             0.00001     2.08948
  156. RY ( 1) H 12             0.00100     0.76392
  157. RY ( 1) H 13             0.00066     0.73614
  158. RY ( 1) H 14             0.00068     0.70756
  159. RY ( 1) H 15             0.00074     0.70962
  160. RY ( 1) H 16             0.00069     0.69034
  161. RY ( 1) H 17             0.00080     0.69353
          -------------------------------
                 Total Lewis   74.16863  ( 98.8915%)
           Valence non-Lewis    0.78387  (  1.0452%)
           Rydberg non-Lewis    0.04750  (  0.0633%)
          -------------------------------
               Total unit  1   75.00000  (100.0000%)
              Charge unit  1    0.00000

 $CHOOSE
  ALPHA
   LONE 1 3 4 1 5 4 11 2 END
   BOND S 1 2 D 2 3 S 2 8 S 3 4 S 3 12 D 4 6 S 6 7 S 6 11 D 7 8 S 7 9 S 8 13
        S 9 10 S 9 14 S 9 15 S 10 11 S 10 16 S 10 17 END
  END
  BETA
   LONE 1 3 5 3 11 2 END
   BOND S 1 2 D 2 3 S 2 8 S 3 4 S 3 12 S 4 5 D 4 6 S 6 7 S 6 11 D 7 8 S 7 9
        S 8 13 S 9 10 S 9 14 S 9 15 S 10 11 S 10 16 S 10 17 END
  END
 $END

 NBO analysis completed in 1.77 CPU seconds (2 wall seconds)
 Maximum scratch memory used by NBO was 776005 words (5.92 MB)
 Maximum scratch memory used by G16NBO was 61055 words (0.47 MB)

 Opening RunExU unformatted file "/home/rpaton/arbr500/xtb/fukui/Gau-2163768.EUF"
 Read unf file /home/rpaton/arbr500/xtb/fukui/Gau-2163768.EUF:
 Label Gaussian matrix elements                                         IVers= 2 NLab= 2 Version=ES64L-G16RevC.01
 Title energy: -32.159136574353 gnorm: 0.000850729375 xtb: 6.7.0 (08769
 NAtoms=    17 NBasis=   161 NBsUse=   161 ICharg=    -1 Multip=     2 NE=   151 Len12L=8 Len4L=8 IOpCl= 1 ICGU=112
 GAUSSIAN SCALARS                    NI= 1 NR= 1 NTot=       1 LenBuf=    2 NRI=1 N=    1000
 NPA CHARGES                         NI= 0 NR= 1 NTot=      17 LenBuf= 2048 NRI=1 N=      17
 Recovered energy= -9833.59167367     dipole=      1.692051847442      2.122319613081      0.010254525233
 Unable to Open any file for archive entry.
 1\1\GINC-DYNAMO\SP\UwB97XD\MIDIx\C8H6Br1I1O1(1-,2)\RPATON\28-Sep-2024\
 0\\# wb97xd midix pop(nbo6,hirshfeld)\\energy: -32.159136574353 gnorm:
  0.000850729375 xtb: 6.7.0 (08769fc)\\-1,2\Br,0,3.49952,-0.89335,0.006
 64\C,0,1.8195,0.00208,-0.00085\C,0,0.65976,-0.75455,-0.00012\C,0,-0.57
 029,-0.11604,-0.00167\I,0,-2.37275,-1.20212,-0.00201\C,0,-0.61067,1.26
 535,-0.00373\C,0,0.56934,2.01229,-0.0073\C,0,1.79733,1.39259,-0.00607\
 C,0,0.19051,3.4642,-0.02291\C,0,-1.34975,3.39203,0.03979\O,0,-1.72691,
 2.01413,-0.00429\H,0,0.71393,-1.83172,0.00285\H,0,2.71421,1.96007,-0.0
 0857\H,0,0.60931,4.00205,0.82808\H,0,0.53844,3.95082,-0.93587\H,0,-1.8
 2941,3.89524,-0.80361\H,0,-1.74362,3.81459,0.96951\\Version=ES64L-G16R
 evC.01\State=2-A\HF=-9833.5916737\S2=0.754706\S2-1=0.\S2A=0.750017\RMS
 D=4.075e-09\Dipole=1.6924793,2.1219686,0.0121746\Quadrupole=-16.549673
 5,8.8650365,7.684637,-5.5215817,-0.0435728,0.0426721\PG=C01 [X(C8H6Br1
 I1O1)]\\@
 The archive entry for this job was punched.


 I WISH TO HAVE NO CONNECTION WITH ANY SHIP THAT DOES NOT SAIL FAST,
 FOR I INTEND TO GO IN HARM'S WAY.
     -- JOHN PAUL JONES, USN 1747-1792
 Job cpu time:       0 days  0 hours 12 minutes 44.4 seconds.
 Elapsed time:       0 days  0 hours  0 minutes 32.2 seconds.
 File lengths (MBytes):  RWF=     30 Int=      0 D2E=      0 Chk=      3 Scr=      1
 Normal termination of Gaussian 16 at Sat Sep 28 19:53:32 2024.
