 Entering Gaussian System, Link 0=/usr/local/Gaussian/G16C/g16/g16
 Input=arbr42_xtbopt_oxd.com
 Output=arbr42_xtbopt_oxd.log
 Initial command:
 /usr/local/Gaussian/G16C/g16/l1.exe "/home/rpaton/arbr500/xtb/fukui/Gau-2146892.inp" -scrdir="/home/rpaton/arbr500/xtb/fukui/"
 Entering Link 1 = /usr/local/Gaussian/G16C/g16/l1.exe PID=   2146893.
  
 Copyright (c) 1988-2019, Gaussian, Inc.  All Rights Reserved.
  
 This is part of the Gaussian(R) 16 program.  It is based on
 the Gaussian(R) 09 system (copyright 2009, Gaussian, Inc.),
 the Gaussian(R) 03 system (copyright 2003, Gaussian, Inc.),
 the Gaussian(R) 98 system (copyright 1998, Gaussian, Inc.),
 the Gaussian(R) 94 system (copyright 1995, Gaussian, Inc.),
 the Gaussian 92(TM) system (copyright 1992, Gaussian, Inc.),
 the Gaussian 90(TM) system (copyright 1990, Gaussian, Inc.),
 the Gaussian 88(TM) system (copyright 1988, Gaussian, Inc.),
 the Gaussian 86(TM) system (copyright 1986, Carnegie Mellon
 University), and the Gaussian 82(TM) system (copyright 1983,
 Carnegie Mellon University). Gaussian is a federally registered
 trademark of Gaussian, Inc.
  
 This software contains proprietary and confidential information,
 including trade secrets, belonging to Gaussian, Inc.
  
 This software is provided under written license and may be
 used, copied, transmitted, or stored only in accord with that
 written license.
  
 The following legend is applicable only to US Government
 contracts under FAR:
  
                    RESTRICTED RIGHTS LEGEND
  
 Use, reproduction and disclosure by the US Government is
 subject to restrictions as set forth in subparagraphs (a)
 and (c) of the Commercial Computer Software - Restricted
 Rights clause in FAR 52.227-19.
  
 Gaussian, Inc.
 340 Quinnipiac St., Bldg. 40, Wallingford CT 06492
  
  
 ---------------------------------------------------------------
 Warning -- This program may not be used in any manner that
 competes with the business of Gaussian, Inc. or will provide
 assistance to any competitor of Gaussian, Inc.  The licensee
 of this program is prohibited from giving any competitor of
 Gaussian, Inc. access to this program.  By using this program,
 the user acknowledges that Gaussian, Inc. is engaged in the
 business of creating and licensing software in the field of
 computational chemistry and represents and warrants to the
 licensee that it is not a competitor of Gaussian, Inc. and that
 it will not use this program in any manner prohibited above.
 ---------------------------------------------------------------
  

 Cite this work as:
 Gaussian 16, Revision C.01,
 M. J. Frisch, G. W. Trucks, H. B. Schlegel, G. E. Scuseria, 
 M. A. Robb, J. R. Cheeseman, G. Scalmani, V. Barone, 
 G. A. Petersson, H. Nakatsuji, X. Li, M. Caricato, A. V. Marenich, 
 J. Bloino, B. G. Janesko, R. Gomperts, B. Mennucci, H. P. Hratchian, 
 J. V. Ortiz, A. F. Izmaylov, J. L. Sonnenberg, D. Williams-Young, 
 F. Ding, F. Lipparini, F. Egidi, J. Goings, B. Peng, A. Petrone, 
 T. Henderson, D. Ranasinghe, V. G. Zakrzewski, J. Gao, N. Rega, 
 G. Zheng, W. Liang, M. Hada, M. Ehara, K. Toyota, R. Fukuda, 
 J. Hasegawa, M. Ishida, T. Nakajima, Y. Honda, O. Kitao, H. Nakai, 
 T. Vreven, K. Throssell, J. A. Montgomery, Jr., J. E. Peralta, 
 F. Ogliaro, M. J. Bearpark, J. J. Heyd, E. N. Brothers, K. N. Kudin, 
 V. N. Staroverov, T. A. Keith, R. Kobayashi, J. Normand, 
 K. Raghavachari, A. P. Rendell, J. C. Burant, S. S. Iyengar, 
 J. Tomasi, M. Cossi, J. M. Millam, M. Klene, C. Adamo, R. Cammi, 
 J. W. Ochterski, R. L. Martin, K. Morokuma, O. Farkas, 
 J. B. Foresman, and D. J. Fox, Gaussian, Inc., Wallingford CT, 2019.
 
 ******************************************
 Gaussian 16:  ES64L-G16RevC.01  3-Jul-2019
                28-Sep-2024 
 ******************************************
 %nprocshared=24
 Will use up to   24 processors via shared memory.
 ----------------------------------
 # wb97xd midix pop(nbo6,hirshfeld)
 ----------------------------------
 1/38=1,172=1/1;
 2/12=2,17=6,18=5,40=1/2;
 3/5=20,11=2,25=1,30=1,74=-58/1,2,3;
 4//1;
 5/5=2,38=5/2;
 6/7=2,8=2,9=2,10=2,28=1,40=1,79=1,113=1,114=1,124=3103,126=1/1,12;
 99/5=1,9=1/99;
 -------------------------------------------------------------------
 energy: -44.567785349378 gnorm: 0.000473625240 xtb: 6.7.0 (08769fc)
 -------------------------------------------------------------------
 Symbolic Z-matrix:
 Charge =  1 Multiplicity = 2
 Br                   -3.39367  -0.60336  -0.04621 
 C                    -1.76131   0.37734  -0.02985 
 C                    -1.79339   1.75393   0.10409 
 C                    -0.59771   2.44498   0.11267 
 C                     0.6248    1.79091  -0.0038 
 C                     0.63224   0.40349  -0.13462 
 C                    -0.56466  -0.30035  -0.14609 
 C                     1.92928  -0.38605  -0.1951 
 C                     3.10324   0.50838  -0.61011 
 C                     3.11929   1.74705   0.2733 
 C                     1.89151   2.59764  -0.02493 
 O                     1.77654  -1.48125  -1.07777 
 C                     2.32221  -2.62242  -0.45567 
 C                     2.11245  -2.33071   1.03161 
 O                     2.20545  -0.92663   1.09922 
 H                    -2.73428   2.27386   0.19918 
 H                    -0.61116   3.52057   0.21283 
 H                    -0.55261  -1.37277  -0.26252 
 H                     4.02775  -0.06036  -0.50203 
 H                     2.97486   0.77618  -1.66024 
 H                     4.02729   2.32613   0.09935 
 H                     3.10551   1.42691   1.31636 
 H                     1.81314   3.41916   0.69027 
 H                     1.99339   3.04166  -1.02137 
 H                     1.78497  -3.49926  -0.81642 
 H                     3.39066  -2.71702  -0.69269 
 H                     2.88049  -2.76046   1.67596 
 H                     1.12062  -2.66291   1.36719 
 
                          Input orientation:                          
 ---------------------------------------------------------------------
 Center     Atomic      Atomic             Coordinates (Angstroms)
 Number     Number       Type             X           Y           Z
 ---------------------------------------------------------------------
      1         35           0       -3.393670   -0.603360   -0.046210
      2          6           0       -1.761310    0.377340   -0.029850
      3          6           0       -1.793390    1.753930    0.104090
      4          6           0       -0.597710    2.444980    0.112670
      5          6           0        0.624800    1.790910   -0.003800
      6          6           0        0.632240    0.403490   -0.134620
      7          6           0       -0.564660   -0.300350   -0.146090
      8          6           0        1.929280   -0.386050   -0.195100
      9          6           0        3.103240    0.508380   -0.610110
     10          6           0        3.119290    1.747050    0.273300
     11          6           0        1.891510    2.597640   -0.024930
     12          8           0        1.776540   -1.481250   -1.077770
     13          6           0        2.322210   -2.622420   -0.455670
     14          6           0        2.112450   -2.330710    1.031610
     15          8           0        2.205450   -0.926630    1.099220
     16          1           0       -2.734280    2.273860    0.199180
     17          1           0       -0.611160    3.520570    0.212830
     18          1           0       -0.552610   -1.372770   -0.262520
     19          1           0        4.027750   -0.060360   -0.502030
     20          1           0        2.974860    0.776180   -1.660240
     21          1           0        4.027290    2.326130    0.099350
     22          1           0        3.105510    1.426910    1.316360
     23          1           0        1.813140    3.419160    0.690270
     24          1           0        1.993390    3.041660   -1.021370
     25          1           0        1.784970   -3.499260   -0.816420
     26          1           0        3.390660   -2.717020   -0.692690
     27          1           0        2.880490   -2.760460    1.675960
     28          1           0        1.120620   -2.662910    1.367190
 ---------------------------------------------------------------------
                    Distance matrix (angstroms):
                    1          2          3          4          5
     1  Br   0.000000
     2  C    1.904374   0.000000
     3  C    2.853122   1.383463   0.000000
     4  C    4.139446   2.376849   1.381041   0.000000
     5  C    4.677866   2.773514   2.420878   1.391368   0.000000
     6  C    4.150845   2.395985   2.786459   2.396166   1.393594
     7  C    2.846944   1.380126   2.406748   2.757696   2.410068
     8  C    5.329464   3.772337   4.304335   3.807247   2.545077
     9  C    6.615421   4.900788   5.102790   4.239087   2.855724
    10  C    6.931462   5.078214   4.915598   3.785366   2.510217
    11  C    6.178995   4.274675   3.782457   2.497690   1.501937
    12  O    5.344706   4.131450   4.960603   4.740200   3.631384
    13  C    6.075816   5.084783   6.033567   5.876009   4.750039
    14  C    5.870502   4.844197   5.727143   5.567462   4.502547
    15  O    5.724217   4.325543   4.915934   4.494301   3.331686
    16  H    2.961994   2.143808   1.079186   2.145157   3.399685
    17  H    4.981592   3.355836   2.128499   1.080327   2.136878
    18  H    2.951339   2.139621   3.383813   3.836407   3.385573
    19  H    7.455206   5.824753   6.127373   5.296175   3.905829
    20  H    6.713151   5.024794   5.177361   4.323351   3.048976
    21  H    7.979583   6.109203   5.848739   4.626546   3.445873
    22  H    6.943913   5.157501   5.057248   4.024820   2.833591
    23  H    6.620721   4.748467   4.015427   2.663615   2.131920
    24  H    6.577045   4.709510   4.155071   2.890653   2.114914
    25  H    5.983124   5.312516   6.422461   6.471040   5.476518
    26  H    7.135309   6.046256   6.891925   6.572819   5.333478
    27  H    6.854490   5.856781   6.685480   6.452779   5.350206
    28  H    5.159289   4.415921   5.440161   5.533265   4.686359
                    6          7          8          9         10
     6  C    0.000000
     7  C    1.388557   0.000000
     8  C    1.519653   2.495893   0.000000
     9  C    2.518518   3.784554   1.533108   0.000000
    10  C    2.856041   4.235472   2.487094   1.521504   0.000000
    11  C    2.532210   3.800763   2.988777   2.485102   1.523118
    12  O    2.398166   2.782763   1.414885   2.436692   3.748371
    13  C    3.480690   3.717777   2.285529   3.230444   4.501000
    14  C    3.320687   3.560373   2.306528   3.425980   4.268125
    15  O    2.401368   3.101054   1.429602   2.405637   2.943775
    16  H    3.865639   3.384231   5.383249   6.152114   5.877695
    17  H    3.373863   3.838022   4.677812   4.852555   4.131015
    18  H    2.139002   1.078789   2.671692   4.126110   4.848013
    19  H    3.446685   4.612431   2.145660   1.090809   2.166372
    20  H    2.820334   3.997470   2.142581   1.091316   2.168415
    21  H    3.908664   5.295719   3.441550   2.159031   1.090897
    22  H    3.044634   4.311883   2.637205   2.134242   1.091171
    23  H    3.342040   4.493126   3.908579   3.439184   2.162370
    24  H    3.098225   4.298693   3.526475   2.796142   2.149380
    25  H    4.126148   4.025311   3.177883   4.223929   5.521926
    26  H    4.202131   4.667293   2.795827   3.239234   4.575445
    27  H    4.282920   4.608803   3.169146   3.995128   4.726746
    28  H    3.449168   3.272900   2.877286   4.230553   4.963771
                   11         12         13         14         15
    11  C    0.000000
    12  O    4.214147   0.000000
    13  C    5.255480   1.409622   0.000000
    14  C    5.045168   2.298674   1.530064   0.000000
    15  O    3.712513   2.287106   2.303697   1.408780   0.000000
    16  H    4.642520   6.006576   7.068980   6.736898   5.954338
    17  H    2.678001   5.690779   6.840167   6.505838   5.338218
    18  H    4.668439   2.470089   3.140624   3.113674   3.108098
    19  H    3.443270   2.723665   3.078176   3.342890   2.575889
    20  H    2.676864   2.621304   3.664345   4.200306   3.332593
    21  H    2.156553   4.576858   5.263411   5.120730   3.859960
    22  H    2.154870   3.994423   4.488956   3.897045   2.529112
    23  H    1.092038   5.209734   6.170334   5.767764   4.382583
    24  H    1.095640   4.528457   5.701749   5.752500   4.504353
    25  H    6.148983   2.034881   1.089778   2.210875   3.234951
    26  H    5.562281   2.069009   1.098505   2.180887   2.796634
    27  H    5.707919   3.230807   2.207845   1.090760   2.037459
    28  H    5.495967   2.793632   2.183638   1.098498   2.064784
                   16         17         18         19         20
    16  H    0.000000
    17  H    2.462135   0.000000
    18  H    4.274431   4.916723   0.000000
    19  H    7.187860   5.903691   4.770690   0.000000
    20  H    6.188277   4.888722   4.360579   1.774775   0.000000
    21  H    6.762509   4.791115   5.898160   2.461096   2.570236
    22  H    6.005711   4.406226   4.869591   2.523696   3.049699
    23  H    4.715073   2.472946   5.428368   4.293383   3.722880
    24  H    4.942684   2.921692   5.152200   3.745779   2.550262
    25  H    7.401620   7.488578   3.208278   4.117637   4.517439
    26  H    7.951051   7.466060   4.188249   2.738627   3.648491
    27  H    7.684458   7.333738   4.179661   3.653818   4.862814
    28  H    6.371515   6.524342   2.668354   4.326506   4.942760
                   21         22         23         24         25
    21  H    0.000000
    22  H    1.771832   0.000000
    23  H    2.538969   2.455864   0.000000
    24  H    2.429968   3.051100   1.762018   0.000000
    25  H    6.308867   5.528085   7.080639   6.547448   0.000000
    26  H    5.144510   4.614082   6.484894   5.934879   1.790377
    27  H    5.447407   4.208802   6.348112   6.459654   2.820983
    28  H    5.911571   4.546317   6.158683   6.245724   2.430842
                   26         27         28
    26  H    0.000000
    27  H    2.423358   0.000000
    28  H    3.065798   1.789413   0.000000
 Stoichiometry    C12H13BrO2(1+,2)
 Framework group  C1[X(C12H13BrO2)]
 Deg. of freedom    78
 Full point group                 C1      NOp   1
 Largest Abelian subgroup         C1      NOp   1
 Largest concise Abelian subgroup C1      NOp   1
                         Standard orientation:                         
 ---------------------------------------------------------------------
 Center     Atomic      Atomic             Coordinates (Angstroms)
 Number     Number       Type             X           Y           Z
 ---------------------------------------------------------------------
      1         35           0       -3.419817   -0.548321   -0.014354
      2          6           0       -1.773366    0.408657   -0.008799
      3          6           0       -1.784656    1.785588    0.125002
      4          6           0       -0.579072    2.459264    0.125675
      5          6           0        0.633067    1.787554    0.001463
      6          6           0        0.619584    0.400151   -0.129056
      7          6           0       -0.587424   -0.286297   -0.132608
      8          6           0        1.904645   -0.408085   -0.197728
      9          6           0        3.088714    0.469198   -0.620546
     10          6           0        3.128402    1.707644    0.262432
     11          6           0        1.911154    2.575865   -0.028062
     12          8           0        1.730365   -1.501098   -1.079118
     13          6           0        2.263480   -2.649948   -0.460276
     14          6           0        2.067592   -2.355001    1.028257
     15          8           0        2.181335   -0.952403    1.094914
     16          1           0       -2.717289    2.319094    0.226047
     17          1           0       -0.576308    3.534952    0.225652
     18          1           0       -0.591647   -1.358797   -0.248845
     19          1           0        4.005578   -0.112844   -0.518307
     20          1           0        2.957429    0.738664   -1.669891
     21          1           0        4.043541    2.273496    0.082467
     22          1           0        3.116742    1.387899    1.305639
     23          1           0        1.849310    3.398545    0.687425
     24          1           0        2.012998    3.018209   -1.025251
     25          1           0        1.711285   -3.518978   -0.817324
     26          1           0        3.328893   -2.760037   -0.704179
     27          1           0        2.833488   -2.795720    1.667733
     28          1           0        1.073252   -2.672761    1.370329
 ---------------------------------------------------------------------
 Rotational constants (GHZ):           0.7732849           0.2930148           0.2262166
 Standard basis: MIDIx (5D, 7F)
 There are   193 symmetry adapted cartesian basis functions of A   symmetry.
 There are   189 symmetry adapted basis functions of A   symmetry.
   189 basis functions,   324 primitive gaussians,   193 cartesian basis functions
    68 alpha electrons       67 beta electrons
       nuclear repulsion energy      1336.1224202725 Hartrees.
 NAtoms=   28 NActive=   28 NUniq=   28 SFac= 1.00D+00 NAtFMM=   60 NAOKFM=F Big=F
 Integral buffers will be    131072 words long.
 Raffenetti 2 integral format.
 Two-electron integral symmetry is turned on.
 Nuclear repulsion after empirical dispersion term =     1336.1006557531 Hartrees.
 One-electron integrals computed using PRISM.
 NBasis=   189 RedAO= T EigKep=  1.10D-03  NBF=   189
 NBsUse=   189 1.00D-06 EigRej= -1.00D+00 NBFU=   189
 ExpMin= 1.47D-01 ExpMax= 6.10D+03 ExpMxC= 6.10D+03 IAcc=3 IRadAn=         5 AccDes= 0.00D+00
 Harris functional with IExCor= 4639 and IRadAn=       5 diagonalized for initial guess.
 HarFok:  IExCor= 4639 AccDes= 0.00D+00 IRadAn=         5 IDoV= 1 UseB2=F ITyADJ=14
 ICtDFT=  3500011 ScaDFX=  1.000000  1.000000  1.000000  1.000000
 FoFCou: FMM=F IPFlag=           0 FMFlag=      100000 FMFlg1=           0
         NFxFlg=           0 DoJE=T BraDBF=F KetDBF=T FulRan=T
         wScrn=  0.000000 ICntrl=       500 IOpCl=  0 I1Cent=   200000004 NGrid=           0
         NMat0=    1 NMatS0=      1 NMatT0=    0 NMatD0=    1 NMtDS0=    0 NMtDT0=    0
 Petite list used in FoFCou.
 Initial guess <Sx>= 0.0000 <Sy>= 0.0000 <Sz>= 0.5000 <S**2>= 0.7500 S= 0.5000
 Requested convergence on RMS density matrix=1.00D-08 within 128 cycles.
 Requested convergence on MAX density matrix=1.00D-06.
 Requested convergence on             energy=1.00D-06.
 No special actions if energy rises.
 Integral accuracy reduced to 1.0D-05 until final iterations.
 Rare condition: small coef for last iteration:  0.000D+00
 Rare condition: small coef for last iteration:  0.000D+00
 Rare condition: small coef for last iteration:  0.000D+00
 Rare condition: small coef for last iteration:  0.000D+00
 Problem detected with inexpensive integrals.
 Switching to full accuracy and repeating last cycle.
 Rare condition: small coef for last iteration:  0.000D+00
 Rare condition: small coef for last iteration:  0.000D+00
 Restarting incremental Fock formation.
 SCF Done:  E(UwB97XD) =  -3173.51583780     A.U. after   47 cycles
            NFock= 47  Conv=0.62D-08     -V/T= 2.0029
 <Sx>= 0.0000 <Sy>= 0.0000 <Sz>= 0.5000 <S**2>= 0.7571 S= 0.5035
 <L.S>= 0.000000000000E+00
 Annihilation of the first spin contaminant:
 S**2 before annihilation     0.7571,   after     0.7500

 **********************************************************************

            Population analysis using the SCF Density.

 **********************************************************************

 Orbital symmetries:
 Alpha Orbitals:
       Occupied  (A) (A) (A) (A) (A) (A) (A) (A) (A) (A) (A) (A)
                 (A) (A) (A) (A) (A) (A) (A) (A) (A) (A) (A) (A)
                 (A) (A) (A) (A) (A) (A) (A) (A) (A) (A) (A) (A)
                 (A) (A) (A) (A) (A) (A) (A) (A) (A) (A) (A) (A)
                 (A) (A) (A) (A) (A) (A) (A) (A) (A) (A) (A) (A)
                 (A) (A) (A) (A) (A) (A) (A) (A)
       Virtual   (A) (A) (A) (A) (A) (A) (A) (A) (A) (A) (A) (A)
                 (A) (A) (A) (A) (A) (A) (A) (A) (A) (A) (A) (A)
                 (A) (A) (A) (A) (A) (A) (A) (A) (A) (A) (A) (A)
                 (A) (A) (A) (A) (A) (A) (A) (A) (A) (A) (A) (A)
                 (A) (A) (A) (A) (A) (A) (A) (A) (A) (A) (A) (A)
                 (A) (A) (A) (A) (A) (A) (A) (A) (A) (A) (A) (A)
                 (A) (A) (A) (A) (A) (A) (A) (A) (A) (A) (A) (A)
                 (A) (A) (A) (A) (A) (A) (A) (A) (A) (A) (A) (A)
                 (A) (A) (A) (A) (A) (A) (A) (A) (A) (A) (A) (A)
                 (A) (A) (A) (A) (A) (A) (A) (A) (A) (A) (A) (A)
                 (A)
 Beta  Orbitals:
       Occupied  (A) (A) (A) (A) (A) (A) (A) (A) (A) (A) (A) (A)
                 (A) (A) (A) (A) (A) (A) (A) (A) (A) (A) (A) (A)
                 (A) (A) (A) (A) (A) (A) (A) (A) (A) (A) (A) (A)
                 (A) (A) (A) (A) (A) (A) (A) (A) (A) (A) (A) (A)
                 (A) (A) (A) (A) (A) (A) (A) (A) (A) (A) (A) (A)
                 (A) (A) (A) (A) (A) (A) (A)
       Virtual   (A) (A) (A) (A) (A) (A) (A) (A) (A) (A) (A) (A)
                 (A) (A) (A) (A) (A) (A) (A) (A) (A) (A) (A) (A)
                 (A) (A) (A) (A) (A) (A) (A) (A) (A) (A) (A) (A)
                 (A) (A) (A) (A) (A) (A) (A) (A) (A) (A) (A) (A)
                 (A) (A) (A) (A) (A) (A) (A) (A) (A) (A) (A) (A)
                 (A) (A) (A) (A) (A) (A) (A) (A) (A) (A) (A) (A)
                 (A) (A) (A) (A) (A) (A) (A) (A) (A) (A) (A) (A)
                 (A) (A) (A) (A) (A) (A) (A) (A) (A) (A) (A) (A)
                 (A) (A) (A) (A) (A) (A) (A) (A) (A) (A) (A) (A)
                 (A) (A) (A) (A) (A) (A) (A) (A) (A) (A) (A) (A)
                 (A) (A)
 The electronic state is 2-A.
 Alpha  occ. eigenvalues -- -480.27267 -62.70629 -56.29553 -56.29091 -56.29081
 Alpha  occ. eigenvalues --  -19.43545 -19.35645 -10.54359 -10.46986 -10.45264
 Alpha  occ. eigenvalues --  -10.44110 -10.43611 -10.42261 -10.41247 -10.40598
 Alpha  occ. eigenvalues --  -10.40360 -10.39953 -10.37697 -10.37481  -9.01462
 Alpha  occ. eigenvalues --   -6.80014  -6.78490  -6.78448  -2.90304  -2.89781
 Alpha  occ. eigenvalues --   -2.89763  -2.88498  -2.88494  -1.42714  -1.31790
 Alpha  occ. eigenvalues --   -1.16753  -1.11280  -1.06743  -1.04279  -1.02922
 Alpha  occ. eigenvalues --   -0.98738  -0.95895  -0.92569  -0.90286  -0.87581
 Alpha  occ. eigenvalues --   -0.87221  -0.81884  -0.79875  -0.78348  -0.75342
 Alpha  occ. eigenvalues --   -0.74819  -0.73721  -0.70429  -0.70235  -0.69671
 Alpha  occ. eigenvalues --   -0.68500  -0.67109  -0.66184  -0.65428  -0.63933
 Alpha  occ. eigenvalues --   -0.62656  -0.61838  -0.60718  -0.60405  -0.58000
 Alpha  occ. eigenvalues --   -0.57858  -0.56521  -0.55643  -0.52711  -0.51584
 Alpha  occ. eigenvalues --   -0.50548  -0.48586  -0.45103
 Alpha virt. eigenvalues --   -0.11298  -0.09281  -0.04192   0.01458   0.02538
 Alpha virt. eigenvalues --    0.04389   0.05241   0.05756   0.06765   0.07813
 Alpha virt. eigenvalues --    0.08764   0.09219   0.10244   0.11379   0.11575
 Alpha virt. eigenvalues --    0.12423   0.13641   0.14250   0.15207   0.15789
 Alpha virt. eigenvalues --    0.15808   0.17034   0.19471   0.19842   0.21737
 Alpha virt. eigenvalues --    0.22058   0.23709   0.25901   0.27572   0.28937
 Alpha virt. eigenvalues --    0.31506   0.39131   0.42446   0.44980   0.45720
 Alpha virt. eigenvalues --    0.46169   0.52162   0.52184   0.52211   0.52331
 Alpha virt. eigenvalues --    0.53619   0.54124   0.54779   0.56284   0.57508
 Alpha virt. eigenvalues --    0.59670   0.60010   0.61499   0.62606   0.62762
 Alpha virt. eigenvalues --    0.66320   0.67571   0.68171   0.69765   0.70379
 Alpha virt. eigenvalues --    0.71847   0.72833   0.73910   0.75040   0.76014
 Alpha virt. eigenvalues --    0.76951   0.78902   0.80055   0.81169   0.81307
 Alpha virt. eigenvalues --    0.82315   0.83787   0.84774   0.85104   0.85830
 Alpha virt. eigenvalues --    0.86181   0.86631   0.87106   0.87736   0.88657
 Alpha virt. eigenvalues --    0.89927   0.90503   0.91970   0.92612   0.93489
 Alpha virt. eigenvalues --    0.94372   0.95385   0.95931   0.96945   1.00548
 Alpha virt. eigenvalues --    1.01492   1.02579   1.03876   1.08340   1.09871
 Alpha virt. eigenvalues --    1.18588   1.22266   1.24270   1.26673   1.26973
 Alpha virt. eigenvalues --    1.32508   1.36329   1.40196   1.41588   1.43499
 Alpha virt. eigenvalues --    1.48078   1.53026   1.56091   1.57666   1.62311
 Alpha virt. eigenvalues --    1.64562   1.67137   1.70885   1.74679   1.78249
 Alpha virt. eigenvalues --    1.83528   1.87313   1.92513   1.94087   1.95989
 Alpha virt. eigenvalues --    2.05816   2.20060   2.26728   2.29727   2.44706
 Alpha virt. eigenvalues --    2.52072
  Beta  occ. eigenvalues -- -480.27264 -62.70627 -56.29550 -56.29087 -56.29078
  Beta  occ. eigenvalues --  -19.42555 -19.35483 -10.54320 -10.47000 -10.45262
  Beta  occ. eigenvalues --  -10.44150 -10.43394 -10.42066 -10.41291 -10.40508
  Beta  occ. eigenvalues --  -10.40254 -10.39830 -10.37690 -10.37479  -9.01458
  Beta  occ. eigenvalues --   -6.80008  -6.78482  -6.78446  -2.90300  -2.89776
  Beta  occ. eigenvalues --   -2.89761  -2.88495  -2.88490  -1.41059  -1.30580
  Beta  occ. eigenvalues --   -1.16303  -1.10951  -1.06533  -1.03962  -1.02352
  Beta  occ. eigenvalues --   -0.98490  -0.95486  -0.92232  -0.89689  -0.87171
  Beta  occ. eigenvalues --   -0.86843  -0.81509  -0.78878  -0.77548  -0.74970
  Beta  occ. eigenvalues --   -0.74196  -0.73469  -0.70038  -0.69559  -0.68569
  Beta  occ. eigenvalues --   -0.67626  -0.66327  -0.65726  -0.65180  -0.63151
  Beta  occ. eigenvalues --   -0.61857  -0.61458  -0.60484  -0.59993  -0.57728
  Beta  occ. eigenvalues --   -0.56520  -0.56022  -0.52857  -0.51126  -0.48537
  Beta  occ. eigenvalues --   -0.48235  -0.44819
  Beta virt. eigenvalues --   -0.32603  -0.09937  -0.08709  -0.04180   0.01621
  Beta virt. eigenvalues --    0.02914   0.04514   0.05598   0.06125   0.06884
  Beta virt. eigenvalues --    0.08019   0.08831   0.09444   0.10449   0.11649
  Beta virt. eigenvalues --    0.11697   0.12514   0.13900   0.14375   0.15370
  Beta virt. eigenvalues --    0.15910   0.16172   0.17195   0.19916   0.20104
  Beta virt. eigenvalues --    0.21979   0.22291   0.23927   0.26092   0.27770
  Beta virt. eigenvalues --    0.29169   0.31762   0.39316   0.42704   0.45069
  Beta virt. eigenvalues --    0.45904   0.46273   0.52183   0.52236   0.52338
  Beta virt. eigenvalues --    0.52528   0.53809   0.54340   0.54962   0.56329
  Beta virt. eigenvalues --    0.57720   0.59731   0.60135   0.61645   0.62788
  Beta virt. eigenvalues --    0.62869   0.66609   0.67772   0.68529   0.70036
  Beta virt. eigenvalues --    0.70639   0.72026   0.73100   0.74071   0.75243
  Beta virt. eigenvalues --    0.76319   0.77143   0.79305   0.80239   0.81317
  Beta virt. eigenvalues --    0.81622   0.82470   0.83968   0.85105   0.85237
  Beta virt. eigenvalues --    0.85959   0.86290   0.86840   0.87234   0.87866
  Beta virt. eigenvalues --    0.88781   0.90050   0.90595   0.92109   0.92750
  Beta virt. eigenvalues --    0.93603   0.94466   0.95522   0.96032   0.97023
  Beta virt. eigenvalues --    1.00714   1.01666   1.02946   1.04021   1.08451
  Beta virt. eigenvalues --    1.09997   1.18761   1.22369   1.24433   1.26836
  Beta virt. eigenvalues --    1.27315   1.32789   1.36600   1.40809   1.42123
  Beta virt. eigenvalues --    1.43861   1.48357   1.53434   1.56690   1.58970
  Beta virt. eigenvalues --    1.63447   1.65147   1.68452   1.71460   1.75982
  Beta virt. eigenvalues --    1.78712   1.83927   1.88468   1.92977   1.94546
  Beta virt. eigenvalues --    1.96771   2.06450   2.21070   2.27576   2.30473
  Beta virt. eigenvalues --    2.45271   2.52471
          Condensed to atoms (all electrons):
               1          2          3          4          5          6
     1  Br  34.819354   0.219413  -0.037557   0.001837   0.000352   0.002380
     2  C    0.219413   5.077607   0.453423  -0.028816  -0.057666  -0.013960
     3  C   -0.037557   0.453423   4.958791   0.463517  -0.018853  -0.038117
     4  C    0.001837  -0.028816   0.463517   4.919929   0.465930  -0.011664
     5  C    0.000352  -0.057666  -0.018853   0.465930   5.156619   0.399599
     6  C    0.002380  -0.013960  -0.038117  -0.011664   0.399599   5.294441
     7  C   -0.039243   0.446342  -0.039941  -0.026734  -0.001993   0.378138
     8  C   -0.000062   0.001204   0.000453  -0.000034   0.007003   0.250874
     9  C    0.000000   0.000113  -0.000033   0.000125  -0.007992  -0.087426
    10  C    0.000000  -0.000062  -0.000043   0.002432  -0.061295  -0.005098
    11  C    0.000001   0.000349   0.001023  -0.022272   0.240276  -0.006110
    12  O   -0.000002   0.000746  -0.000014   0.000009   0.000262  -0.053334
    13  C   -0.000000  -0.000046   0.000001  -0.000001  -0.000032   0.008607
    14  C    0.000001   0.000055  -0.000002   0.000001  -0.000003  -0.000764
    15  O   -0.000000   0.000013  -0.000011   0.000002  -0.003079  -0.017730
    16  H    0.001160  -0.015662   0.384190  -0.013676   0.002295  -0.000052
    17  H   -0.000047   0.002658  -0.017857   0.392547  -0.020125   0.002578
    18  H    0.001986  -0.004745   0.002236   0.000019   0.001929  -0.022474
    19  H   -0.000000  -0.000001   0.000000   0.000000  -0.000253   0.005280
    20  H   -0.000000   0.000001  -0.000001  -0.000182  -0.000074   0.000629
    21  H    0.000000   0.000001  -0.000001   0.000005   0.004866  -0.000410
    22  H    0.000000  -0.000001   0.000005  -0.000199   0.000060   0.000501
    23  H   -0.000000   0.000003   0.000184  -0.005339  -0.028235   0.002795
    24  H   -0.000000   0.000007   0.000018  -0.005925  -0.027407  -0.002435
    25  H    0.000000  -0.000009   0.000000  -0.000000   0.000002   0.000175
    26  H   -0.000000   0.000002  -0.000000  -0.000000   0.000008  -0.000613
    27  H   -0.000000   0.000000  -0.000000  -0.000000  -0.000003  -0.000204
    28  H    0.000004   0.000043   0.000003  -0.000001   0.000080  -0.000750
               7          8          9         10         11         12
     1  Br  -0.039243  -0.000062   0.000000   0.000000   0.000001  -0.000002
     2  C    0.446342   0.001204   0.000113  -0.000062   0.000349   0.000746
     3  C   -0.039941   0.000453  -0.000033  -0.000043   0.001023  -0.000014
     4  C   -0.026734  -0.000034   0.000125   0.002432  -0.022272   0.000009
     5  C   -0.001993   0.007003  -0.007992  -0.061295   0.240276   0.000262
     6  C    0.378138   0.250874  -0.087426  -0.005098  -0.006110  -0.053334
     7  C    4.977815  -0.000611   0.001777  -0.000059   0.000314  -0.005104
     8  C   -0.000611   4.714658   0.294931  -0.083161  -0.010380   0.230390
     9  C    0.001777   0.294931   5.438902   0.227722  -0.096300  -0.037612
    10  C   -0.000059  -0.083161   0.227722   5.371592   0.299681   0.002912
    11  C    0.000314  -0.010380  -0.096300   0.299681   5.233654  -0.000090
    12  O   -0.005104   0.230390  -0.037612   0.002912  -0.000090   8.439639
    13  C    0.000311  -0.062907  -0.003619  -0.000006   0.000005   0.138562
    14  C   -0.000035  -0.056903   0.006326  -0.000395  -0.000007  -0.022101
    15  O   -0.000927   0.127975  -0.049395   0.002071  -0.000693  -0.042648
    16  H    0.002427   0.000004   0.000000   0.000000  -0.000018   0.000000
    17  H   -0.000005  -0.000044   0.000016   0.000106  -0.003648   0.000000
    18  H    0.371757  -0.003826   0.000473  -0.000049  -0.000039   0.013569
    19  H   -0.000019  -0.023910   0.377104  -0.028971   0.005944   0.000177
    20  H   -0.000050  -0.026920   0.368138  -0.026026  -0.003533   0.001516
    21  H   -0.000000   0.005877  -0.027553   0.388167  -0.030508  -0.000029
    22  H   -0.000210  -0.007158  -0.039238   0.389858  -0.035437   0.000073
    23  H   -0.000031  -0.000305   0.006222  -0.032034   0.392555   0.000000
    24  H   -0.000031   0.000334  -0.003718  -0.030009   0.387295   0.000005
    25  H    0.000078   0.004666  -0.000233   0.000007   0.000000  -0.016964
    26  H    0.000009   0.000155   0.002629  -0.000202   0.000001  -0.023951
    27  H    0.000053   0.004863   0.000136   0.000007  -0.000000   0.001569
    28  H    0.000208  -0.000500  -0.000110  -0.000025   0.000001   0.000629
              13         14         15         16         17         18
     1  Br  -0.000000   0.000001  -0.000000   0.001160  -0.000047   0.001986
     2  C   -0.000046   0.000055   0.000013  -0.015662   0.002658  -0.004745
     3  C    0.000001  -0.000002  -0.000011   0.384190  -0.017857   0.002236
     4  C   -0.000001   0.000001   0.000002  -0.013676   0.392547   0.000019
     5  C   -0.000032  -0.000003  -0.003079   0.002295  -0.020125   0.001929
     6  C    0.008607  -0.000764  -0.017730  -0.000052   0.002578  -0.022474
     7  C    0.000311  -0.000035  -0.000927   0.002427  -0.000005   0.371757
     8  C   -0.062907  -0.056903   0.127975   0.000004  -0.000044  -0.003826
     9  C   -0.003619   0.006326  -0.049395   0.000000   0.000016   0.000473
    10  C   -0.000006  -0.000395   0.002071   0.000000   0.000106  -0.000049
    11  C    0.000005  -0.000007  -0.000693  -0.000018  -0.003648  -0.000039
    12  O    0.138562  -0.022101  -0.042648   0.000000   0.000000   0.013569
    13  C    4.996658   0.300823  -0.018938   0.000000  -0.000000  -0.001772
    14  C    0.300823   5.095863   0.098584   0.000000  -0.000000   0.000964
    15  O   -0.018938   0.098584   8.424113   0.000000   0.000000  -0.000796
    16  H    0.000000   0.000000   0.000000   0.376505  -0.003301  -0.000044
    17  H   -0.000000  -0.000000   0.000000  -0.003301   0.394865   0.000005
    18  H   -0.001772   0.000964  -0.000796  -0.000044   0.000005   0.399869
    19  H    0.001334  -0.000310  -0.000365   0.000000  -0.000000  -0.000010
    20  H    0.000302  -0.000124   0.002648  -0.000000   0.000001  -0.000001
    21  H   -0.000001   0.000007  -0.000034  -0.000000  -0.000005   0.000000
    22  H    0.000053  -0.000001   0.008360   0.000000   0.000002   0.000003
    23  H    0.000000  -0.000001   0.000021  -0.000005   0.002722   0.000001
    24  H   -0.000001   0.000001  -0.000009   0.000001   0.000530   0.000002
    25  H    0.383014  -0.026988   0.001681  -0.000000   0.000000  -0.000493
    26  H    0.377186  -0.040237  -0.000893   0.000000   0.000000   0.000165
    27  H   -0.026703   0.370283  -0.013585   0.000000   0.000000   0.000014
    28  H   -0.034004   0.368418  -0.016018  -0.000000   0.000000   0.002074
              19         20         21         22         23         24
     1  Br  -0.000000  -0.000000   0.000000   0.000000  -0.000000  -0.000000
     2  C   -0.000001   0.000001   0.000001  -0.000001   0.000003   0.000007
     3  C    0.000000  -0.000001  -0.000001   0.000005   0.000184   0.000018
     4  C    0.000000  -0.000182   0.000005  -0.000199  -0.005339  -0.005925
     5  C   -0.000253  -0.000074   0.004866   0.000060  -0.028235  -0.027407
     6  C    0.005280   0.000629  -0.000410   0.000501   0.002795  -0.002435
     7  C   -0.000019  -0.000050  -0.000000  -0.000210  -0.000031  -0.000031
     8  C   -0.023910  -0.026920   0.005877  -0.007158  -0.000305   0.000334
     9  C    0.377104   0.368138  -0.027553  -0.039238   0.006222  -0.003718
    10  C   -0.028971  -0.026026   0.388167   0.389858  -0.032034  -0.030009
    11  C    0.005944  -0.003533  -0.030508  -0.035437   0.392555   0.387295
    12  O    0.000177   0.001516  -0.000029   0.000073   0.000000   0.000005
    13  C    0.001334   0.000302  -0.000001   0.000053   0.000000  -0.000001
    14  C   -0.000310  -0.000124   0.000007  -0.000001  -0.000001   0.000001
    15  O   -0.000365   0.002648  -0.000034   0.008360   0.000021  -0.000009
    16  H    0.000000  -0.000000  -0.000000   0.000000  -0.000005   0.000001
    17  H   -0.000000   0.000001  -0.000005   0.000002   0.002722   0.000530
    18  H   -0.000010  -0.000001   0.000000   0.000003   0.000001   0.000002
    19  H    0.444023  -0.017929  -0.002126  -0.001507  -0.000128  -0.000171
    20  H   -0.017929   0.435612  -0.001813   0.003748  -0.000067   0.004366
    21  H   -0.002126  -0.001813   0.434579  -0.019496  -0.000836  -0.003295
    22  H   -0.001507   0.003748  -0.019496   0.468406  -0.003503   0.003648
    23  H   -0.000128  -0.000067  -0.000836  -0.003503   0.444487  -0.020898
    24  H   -0.000171   0.004366  -0.003295   0.003648  -0.020898   0.450499
    25  H    0.000013  -0.000007  -0.000000  -0.000001  -0.000000   0.000000
    26  H    0.000445  -0.000008   0.000004   0.000014  -0.000000   0.000000
    27  H   -0.000148  -0.000005  -0.000001  -0.000029   0.000000  -0.000000
    28  H    0.000016   0.000009   0.000000   0.000016   0.000000  -0.000000
              25         26         27         28
     1  Br   0.000000  -0.000000  -0.000000   0.000004
     2  C   -0.000009   0.000002   0.000000   0.000043
     3  C    0.000000  -0.000000  -0.000000   0.000003
     4  C   -0.000000  -0.000000  -0.000000  -0.000001
     5  C    0.000002   0.000008  -0.000003   0.000080
     6  C    0.000175  -0.000613  -0.000204  -0.000750
     7  C    0.000078   0.000009   0.000053   0.000208
     8  C    0.004666   0.000155   0.004863  -0.000500
     9  C   -0.000233   0.002629   0.000136  -0.000110
    10  C    0.000007  -0.000202   0.000007  -0.000025
    11  C    0.000000   0.000001  -0.000000   0.000001
    12  O   -0.016964  -0.023951   0.001569   0.000629
    13  C    0.383014   0.377186  -0.026703  -0.034004
    14  C   -0.026988  -0.040237   0.370283   0.368418
    15  O    0.001681  -0.000893  -0.013585  -0.016018
    16  H   -0.000000   0.000000   0.000000  -0.000000
    17  H    0.000000   0.000000   0.000000   0.000000
    18  H   -0.000493   0.000165   0.000014   0.002074
    19  H    0.000013   0.000445  -0.000148   0.000016
    20  H   -0.000007  -0.000008  -0.000005   0.000009
    21  H   -0.000000   0.000004  -0.000001   0.000000
    22  H   -0.000001   0.000014  -0.000029   0.000016
    23  H   -0.000000  -0.000000   0.000000   0.000000
    24  H    0.000000   0.000000  -0.000000  -0.000000
    25  H    0.420502  -0.026063   0.001480  -0.003191
    26  H   -0.026063   0.472090  -0.002447   0.003160
    27  H    0.001480  -0.002447   0.404163  -0.020491
    28  H   -0.003191   0.003160  -0.020491   0.429262
          Atomic-Atomic Spin Densities.
               1          2          3          4          5          6
     1  Br   0.010368   0.003187   0.000902   0.000045  -0.000031   0.000163
     2  C    0.003187  -0.045245  -0.007154  -0.001379  -0.000236  -0.000169
     3  C    0.000902  -0.007154   0.076485   0.017228  -0.000414  -0.002091
     4  C    0.000045  -0.001379   0.017228   0.087501  -0.006466  -0.001433
     5  C   -0.000031  -0.000236  -0.000414  -0.006466  -0.044703  -0.007074
     6  C    0.000163  -0.000169  -0.002091  -0.001433  -0.007074   0.181014
     7  C   -0.003028   0.002643  -0.002418  -0.002959   0.000649   0.006200
     8  C    0.000004  -0.000115   0.000023  -0.000003   0.002701   0.004388
     9  C    0.000000   0.000015  -0.000005   0.000002   0.001967  -0.011722
    10  C   -0.000000  -0.000003   0.000006  -0.000007  -0.001194   0.003028
    11  C   -0.000000  -0.000014  -0.000011   0.000132   0.002939   0.000322
    12  O    0.000001   0.000020  -0.000001   0.000000  -0.000053  -0.000682
    13  C   -0.000000  -0.000003   0.000000  -0.000000  -0.000005   0.000168
    14  C   -0.000000  -0.000007   0.000000   0.000000   0.000016   0.000669
    15  O    0.000001   0.000055   0.000000   0.000024   0.000157  -0.025563
    16  H    0.000039  -0.000402   0.000138  -0.000745   0.000071  -0.000067
    17  H   -0.000000   0.000023  -0.000551  -0.000073  -0.000290   0.000086
    18  H    0.000390  -0.000438  -0.000018   0.000007  -0.000231   0.000059
    19  H   -0.000000  -0.000000   0.000000  -0.000000  -0.000067   0.000482
    20  H   -0.000000  -0.000003   0.000002   0.000026  -0.000346   0.000256
    21  H    0.000000   0.000000  -0.000000   0.000002   0.000173  -0.000111
    22  H   -0.000000  -0.000001  -0.000001  -0.000046  -0.000699   0.000942
    23  H    0.000000   0.000000   0.000003   0.000022   0.000499  -0.000055
    24  H    0.000000   0.000001  -0.000002  -0.000009   0.000678   0.000012
    25  H   -0.000000  -0.000001   0.000000  -0.000000   0.000000   0.000062
    26  H    0.000000  -0.000000  -0.000000   0.000000  -0.000001  -0.000026
    27  H    0.000000   0.000000   0.000000   0.000000   0.000001  -0.000169
    28  H   -0.000012  -0.000031  -0.000001  -0.000002  -0.000002   0.001333
               7          8          9         10         11         12
     1  Br  -0.003028   0.000004   0.000000  -0.000000  -0.000000   0.000001
     2  C    0.002643  -0.000115   0.000015  -0.000003  -0.000014   0.000020
     3  C   -0.002418   0.000023  -0.000005   0.000006  -0.000011  -0.000001
     4  C   -0.002959  -0.000003   0.000002  -0.000007   0.000132   0.000000
     5  C    0.000649   0.002701   0.001967  -0.001194   0.002939  -0.000053
     6  C    0.006200   0.004388  -0.011722   0.003028   0.000322  -0.000682
     7  C    0.172755  -0.001695   0.000253   0.000063  -0.000007   0.002087
     8  C   -0.001695  -0.014823   0.039355  -0.002256   0.000210  -0.007860
     9  C    0.000253   0.039355   0.054209  -0.005238  -0.000685  -0.005551
    10  C    0.000063  -0.002256  -0.005238  -0.002419   0.000480   0.000024
    11  C   -0.000007   0.000210  -0.000685   0.000480   0.003497   0.000005
    12  O    0.002087  -0.007860  -0.005551   0.000024   0.000005   0.085271
    13  C   -0.000103   0.000181  -0.000122   0.000022   0.000000  -0.001996
    14  C   -0.000049   0.001186   0.000197  -0.000002   0.000000  -0.000591
    15  O   -0.001136  -0.024497  -0.005274   0.001110  -0.000039   0.003232
    16  H    0.000092  -0.000001  -0.000000   0.000000   0.000001  -0.000000
    17  H   -0.000028   0.000004   0.000001  -0.000010  -0.000014   0.000000
    18  H   -0.001084  -0.000068   0.000034   0.000000  -0.000002   0.000230
    19  H   -0.000005  -0.002279  -0.001625   0.000837   0.000031   0.000678
    20  H   -0.000078  -0.002092  -0.000155   0.001533   0.000064   0.000856
    21  H   -0.000001   0.000157  -0.000886   0.003355  -0.000653  -0.000003
    22  H    0.000022  -0.000517  -0.000749   0.001808   0.000333   0.000009
    23  H    0.000000   0.000044  -0.000019  -0.000077  -0.000501  -0.000000
    24  H    0.000000  -0.000035   0.000090   0.000304  -0.000830   0.000000
    25  H   -0.000030  -0.000108  -0.000038   0.000001   0.000000  -0.001020
    26  H    0.000003   0.000310   0.000165   0.000008  -0.000000   0.000268
    27  H   -0.000017   0.000229   0.000119  -0.000014  -0.000000   0.000065
    28  H    0.000842   0.000350  -0.000129   0.000015   0.000001  -0.001136
              13         14         15         16         17         18
     1  Br  -0.000000  -0.000000   0.000001   0.000039  -0.000000   0.000390
     2  C   -0.000003  -0.000007   0.000055  -0.000402   0.000023  -0.000438
     3  C    0.000000   0.000000   0.000000   0.000138  -0.000551  -0.000018
     4  C   -0.000000   0.000000   0.000024  -0.000745  -0.000073   0.000007
     5  C   -0.000005   0.000016   0.000157   0.000071  -0.000290  -0.000231
     6  C    0.000168   0.000669  -0.025563  -0.000067   0.000086   0.000059
     7  C   -0.000103  -0.000049  -0.001136   0.000092  -0.000028  -0.001084
     8  C    0.000181   0.001186  -0.024497  -0.000001   0.000004  -0.000068
     9  C   -0.000122   0.000197  -0.005274  -0.000000   0.000001   0.000034
    10  C    0.000022  -0.000002   0.001110   0.000000  -0.000010   0.000000
    11  C    0.000000   0.000000  -0.000039   0.000001  -0.000014  -0.000002
    12  O   -0.001996  -0.000591   0.003232  -0.000000   0.000000   0.000230
    13  C    0.000010   0.001101  -0.000374   0.000000  -0.000000  -0.000064
    14  C    0.001101  -0.016324  -0.022109  -0.000000   0.000000  -0.000183
    15  O   -0.000374  -0.022109   0.501737  -0.000000   0.000000   0.000497
    16  H    0.000000  -0.000000  -0.000000  -0.002802   0.000000  -0.000001
    17  H   -0.000000   0.000000   0.000000   0.000000  -0.003016   0.000000
    18  H   -0.000064  -0.000183   0.000497  -0.000001   0.000000  -0.007028
    19  H   -0.000002  -0.000150   0.001388   0.000000  -0.000000  -0.000002
    20  H    0.000019   0.000002   0.000023   0.000000  -0.000000  -0.000006
    21  H   -0.000001   0.000001  -0.000049  -0.000000   0.000001   0.000000
    22  H   -0.000003  -0.000007  -0.000222   0.000000  -0.000001  -0.000001
    23  H    0.000000   0.000000   0.000000  -0.000000  -0.000021   0.000000
    24  H   -0.000000   0.000000  -0.000000   0.000000   0.000009   0.000000
    25  H    0.000496   0.000532  -0.000009   0.000000  -0.000000  -0.000036
    26  H    0.001211   0.000340  -0.000482  -0.000000   0.000000  -0.000005
    27  H    0.001089   0.006099  -0.002993  -0.000000   0.000000   0.000016
    28  H   -0.001492   0.010491  -0.004469   0.000000  -0.000000  -0.000532
              19         20         21         22         23         24
     1  Br  -0.000000  -0.000000   0.000000  -0.000000   0.000000   0.000000
     2  C   -0.000000  -0.000003   0.000000  -0.000001   0.000000   0.000001
     3  C    0.000000   0.000002  -0.000000  -0.000001   0.000003  -0.000002
     4  C   -0.000000   0.000026   0.000002  -0.000046   0.000022  -0.000009
     5  C   -0.000067  -0.000346   0.000173  -0.000699   0.000499   0.000678
     6  C    0.000482   0.000256  -0.000111   0.000942  -0.000055   0.000012
     7  C   -0.000005  -0.000078  -0.000001   0.000022   0.000000   0.000000
     8  C   -0.002279  -0.002092   0.000157  -0.000517   0.000044  -0.000035
     9  C   -0.001625  -0.000155  -0.000886  -0.000749  -0.000019   0.000090
    10  C    0.000837   0.001533   0.003355   0.001808  -0.000077   0.000304
    11  C    0.000031   0.000064  -0.000653   0.000333  -0.000501  -0.000830
    12  O    0.000678   0.000856  -0.000003   0.000009  -0.000000   0.000000
    13  C   -0.000002   0.000019  -0.000001  -0.000003   0.000000  -0.000000
    14  C   -0.000150   0.000002   0.000001  -0.000007   0.000000   0.000000
    15  O    0.001388   0.000023  -0.000049  -0.000222   0.000000  -0.000000
    16  H    0.000000   0.000000  -0.000000   0.000000  -0.000000   0.000000
    17  H   -0.000000  -0.000000   0.000001  -0.000001  -0.000021   0.000009
    18  H   -0.000002  -0.000006   0.000000  -0.000001   0.000000   0.000000
    19  H   -0.000594   0.001071  -0.000416   0.000161   0.000001  -0.000005
    20  H    0.001071   0.002016  -0.000378   0.000031  -0.000003  -0.000028
    21  H   -0.000416  -0.000378   0.006956  -0.000883   0.000053  -0.000023
    22  H    0.000161   0.000031  -0.000883   0.000447   0.000034  -0.000020
    23  H    0.000001  -0.000003   0.000053   0.000034  -0.000990   0.000204
    24  H   -0.000005  -0.000028  -0.000023  -0.000020   0.000204  -0.001936
    25  H    0.000013   0.000004  -0.000000   0.000000  -0.000000  -0.000000
    26  H   -0.000144  -0.000033   0.000000  -0.000003   0.000000   0.000000
    27  H   -0.000062  -0.000003   0.000001  -0.000009   0.000000   0.000000
    28  H    0.000019   0.000003  -0.000000   0.000005  -0.000000  -0.000000
              25         26         27         28
     1  Br  -0.000000   0.000000   0.000000  -0.000012
     2  C   -0.000001  -0.000000   0.000000  -0.000031
     3  C    0.000000  -0.000000   0.000000  -0.000001
     4  C   -0.000000   0.000000   0.000000  -0.000002
     5  C    0.000000  -0.000001   0.000001  -0.000002
     6  C    0.000062  -0.000026  -0.000169   0.001333
     7  C   -0.000030   0.000003  -0.000017   0.000842
     8  C   -0.000108   0.000310   0.000229   0.000350
     9  C   -0.000038   0.000165   0.000119  -0.000129
    10  C    0.000001   0.000008  -0.000014   0.000015
    11  C    0.000000  -0.000000  -0.000000   0.000001
    12  O   -0.001020   0.000268   0.000065  -0.001136
    13  C    0.000496   0.001211   0.001089  -0.001492
    14  C    0.000532   0.000340   0.006099   0.010491
    15  O   -0.000009  -0.000482  -0.002993  -0.004469
    16  H    0.000000  -0.000000  -0.000000   0.000000
    17  H   -0.000000   0.000000   0.000000  -0.000000
    18  H   -0.000036  -0.000005   0.000016  -0.000532
    19  H    0.000013  -0.000144  -0.000062   0.000019
    20  H    0.000004  -0.000033  -0.000003   0.000003
    21  H   -0.000000   0.000000   0.000001  -0.000000
    22  H    0.000000  -0.000003  -0.000009   0.000005
    23  H   -0.000000   0.000000   0.000000  -0.000000
    24  H   -0.000000   0.000000   0.000000  -0.000000
    25  H    0.003987  -0.000283  -0.000297   0.000852
    26  H   -0.000283  -0.000867   0.000455  -0.000237
    27  H   -0.000297   0.000455   0.019811  -0.003999
    28  H    0.000852  -0.000237  -0.003999   0.033761
 Mulliken charges and spin densities:
               1          2
     1  Br   0.030422   0.012027
     2  C   -0.081012  -0.049256
     3  C   -0.111418   0.082122
     4  C   -0.131511   0.091868
     5  C   -0.052272  -0.051961
     6  C   -0.084853   0.150020
     7  C   -0.064234   0.172969
     8  C    0.633332  -0.007205
     9  C   -0.371383   0.064210
    10  C   -0.417119   0.001374
    11  C   -0.352065   0.005258
    12  O   -0.628209   0.073855
    13  C   -0.058829   0.000132
    14  C   -0.093455  -0.018788
    15  O   -0.500347   0.421008
    16  H    0.266176  -0.003676
    17  H    0.249003  -0.003878
    18  H    0.239181  -0.008467
    19  H    0.241513  -0.000670
    20  H    0.259770   0.002779
    21  H    0.252604   0.007295
    22  H    0.232034   0.000629
    23  H    0.242391  -0.000807
    24  H    0.247192  -0.001592
    25  H    0.262330   0.004125
    26  H    0.238546   0.000680
    27  H    0.281046   0.020322
    28  H    0.271167   0.035629
 Sum of Mulliken charges =   1.00000   1.00000
 Mulliken charges and spin densities with hydrogens summed into heavy atoms:
               1          2
     1  Br   0.030422   0.012027
     2  C   -0.081012  -0.049256
     3  C    0.154759   0.078446
     4  C    0.117492   0.087989
     5  C   -0.052272  -0.051961
     6  C   -0.084853   0.150020
     7  C    0.174947   0.164502
     8  C    0.633332  -0.007205
     9  C    0.129900   0.066319
    10  C    0.067518   0.009297
    11  C    0.137518   0.002859
    12  O   -0.628209   0.073855
    13  C    0.442048   0.004937
    14  C    0.458757   0.037163
    15  O   -0.500347   0.421008
 Electronic spatial extent (au):  <R**2>=           4442.2028
 Charge=              1.0000 electrons
 Dipole moment (field-independent basis, Debye):
    X=              6.4813    Y=             -1.1549    Z=              1.0660  Tot=              6.6692
 Quadrupole moment (field-independent basis, Debye-Ang):
   XX=            -65.4954   YY=            -62.8661   ZZ=            -98.1649
   XY=             -9.9530   XZ=              0.5483   YZ=             -3.4953
 Traceless Quadrupole moment (field-independent basis, Debye-Ang):
   XX=             10.0134   YY=             12.6427   ZZ=            -22.6561
   XY=             -9.9530   XZ=              0.5483   YZ=             -3.4953
 Octapole moment (field-independent basis, Debye-Ang**2):
  XXX=            -38.7116  YYY=            -44.1432  ZZZ=              2.9540  XYY=             10.0898
  XXY=            -24.7372  XXZ=              0.9487  XZZ=            -20.3731  YZZ=            -16.4101
  YYZ=             10.9680  XYZ=            -11.0526
 Hexadecapole moment (field-independent basis, Debye-Ang**3):
 XXXX=          -2828.9899 YYYY=          -1279.2448 ZZZZ=           -264.9771 XXXY=             10.0727
 XXXZ=             -3.2039 YYYX=            -74.1030 YYYZ=             -0.6421 ZZZX=             10.5606
 ZZZY=            -15.1486 XXYY=           -631.1372 XXZZ=           -576.5763 YYZZ=           -290.8103
 XXYZ=            -19.8074 YYXZ=             14.8193 ZZXY=              4.5585
 N-N= 1.336100655753D+03 E-N=-1.019598043807D+04  KE= 3.164415506453D+03
 There are a total of      636960 grid points.
 ElSum from          density=      134.9999588896
 ElSum from atomic densities=      135.9999376265
 Hirshfeld populations at iteration   1 (CA, CB, DipXYZ):
               1          2          3          4          5
     1  Br  17.491060  17.481424  -0.115558  -0.043504  -0.006002
     2  C    2.986952   2.988747  -0.029915  -0.017020  -0.002257
     3  C    3.023228   2.962951  -0.029809   0.054953   0.005539
     4  C    3.026653   2.960607  -0.017276   0.056681  -0.001032
     5  C    2.987926   2.994800   0.036319   0.035886  -0.006000
     6  C    3.049546   2.936195   0.046852  -0.032257  -0.000409
     7  C    3.058214   2.934985   0.006988  -0.023567  -0.019030
     8  C    2.932960   2.890615   0.004146  -0.025740   0.013932
     9  C    3.038518   2.985454   0.002459   0.016099   0.000529
    10  C    3.018477   3.012464   0.006902   0.015284  -0.028063
    11  C    3.016544   3.014823   0.009772  -0.003025   0.008125
    12  O    4.094317   4.029689   0.051392  -0.023157   0.074810
    13  C    2.975751   2.969592  -0.013623  -0.021611  -0.011784
    14  C    2.979187   2.956280   0.017527  -0.001195   0.024517
    15  O    4.187598   3.819953  -0.002473  -0.066285  -0.057378
    16  H    0.463906   0.460470  -0.141932   0.104519   0.016329
    17  H    0.466155   0.462506  -0.008831   0.171507   0.017592
    18  H    0.473712   0.467290  -0.011188  -0.156668  -0.018548
    19  H    0.475296   0.472799   0.144211  -0.070571   0.008749
    20  H    0.472654   0.467668  -0.002002   0.043290  -0.157865
    21  H    0.474439   0.468174   0.136613   0.086608  -0.025786
    22  H    0.482814   0.481852   0.010461  -0.025662   0.143773
    23  H    0.473498   0.473986  -0.000730   0.123644   0.101754
    24  H    0.474999   0.476151   0.021275   0.071994  -0.138472
    25  H    0.463396   0.460484  -0.077222  -0.140852  -0.053954
    26  H    0.472984   0.471686   0.148524  -0.035468  -0.032199
    27  H    0.464509   0.449305   0.116846  -0.081665   0.099318
    28  H    0.474689   0.449032  -0.138629  -0.071206   0.056071
       Tot  67.999980  66.999979   0.171099  -0.058987   0.012261

 Dip from Atomic Chgs              2.379010  -0.395371   0.407096
         Total Dipole              2.550109  -0.454358   0.419356

 Hirshfeld charges, spin densities, dipoles, and CM5 charges using IRadAn=      5:
              Q-H        S-H        Dx         Dy         Dz        Q-CM5   
     1  Br   0.027516   0.009636  -0.115558  -0.043504  -0.006002   0.042171
     2  C    0.024302  -0.001795  -0.029915  -0.017020  -0.002257   0.003229
     3  C    0.013822   0.060277  -0.029809   0.054953   0.005539  -0.040453
     4  C    0.012740   0.066045  -0.017276   0.056681  -0.001032  -0.041385
     5  C    0.017274  -0.006874   0.036319   0.035886  -0.006000   0.005014
     6  C    0.014260   0.113351   0.046852  -0.032257  -0.000409   0.012327
     7  C    0.006802   0.123229   0.006988  -0.023567  -0.019030  -0.043146
     8  C    0.176425   0.042344   0.004146  -0.025740   0.013932   0.208468
     9  C   -0.023972   0.053064   0.002459   0.016099   0.000529  -0.123809
    10  C   -0.030942   0.006013   0.006902   0.015284  -0.028063  -0.139218
    11  C   -0.031367   0.001722   0.009772  -0.003025   0.008125  -0.134804
    12  O   -0.124006   0.064628   0.051392  -0.023157   0.074810  -0.209274
    13  C    0.054657   0.006158  -0.013623  -0.021611  -0.011784  -0.022139
    14  C    0.064533   0.022908   0.017527  -0.001195   0.024517  -0.011900
    15  O   -0.007551   0.367645  -0.002473  -0.066285  -0.057378  -0.091362
    16  H    0.075624   0.003436  -0.141932   0.104519   0.016329   0.133080
    17  H    0.071340   0.003649  -0.008831   0.171507   0.017592   0.128902
    18  H    0.058998   0.006422  -0.011188  -0.156668  -0.018548   0.123036
    19  H    0.051906   0.002497   0.144211  -0.070571   0.008749   0.112489
    20  H    0.059678   0.004986  -0.002002   0.043290  -0.157865   0.119501
    21  H    0.057387   0.006266   0.136613   0.086608  -0.025786   0.112355
    22  H    0.035334   0.000962   0.010461  -0.025662   0.143773   0.095714
    23  H    0.052517  -0.000488  -0.000730   0.123644   0.101754   0.108481
    24  H    0.048850  -0.001152   0.021275   0.071994  -0.138472   0.105027
    25  H    0.076120   0.002911  -0.077222  -0.140852  -0.053954   0.139562
    26  H    0.055331   0.001298   0.148524  -0.035468  -0.032199   0.118830
    27  H    0.086186   0.015204   0.116846  -0.081665   0.099318   0.149458
    28  H    0.076279   0.025657  -0.138629  -0.071206   0.056071   0.139886
       Tot   1.000041   1.000001   0.171099  -0.058987   0.012261   1.000041
 Hirshfeld charges and spin densities with hydrogens summed into heavy atoms:
              Q-H        S-H       Q-CM5   
     1  Br   0.027516   0.009636   0.042171
     2  C    0.024302  -0.001795   0.003229
     3  C    0.089446   0.063713   0.092627
     4  C    0.084080   0.069694   0.087516
     5  C    0.017274  -0.006874   0.005014
     6  C    0.014260   0.113351   0.012327
     7  C    0.065800   0.129652   0.079890
     8  C    0.176425   0.042344   0.208468
     9  C    0.087611   0.060547   0.108181
    10  C    0.061779   0.013241   0.068851
    11  C    0.070000   0.000082   0.078704
    12  O   -0.124006   0.064628  -0.209274
    13  C    0.186108   0.010368   0.236253
    14  C    0.226998   0.063769   0.277445
    15  O   -0.007551   0.367645  -0.091362
 
 EQQ= 0.828909793062E-01 EQD=-0.547287585059E-01 EDD= 0.590755121329E-02
 EQQ+QD+DD= 0.340697720136E-01
 
                          Isotropic Fermi Contact Couplings
        Atom                 a.u.       MegaHertz       Gauss      10(-4) cm-1
     1  Br(79)            -0.00180      -2.02680      -0.72321      -0.67607
     2  C(13)             -0.00680      -7.64292      -2.72718      -2.54940
     3  C(13)              0.00570       6.40506       2.28549       2.13650
     4  C(13)              0.00849       9.54130       3.40457       3.18263
     5  C(13)             -0.00584      -6.56245      -2.34164      -2.18900
     6  C(13)              0.02553      28.69737      10.23993       9.57241
     7  C(13)              0.01295      14.56101       5.19573       4.85703
     8  C(13)             -0.01559     -17.52723      -6.25415      -5.84646
     9  C(13)              0.01471      16.53353       5.89957       5.51499
    10  C(13)             -0.00197      -2.20946      -0.78839      -0.73700
    11  C(13)              0.00072       0.80923       0.28875       0.26993
    12  O(17)              0.01112      -6.74230      -2.40582      -2.24899
    13  C(13)             -0.00049      -0.55148      -0.19678      -0.18395
    14  C(13)             -0.00912     -10.25035      -3.65758      -3.41915
    15  O(17)              0.07506     -45.50099     -16.23589     -15.17750
    16  H(1)              -0.00075      -3.34622      -1.19402      -1.11618
    17  H(1)              -0.00077      -3.46294      -1.23566      -1.15511
    18  H(1)              -0.00206      -9.22928      -3.29324      -3.07856
    19  H(1)              -0.00086      -3.84285      -1.37123      -1.28184
    20  H(1)               0.00122       5.44321       1.94227       1.81566
    21  H(1)               0.00355      15.88077       5.66665       5.29725
    22  H(1)               0.00023       1.02103       0.36433       0.34058
    23  H(1)              -0.00032      -1.42951      -0.51008      -0.47683
    24  H(1)              -0.00076      -3.41618      -1.21898      -1.13952
    25  H(1)               0.00156       6.98877       2.49377       2.33120
    26  H(1)               0.00061       2.72556       0.97255       0.90915
    27  H(1)               0.00918      41.03619      14.64273      13.68820
    28  H(1)               0.01536      68.65536      24.49794      22.90096
 --------------------------------------------------------
       Center         ----  Spin Dipole Couplings  ----
                      3XX-RR        3YY-RR        3ZZ-RR
 --------------------------------------------------------
     1   Atom        0.069146     -0.058178     -0.010968
     2   Atom        0.022357      0.012706     -0.035063
     3   Atom       -0.034151     -0.038442      0.072593
     4   Atom       -0.040593     -0.041785      0.082378
     5   Atom        0.018987      0.020886     -0.039873
     6   Atom        0.022325     -0.051330      0.029006
     7   Atom       -0.069588     -0.079661      0.149249
     8   Atom        0.090831     -0.054858     -0.035973
     9   Atom        0.018271      0.014196     -0.032467
    10   Atom        0.003008      0.004235     -0.007243
    11   Atom        0.003177      0.003123     -0.006300
    12   Atom        0.189125     -0.085260     -0.103865
    13   Atom       -0.004824      0.001969      0.002855
    14   Atom        0.018589      0.005478     -0.024067
    15   Atom        1.475118     -0.750881     -0.724237
    16   Atom        0.006565     -0.004193     -0.002373
    17   Atom       -0.006725      0.009839     -0.003115
    18   Atom       -0.007150      0.012655     -0.005505
    19   Atom        0.009127     -0.003626     -0.005501
    20   Atom       -0.003150     -0.004911      0.008061
    21   Atom        0.000819      0.001388     -0.002207
    22   Atom       -0.001877      0.004583     -0.002706
    23   Atom       -0.000436      0.002257     -0.001821
    24   Atom       -0.000580      0.002008     -0.001428
    25   Atom       -0.003336      0.004824     -0.001488
    26   Atom       -0.000685      0.000882     -0.000197
    27   Atom       -0.004912      0.007982     -0.003070
    28   Atom       -0.000539      0.006546     -0.006007
 --------------------------------------------------------
                        XY            XZ            YZ
 --------------------------------------------------------
     1   Atom       -0.036268      0.118361     -0.025903
     2   Atom       -0.008536      0.001945      0.001184
     3   Atom       -0.002997      0.014015     -0.013667
     4   Atom       -0.001539     -0.028437      0.011449
     5   Atom       -0.006487     -0.007493      0.005259
     6   Atom       -0.067304      0.133694     -0.086296
     7   Atom        0.010425     -0.046438     -0.041805
     8   Atom        0.010128     -0.012991     -0.006970
     9   Atom        0.069158     -0.037081     -0.037438
    10   Atom        0.010999      0.002068      0.001112
    11   Atom        0.003567      0.001179     -0.000072
    12   Atom        0.131440     -0.105724     -0.039771
    13   Atom       -0.001280      0.004356      0.008811
    14   Atom       -0.001226      0.001973     -0.000603
    15   Atom       -0.257837     -0.372139      0.034371
    16   Atom       -0.005650     -0.001745      0.000636
    17   Atom        0.001427     -0.000678      0.000155
    18   Atom        0.003650      0.000948      0.001262
    19   Atom       -0.001007     -0.004524     -0.004013
    20   Atom        0.002592      0.000501     -0.005106
    21   Atom        0.003448     -0.000839     -0.000468
    22   Atom        0.004640      0.001626      0.002326
    23   Atom        0.000414      0.000086      0.000784
    24   Atom        0.000515     -0.000362     -0.001676
    25   Atom        0.000266     -0.000156      0.002610
    26   Atom       -0.004437     -0.002716      0.003279
    27   Atom       -0.006502      0.003478     -0.007344
    28   Atom        0.008488     -0.003452     -0.004678
 --------------------------------------------------------


 ---------------------------------------------------------------------------------
              Anisotropic Spin Dipole Couplings in Principal Axis System
 ---------------------------------------------------------------------------------

       Atom             a.u.   MegaHertz   Gauss  10(-4) cm-1        Axes

              Baa    -0.0959   -12.859    -4.589    -4.289 -0.5833 -0.0031  0.8123
     1 Br(79) Bbb    -0.0672    -9.008    -3.214    -3.005  0.1587  0.9803  0.1176
              Bcc     0.1630    21.868     7.803     7.294  0.7966 -0.1975  0.5713
 
              Baa    -0.0352    -4.720    -1.684    -1.574 -0.0384 -0.0315  0.9988
     2 C(13)  Bbb     0.0078     1.049     0.374     0.350  0.5011  0.8641  0.0466
              Bcc     0.0274     3.671     1.310     1.224  0.8645 -0.5023  0.0174
 
              Baa    -0.0405    -5.430    -1.938    -1.811  0.2728  0.9586  0.0821
     3 C(13)  Bbb    -0.0356    -4.782    -1.706    -1.595  0.9535 -0.2580 -0.1561
              Bcc     0.0761    10.212     3.644     3.406  0.1284 -0.1208  0.9843
 
              Baa    -0.0471    -6.316    -2.254    -2.107  0.9492 -0.2172  0.2277
     4 C(13)  Bbb    -0.0426    -5.714    -2.039    -1.906  0.2312  0.9722 -0.0365
              Bcc     0.0896    12.029     4.292     4.013 -0.2135  0.0873  0.9730
 
              Baa    -0.0411    -5.519    -1.969    -1.841  0.1157 -0.0719  0.9907
     5 C(13)  Bbb     0.0135     1.807     0.645     0.603  0.7391  0.6726 -0.0375
              Bcc     0.0277     3.713     1.325     1.238 -0.6636  0.7365  0.1310
 
              Baa    -0.1151   -15.447    -5.512    -5.153 -0.4696  0.4943  0.7316
     6 C(13)  Bbb    -0.0904   -12.135    -4.330    -4.048  0.6165  0.7767 -0.1290
              Bcc     0.2055    27.582     9.842     9.200  0.6319 -0.3905  0.6695
 
              Baa    -0.0876   -11.755    -4.194    -3.921 -0.2409  0.9628  0.1227
     7 C(13)  Bbb    -0.0786   -10.552    -3.765    -3.520  0.9502  0.2082  0.2318
              Bcc     0.1662    22.307     7.960     7.441 -0.1976 -0.1724  0.9650
 
              Baa    -0.0574    -7.699    -2.747    -2.568 -0.0402  0.9570  0.2872
     8 C(13)  Bbb    -0.0356    -4.772    -1.703    -1.592  0.1204 -0.2807  0.9522
              Bcc     0.0929    12.471     4.450     4.160  0.9919  0.0729 -0.1039
 
              Baa    -0.0537    -7.212    -2.573    -2.406 -0.3764  0.7106  0.5944
     9 C(13)  Bbb    -0.0518    -6.950    -2.480    -2.318  0.6413 -0.2632  0.7207
              Bcc     0.1055    14.162     5.053     4.724  0.6686  0.6525 -0.3567
 
              Baa    -0.0082    -1.096    -0.391    -0.366 -0.5494  0.4226  0.7208
    10 C(13)  Bbb    -0.0067    -0.899    -0.321    -0.300  0.4770 -0.5497  0.6858
              Bcc     0.0149     1.994     0.712     0.665  0.6861  0.7206  0.1004
 
              Baa    -0.0065    -0.869    -0.310    -0.290 -0.1430  0.0606  0.9879
    11 C(13)  Bbb    -0.0003    -0.039    -0.014    -0.013 -0.6857  0.7137 -0.1430
              Bcc     0.0068     0.908     0.324     0.303  0.7137  0.6978  0.0606
 
              Baa    -0.1402    10.144     3.620     3.384  0.4534 -0.6247  0.6357
    12 O(17)  Bbb    -0.1354     9.794     3.495     3.267 -0.0479  0.6951  0.7173
              Bcc     0.2755   -19.938    -7.114    -6.651  0.8900  0.3557 -0.2853
 
              Baa    -0.0097    -1.305    -0.466    -0.435  0.6434  0.5043 -0.5759
    13 C(13)  Bbb    -0.0018    -0.247    -0.088    -0.082  0.7517 -0.5585  0.3507
              Bcc     0.0116     1.552     0.554     0.518  0.1448  0.6586  0.7384
 
              Baa    -0.0242    -3.243    -1.157    -1.082 -0.0456  0.0184  0.9988
    14 C(13)  Bbb     0.0054     0.721     0.257     0.240  0.0944  0.9954 -0.0141
              Bcc     0.0188     2.523     0.900     0.841  0.9945 -0.0937  0.0471
 
              Baa    -0.7912    57.247    20.427    19.096  0.1958  0.5775  0.7926
    15 O(17)  Bbb    -0.7744    56.036    19.995    18.692 -0.0046  0.8087 -0.5881
              Bcc     1.5656  -113.283   -40.422   -37.787  0.9806 -0.1115 -0.1610
 
              Baa    -0.0066    -3.531    -1.260    -1.178  0.3966  0.9176  0.0255
    16 H(1)   Bbb    -0.0027    -1.422    -0.507    -0.474  0.1343 -0.0855  0.9872
              Bcc     0.0093     4.953     1.767     1.652  0.9081 -0.3882 -0.1571
 
              Baa    -0.0070    -3.719    -1.327    -1.240  0.9807 -0.0849  0.1760
    17 H(1)   Bbb    -0.0030    -1.596    -0.570    -0.533 -0.1760  0.0077  0.9844
              Bcc     0.0100     5.315     1.897     1.773  0.0849  0.9964  0.0074
 
              Baa    -0.0080    -4.274    -1.525    -1.426  0.9474 -0.1501 -0.2828
    18 H(1)   Bbb    -0.0054    -2.881    -1.028    -0.961  0.2663 -0.1207  0.9563
              Bcc     0.0134     7.155     2.553     2.387  0.1776  0.9813  0.0744
 
              Baa    -0.0096    -5.140    -1.834    -1.715  0.2217  0.5670  0.7933
    19 H(1)   Bbb    -0.0008    -0.416    -0.149    -0.139 -0.1642  0.8236 -0.5428
              Bcc     0.0104     5.557     1.983     1.854  0.9612  0.0099 -0.2757
 
              Baa    -0.0081    -4.306    -1.536    -1.436 -0.4697  0.8374  0.2797
    20 H(1)   Bbb    -0.0018    -0.945    -0.337    -0.315  0.8823  0.4346  0.1807
              Bcc     0.0098     5.251     1.874     1.751 -0.0298 -0.3316  0.9429
 
              Baa    -0.0026    -1.409    -0.503    -0.470  0.5914 -0.4267  0.6842
    21 H(1)   Bbb    -0.0020    -1.091    -0.389    -0.364 -0.4402  0.5400  0.7173
              Bcc     0.0047     2.499     0.892     0.834  0.6756  0.7254 -0.1315
 
              Baa    -0.0044    -2.363    -0.843    -0.788  0.8708 -0.3625 -0.3322
    22 H(1)   Bbb    -0.0033    -1.779    -0.635    -0.594  0.1889 -0.3771  0.9067
              Bcc     0.0078     4.143     1.478     1.382  0.4540  0.8523  0.2599
 
              Baa    -0.0020    -1.049    -0.374    -0.350 -0.0060 -0.1818  0.9833
    23 H(1)   Bbb    -0.0005    -0.265    -0.095    -0.089  0.9895 -0.1428 -0.0204
              Bcc     0.0025     1.315     0.469     0.438  0.1442  0.9729  0.1808
 
              Baa    -0.0021    -1.133    -0.404    -0.378  0.0960  0.3639  0.9265
    24 H(1)   Bbb    -0.0007    -0.362    -0.129    -0.121  0.9792 -0.2015 -0.0223
              Bcc     0.0028     1.495     0.533     0.499  0.1786  0.9094 -0.3756
 
              Baa    -0.0034    -1.813    -0.647    -0.605  0.9713 -0.0999  0.2157
    25 H(1)   Bbb    -0.0024    -1.264    -0.451    -0.422 -0.2367 -0.3237  0.9161
              Bcc     0.0058     3.077     1.098     1.026  0.0217  0.9409  0.3380
 
              Baa    -0.0044    -2.352    -0.839    -0.784  0.7624  0.6470 -0.0120
    26 H(1)   Bbb    -0.0027    -1.432    -0.511    -0.478  0.3343 -0.3779  0.8634
              Bcc     0.0071     3.783     1.350     1.262 -0.5541  0.6622  0.5044
 
              Baa    -0.0078    -4.137    -1.476    -1.380  0.9182  0.2282 -0.3238
    27 H(1)   Bbb    -0.0067    -3.574    -1.275    -1.192  0.1743  0.5012  0.8476
              Bcc     0.0145     7.711     2.752     2.572 -0.3558  0.8347 -0.4204
 
              Baa    -0.0077    -4.134    -1.475    -1.379  0.2944  0.1348  0.9461
    28 H(1)   Bbb    -0.0061    -3.280    -1.171    -1.094  0.7916 -0.5891 -0.1623
              Bcc     0.0139     7.414     2.646     2.473  0.5355  0.7967 -0.2801
 

 ---------------------------------------------------------------------------------

 Running external command "gaunbo6 R"
         input file       "/home/rpaton/arbr500/xtb/fukui/Gau-2146893.EIn"
         output file      "/home/rpaton/arbr500/xtb/fukui/Gau-2146893.EOu"
         message file     "/home/rpaton/arbr500/xtb/fukui/Gau-2146893.EMs"
         fchk file        "/home/rpaton/arbr500/xtb/fukui/Gau-2146893.EFC"
         mat. el file     "/home/rpaton/arbr500/xtb/fukui/Gau-2146893.EUF"

 Writing WrtUnf unformatted file "/home/rpaton/arbr500/xtb/fukui/Gau-2146893.EUF"
 Gaussian matrix elements                                         Version   2 NLab=11 Len12L=8 Len4L=8
 Write SHELL TO ATOM MAP                   from file      0 offset           0 length                 109 to matrix element file.
 Write SHELL TYPES                         from file      0 offset           0 length                 109 to matrix element file.
 Write NUMBER OF PRIMITIVES PER SHELL      from file      0 offset           0 length                 109 to matrix element file.
 Write PRIMITIVE EXPONENTS                 from file      0 offset           0 length                 192 to matrix element file.
 Write CONTRACTION COEFFICIENTS            from file      0 offset           0 length                 192 to matrix element file.
 Write P(S=P) CONTRACTION COEFFICIENTS     from file      0 offset           0 length                 192 to matrix element file.
 Write COORDINATES OF EACH SHELL           from file      0 offset           0 length                 327 to matrix element file.
 Write BONDS PER ATOM                      from file      0 offset           0 length                  28 to matrix element file.
 Write BONDED ATOMS                        from file      0 offset           0 length                  60 to matrix element file.
 Write BOND TYPES                          from file      0 offset           0 length                  60 to matrix element file.
 Write ONIOM CHARGE/MULT                   from file      0 offset           0 length                  32 to matrix element file.
 Write ONIOM ATOM LAYERS                   from file      0 offset           0 length                  28 to matrix element file.
 Write ONIOM ATOM MODIFIERS                from file      0 offset           0 length                  28 to matrix element file.
 Write ONIOM ATOM TYPES                    from file      0 offset           0 length                  28 to matrix element file.
 Write ONIOM LINK ATOMS                    from file      0 offset           0 length                  28 to matrix element file.
 Write ONIOM LINK CHARGES                  from file      0 offset           0 length                  28 to matrix element file.
 Write ONIOM LINK DISTANCES                from file      0 offset           0 length                 112 to matrix element file.
 Write SYMINF INTS                         from file      0 offset           0 length                  26 to matrix element file.
 Write ROTTR TO SO                         from file      0 offset           0 length                  12 to matrix element file.
 Write GAUSSIAN SCALARS                    from file    501 offset           0 to matrix element file.
 Write OPTIMIZATION FLAGS                  from file      0 offset           0 length                  28 to matrix element file.
 Write INTEGER ISO                         from file      0 offset           0 length                  28 to matrix element file.
 Write INTEGER SPIN                        from file      0 offset           0 length                  28 to matrix element file.
 Write REAL ZEFFECTIVE                     from file      0 offset           0 length                  28 to matrix element file.
 Write REAL QUADRUPOLEMOMENT               from file      0 offset           0 length                  28 to matrix element file.
 Write REAL GFACTOR                        from file      0 offset           0 length                  28 to matrix element file.
 Write REAL ZNUCLEAR                       from file      0 offset           0 length                  28 to matrix element file.
 Write MULLIKEN CHARGES                    from file      0 offset           0 length                  28 to matrix element file.
 Write TYPE 6 CHARGES                      from file      0 offset           0 length                  28 to matrix element file.
 Write TYPE 7 CHARGES                      from file      0 offset           0 length                  28 to matrix element file.
 Write NUCLEAR GRADIENT                    from file  10584 offset           0 length                  84 to matrix element file.
 Array NUCLEAR FORCE CONSTANTS              on  file  10585 does not exist.
 Write ELECTRIC DIPOLE MOMENT              from file      0 offset           0 length                   3 to matrix element file.
 Write NON-ADIABATIC COUPLING              from file  10810 offset           0 length                  84 to matrix element file.
 Write FINITE EM FIELD                     from file  10521 offset           0 length                  35 to matrix element file.
 Write OVERLAP                             from file  10514 offset           0 length               17955 to matrix element file.
 Write CORE HAMILTONIAN ALPHA              from file  10515 offset           0 length               17955 to matrix element file.
 Write CORE HAMILTONIAN BETA               from file  10515 offset       17955 length               17955 to matrix element file.
 Write KINETIC ENERGY                      from file  10516 offset           0 length               17955 to matrix element file.
 Write ORTHOGONAL BASIS                    from file  10685 offset           0 length               35721 to matrix element file.
 Write DIPOLE INTEGRALS                    from file  10518 offset           0 length               53865 to matrix element file.
 Array DIP VEL INTEGRALS                    on  file  10572 does not exist.
 Array R X DEL INTEGRALS                    on  file  10572 does not exist.
 Write ALPHA ORBITAL ENERGIES              from file      0 offset           0 length                 189 to matrix element file.
 Write BETA ORBITAL ENERGIES               from file      0 offset           0 length                 189 to matrix element file.
 Write ALPHA MO COEFFICIENTS               from file  10524 offset           0 length               35721 to matrix element file.
 Write BETA MO COEFFICIENTS                from file  10526 offset           0 length               35721 to matrix element file.
 Write ALPHA DENSITY MATRIX                from file      0 offset           0 length               17955 to matrix element file.
 Write BETA DENSITY MATRIX                 from file      0 offset           0 length               17955 to matrix element file.
 Write ALPHA FOCK MATRIX                   from file  10536 offset           0 length               17955 to matrix element file.
 Write BETA FOCK MATRIX                    from file  10538 offset           0 length               17955 to matrix element file.
 Write ENERGY-WEIGHTED DENSITY             from file  10571 offset           0 length               17955 to matrix element file.
 Write ALPHA SCF DENSITY MATRIX            from file      0 offset           0 length               17955 to matrix element file.
 Write BETA SCF DENSITY MATRIX             from file      0 offset           0 length               17955 to matrix element file.
 No 2e integrals to process.
 Perform NBO analysis...

 *********************************** NBO 7.0 ***********************************
             N A T U R A L   A T O M I C   O R B I T A L   A N D
          N A T U R A L   B O N D   O R B I T A L   A N A L Y S I S
 **************************** Robert Paton (I101709) ***************************
  (c) Copyright 1996-2019 Board of Regents of the University of Wisconsin System
      on behalf of the Theoretical Chemistry Institute.  All rights reserved.

          Cite this program [NBO 7.0.5 (4-Jun-2019)] as:

          NBO 7.0.  E. D. Glendening, J. K. Badenhoop, A. E. Reed,
          J. E. Carpenter, J. A. Bohmann, C. M. Morales, P. Karafiloglou,
          C. R. Landis, and F. Weinhold, Theoretical Chemistry Institute,
          University of Wisconsin, Madison, WI (2018)

 Filename set to /home/rpaton/arbr500/xtb/fukui/Gau-2146893

 Job title:  energy: -44.567785349378 gnorm: 0.000473625240 xtb: 6.7.0 (08769fc)


 NATURAL POPULATIONS:  Natural atomic orbital occupancies

  NAO Atom No lang   Type(AO)    Occupancy     Spin
 -----------------------------------------------------
   1   Br  1  s      Cor( 3s)     2.00000     0.00000
[...]
   60. BD ( 1) C 11- H 24     125. RY ( 3) C  5            0.31    1.51   0.027
   61. BD ( 1) O 12- C 13      82. BD*( 1) C  6- C  8      0.55    1.28   0.033
   61. BD ( 1) O 12- C 13      86. BD*( 1) C  8- O 15      1.83    1.12   0.057
   61. BD ( 1) O 12- C 13      99. BD*( 1) C 14- O 15      1.01    1.16   0.043
   61. BD ( 1) O 12- C 13     100. BD*( 1) C 14- H 27      0.50    1.37   0.033
   61. BD ( 1) O 12- C 13     135. RY ( 1) C  8            0.62    1.96   0.044
   62. BD ( 1) C 13- C 14      97. BD*( 1) C 13- H 25      0.25    1.24   0.022
   62. BD ( 1) C 13- C 14     100. BD*( 1) C 14- H 27      0.29    1.22   0.024
   62. BD ( 1) C 13- C 14     101. BD*( 1) C 14- H 28      0.30    1.20   0.024
   62. BD ( 1) C 13- C 14     137. RY ( 3) C  8            0.26    1.86   0.028
   63. BD ( 1) C 13- H 25      85. BD*( 1) C  8- O 12      0.93    0.93   0.037
   63. BD ( 1) C 13- H 25      99. BD*( 1) C 14- O 15      1.18    0.93   0.042
   64. BD ( 1) C 13- H 26     101. BD*( 1) C 14- H 28      0.92    1.11   0.040
   64. BD ( 1) C 13- H 26     165. RY ( 2) C 14            0.28    1.70   0.028
   65. BD ( 1) C 14- O 15      84. BD*( 1) C  8- C  9      0.40    1.30   0.029
   65. BD ( 1) C 14- O 15      85. BD*( 1) C  8- O 12      1.52    1.21   0.054
   65. BD ( 1) C 14- O 15      95. BD*( 1) O 12- C 13      0.82    1.24   0.040
   65. BD ( 1) C 14- O 15      97. BD*( 1) C 13- H 25      0.43    1.43   0.031
   65. BD ( 1) C 14- O 15     135. RY ( 1) C  8            0.75    2.01   0.049
   66. BD ( 1) C 14- H 27      86. BD*( 1) C  8- O 15      0.71    0.90   0.032
   66. BD ( 1) C 14- H 27      95. BD*( 1) O 12- C 13      0.97    0.97   0.039
   67. BD ( 1) C 14- H 28      86. BD*( 1) C  8- O 15      0.31    0.89   0.021
   67. BD ( 1) C 14- H 28      98. BD*( 1) C 13- H 26      0.88    1.14   0.040
   67. BD ( 1) C 14- H 28     161. RY ( 2) C 13            0.27    1.77   0.027
   67. BD ( 1) C 14- H 28     169. RY ( 2) O 15            0.38    2.32   0.038


 NATURAL BOND ORBITALS (Summary):

                                                     Principal Delocalizations
           NBO                 Occupancy    Energy   (geminal,vicinal,remote)
 ===============================================================================
 Molecular unit  1  (C12H13O2Br)
 ------ Lewis --------------------------------------
    1. CR ( 1)Br  1             1.00000   -19.17769
    2. CR ( 2)Br  1             1.00000  -452.59017
    3. CR ( 3)Br  1             1.00000   -80.22495
    4. CR ( 4)Br  1             1.00000    -7.35844
    5. CR ( 5)Br  1             0.99999   -55.73163
    6. CR ( 6)Br  1             1.00000    -7.35043
    7. CR ( 7)Br  1             1.00000   -55.72965
    8. CR ( 8)Br  1             1.00000    -7.34675
    9. CR ( 9)Br  1             1.00000   -55.72868
   10. CR (10)Br  1             0.99974    -2.89727  104(g)
   11. CR (11)Br  1             0.99995    -2.89429
   12. CR (12)Br  1             0.99998    -2.88800
   13. CR (13)Br  1             0.99981    -2.89716
   14. CR (14)Br  1             0.99990    -2.88920
   15. CR ( 1) C  2             0.99994   -10.43966
   16. CR ( 1) C  3             0.99993   -10.40165
   17. CR ( 1) C  4             0.99993   -10.39911
   18. CR ( 1) C  5             0.99995   -10.40997
   19. CR ( 1) C  6             0.99993   -10.43095
   20. CR ( 1) C  7             0.99992   -10.41718
   21. CR ( 1) C  8             0.99988   -10.53985
   22. CR ( 1) C  9             0.99988   -10.39462  141(g)
   23. CR ( 1) C 10             0.99988   -10.37129  146(g)
   24. CR ( 1) C 11             0.99988   -10.37298
   25. CR ( 1) O 12             0.99993   -19.35196  153(g)
   26. CR ( 1) C 13             0.99988   -10.44896
   27. CR ( 1) C 14             0.99989   -10.46628
   28. CR ( 1) O 15             0.99993   -19.42283  170(g)
   29. LP ( 1)Br  1             0.99841    -0.88009  112(v)
   30. LP ( 2)Br  1             0.98711    -0.48229  73(v),71(v),111(v)
   31. LP ( 3)Br  1             0.95996    -0.47432  72(v),69(r)
   32. LP ( 1) O 12             0.97865    -0.75561  86(v),135(v),96(v),160(v)
                                                     97(v),82(v)
   33. LP ( 2) O 12             0.88857    -0.52450  98(v),84(v),82(v),86(v)
                                                     96(v),97(v),87(r),99(r)
   34. LP ( 1) O 15             0.98275    -0.79708  85(v),96(v),135(v),164(v)
                                                     100(v),136(v)
   35. LP ( 2) O 15             0.56574    -0.46702  79(r),101(v),82(v),84(v)
                                                     69(r),100(v),86(g),68(r)
                                                     89(r),96(v)
   36. BD ( 1)Br  1- C  2       0.99130    -0.75627  81(v),115(v),74(v),131(v)
                                                     132(v)
   37. BD ( 1) C  2- C  3       0.99049    -0.87441  73(g),74(g),120(v),132(v)
                                                     75(g),83(v),77(v),119(v)
   38. BD ( 2) C  2- C  3       0.81488    -0.47205  69(v),68(v),102(v),134(v)
                                                     122(v)
   39. BD ( 1) C  2- C  7       0.98759    -0.87977  71(g),81(g),82(v),83(g)
                                                     128(v),75(v),115(v),116(v)
                                                     69(g),127(v)
   40. BD ( 1) C  3- C  4       0.98757    -0.85515  70(v),124(v),76(g),71(g)
                                                     80(v),111(v),75(g),77(g)
                                                     112(v)
   41. BD ( 1) C  3- H 16       0.98994    -0.72282  73(v),76(v),112(v),119(v)
                                                     71(g),74(g),70(v)
   42. BD ( 1) C  4- C  5       0.98377    -0.84659  78(g),82(v),80(g),74(g)
                                                     116(v),127(v),77(g),75(v)
                                                     147(v),68(g),90(v)
   43. BD ( 1) C  4- H 17       0.99013    -0.72111  78(v),71(v),123(v),115(v)
                                                     76(g),74(g),80(v)
   44. BD ( 1) C  5- C  6       0.98339    -0.85826  81(g),76(g),82(g),80(g)
                                                     83(v),77(v),119(v),131(v)
                                                     85(v),147(v),136(v),120(v)
                                                     132(v)
   45. BD ( 2) C  5- C  6       0.79814    -0.46673  68(v),69(v),86(v),85(v)
                                                     94(v),93(v),122(v),134(v)
   46. BD ( 1) C  5- C 11       0.98495    -0.77988  76(g),78(g),119(v),81(v)
                                                     128(v),74(v),91(v),143(v)
                                                     90(g),93(g),94(g),82(v)
   47. BD ( 1) C  6- C  7       0.98039    -0.86157  78(g),70(v),73(g),69(g)
                                                     80(v),111(v),82(g),83(g)
                                                     123(v),136(v),112(v),124(v)
                                                     137(v),84(v)
   48. BD ( 1) C  6- C  8       0.93599    -0.82679  131(v),78(g),123(v),81(g)
                                                     69(v),76(v),73(v),84(g)
                                                     139(v),95(v),88(v),169(v)
                                                     151(v)
   49. BD ( 1) C  7- H 18       0.99007    -0.73951  78(v),71(v),112(v),73(g)
                                                     128(v),81(g),70(v),82(v)
                                                     127(v)
   50. BD ( 1) C  8- C  9       0.93089    -0.80275  81(v),82(g),127(v),143(v)
                                                     91(v),168(v),99(v),87(g)
                                                     151(v),89(g)
   51. BD ( 1) C  8- O 12       0.99236    -1.00632  97(v),86(g),87(v),78(v)
                                                     79(v),96(v),160(v)
   52. BD ( 1) C  8- O 15       0.99374    -1.03564  79(v),85(g),96(v),89(v)
                                                     100(v),165(v)
   53. BD ( 1) C  9- C 10       0.98670    -0.76771  85(v),93(v),148(v),88(g)
                                                     91(g),89(g),90(g),147(v)
                                                     84(g)
   54. BD ( 1) C  9- H 19       0.98804    -0.71235  82(v),90(v),86(v),85(v)
                                                     87(g),89(g)
   55. BD ( 1) C  9- H 20       0.98197    -0.70880  86(v),92(v),85(v),88(g)
   56. BD ( 1) C 10- C 11       0.99140    -0.75617  76(v),88(v),80(g),139(v)
                                                     91(g),93(g),124(v),94(g)
                                                     87(g),92(g)
   57. BD ( 1) C 10- H 21       0.98178    -0.68585  84(v),80(v),90(g),87(g)
                                                     149(v)
   58. BD ( 1) C 10- H 22       0.99146    -0.69109  89(v),94(v),91(g),84(v)
   59. BD ( 1) C 11- H 23       0.98886    -0.68855  79(v),87(v),78(v),90(g)
                                                     80(g)
   60. BD ( 1) C 11- H 24       0.98434    -0.68560  79(v),92(v),78(v),125(v)
                                                     80(g)
   61. BD ( 1) O 12- C 13       0.99107    -0.98324  86(v),99(v),135(v),82(v)
                                                     100(v)
   62. BD ( 1) C 13- C 14       0.99618    -0.83307  101(g),100(g),137(r),97(g)
   63. BD ( 1) C 13- H 25       0.98990    -0.74789  99(v),85(v)
   64. BD ( 1) C 13- H 26       0.99484    -0.74286  101(v),165(v)
   65. BD ( 1) C 14- O 15       0.99302    -1.02888  85(v),95(v),135(v),97(v)
                                                     84(v)
   66. BD ( 1) C 14- H 27       0.97739    -0.76082  95(v),86(v)
   67. BD ( 1) C 14- H 28       0.96808    -0.75463  98(v),169(v),86(v),161(v)
 ------ non-Lewis ----------------------------------
   68. LV ( 1) C  4             0.42370    -0.24908
   69. LV ( 1) C  7             0.37466    -0.24443
   70. BD*( 1)Br  1- C  2       0.01148     0.04694
   71. BD*( 1) C  2- C  3       0.01116     0.51647
   72. BD*( 2) C  2- C  3       0.13921    -0.08030
   73. BD*( 1) C  2- C  7       0.01142     0.51566
   74. BD*( 1) C  3- C  4       0.00756     0.53798
   75. BD*( 1) C  3- H 16       0.00542     0.45965
   76. BD*( 1) C  4- C  5       0.01135     0.52128
   77. BD*( 1) C  4- H 17       0.00541     0.45084
   78. BD*( 1) C  5- C  6       0.01468     0.51464
   79. BD*( 2) C  5- C  6       0.17413    -0.08075
   80. BD*( 1) C  5- C 11       0.01070     0.37060
   81. BD*( 1) C  6- C  7       0.01316     0.50684
   82. BD*( 1) C  6- C  8       0.02427     0.30028
   83. BD*( 1) C  7- H 18       0.00683     0.43032
   84. BD*( 1) C  8- C  9       0.01867     0.27415
   85. BD*( 1) C  8- O 12       0.02736     0.18448
   86. BD*( 1) C  8- O 15       0.04512     0.14014
   87. BD*( 1) C  9- C 10       0.00723     0.32151
   88. BD*( 1) C  9- H 19       0.00420     0.40260
   89. BD*( 1) C  9- H 20       0.00556     0.40074
   90. BD*( 1) C 10- C 11       0.00549     0.33653
   91. BD*( 1) C 10- H 21       0.00418     0.42883
   92. BD*( 1) C 10- H 22       0.00577     0.41281
   93. BD*( 1) C 11- H 23       0.00448     0.41940
   94. BD*( 1) C 11- H 24       0.00611     0.40465
   95. BD*( 1) O 12- C 13       0.00669     0.20808
   96. BD*( 1) C 13- C 14       0.01204     0.26224
   97. BD*( 1) C 13- H 25       0.00562     0.40589
   98. BD*( 1) C 13- H 26       0.01153     0.38163
   99. BD*( 1) C 14- O 15       0.00913     0.17735
  100. BD*( 1) C 14- H 27       0.00510     0.38989
  101. BD*( 1) C 14- H 28       0.00787     0.36642
  102. RY ( 1)Br  1             0.00083     0.56014
  103. RY ( 2)Br  1             0.00043     0.62877
  104. RY ( 3)Br  1             0.00031     1.01206
  105. RY ( 4)Br  1             0.00010     0.69506
  106. RY ( 5)Br  1             0.00006     0.81718
  107. RY ( 6)Br  1             0.00001     0.64123
  108. RY ( 7)Br  1             0.00001     0.55665
  109. RY ( 8)Br  1             0.00001     0.54258
  110. RY ( 9)Br  1             0.00001     0.60408
  111. RY ( 1) C  2             0.00374     0.95212
  112. RY ( 2) C  2             0.00266     1.22484
  113. RY ( 3) C  2             0.00050     0.80466
  114. RY ( 4) C  2             0.00019     0.57626
  115. RY ( 1) C  3             0.00274     1.21071
  116. RY ( 2) C  3             0.00176     0.87531
  117. RY ( 3) C  3             0.00023     0.58788
  118. RY ( 4) C  3             0.00014     0.78584
  119. RY ( 1) C  4             0.00264     1.24157
  120. RY ( 2) C  4             0.00161     0.90437
  121. RY ( 3) C  4             0.00018     0.60941
  122. RY ( 4) C  4             0.00008     0.79466
  123. RY ( 1) C  5             0.00237     1.34675
  124. RY ( 2) C  5             0.00196     1.16150
  125. RY ( 3) C  5             0.00065     0.82843
  126. RY ( 4) C  5             0.00026     0.68593
  127. RY ( 1) C  6             0.00240     1.23485
  128. RY ( 2) C  6             0.00219     1.20381
  129. RY ( 3) C  6             0.00086     0.78331
  130. RY ( 4) C  6             0.00051     0.82554
  131. RY ( 1) C  7             0.00286     1.21030
  132. RY ( 2) C  7             0.00221     0.89131
  133. RY ( 3) C  7             0.00034     0.59801
  134. RY ( 4) C  7             0.00022     0.77291
  135. RY ( 1) C  8             0.00452     0.97787
  136. RY ( 2) C  8             0.00284     1.04982
  137. RY ( 3) C  8             0.00129     1.03168
  138. RY ( 4) C  8             0.00061     1.08699
  139. RY ( 1) C  9             0.00162     1.07277
  140. RY ( 2) C  9             0.00086     0.87630
  141. RY ( 3) C  9             0.00045     1.07054
  142. RY ( 4) C  9             0.00028     0.81899
  143. RY ( 1) C 10             0.00154     1.11011
  144. RY ( 2) C 10             0.00047     0.86065
  145. RY ( 3) C 10             0.00038     0.85620
  146. RY ( 4) C 10             0.00012     1.07115
  147. RY ( 1) C 11             0.00159     0.99057
  148. RY ( 2) C 11             0.00086     0.95513
  149. RY ( 3) C 11             0.00052     0.87393
  150. RY ( 4) C 11             0.00014     1.02657
  151. RY ( 1) O 12             0.00088     1.58913
  152. RY ( 2) O 12             0.00065     1.43698
  153. RY ( 3) O 12             0.00022     2.05587
  154. RY ( 4) O 12             0.00011     1.96232
  155. RY ( 5) O 12             0.00010     2.11959
  156. RY ( 6) O 12             0.00006     1.93224
  157. RY ( 7) O 12             0.00003     1.87822
  158. RY ( 8) O 12             0.00002     1.74662
  159. RY ( 9) O 12             0.00001     1.86519
  160. RY ( 1) C 13             0.00136     0.72725
  161. RY ( 2) C 13             0.00068     1.01273
  162. RY ( 3) C 13             0.00034     0.81375
  163. RY ( 4) C 13             0.00018     0.87860
  164. RY ( 1) C 14             0.00152     0.72049
  165. RY ( 2) C 14             0.00083     0.95277
  166. RY ( 3) C 14             0.00024     0.77436
  167. RY ( 4) C 14             0.00018     0.88541
  168. RY ( 1) O 15             0.00109     1.47301
  169. RY ( 2) O 15             0.00073     1.56042
  170. RY ( 3) O 15             0.00026     2.02384
  171. RY ( 4) O 15             0.00016     2.00987
  172. RY ( 5) O 15             0.00012     1.84152
  173. RY ( 6) O 15             0.00012     2.05271
  174. RY ( 7) O 15             0.00002     1.77790
  175. RY ( 8) O 15             0.00002     1.74044
  176. RY ( 9) O 15             0.00001     1.82550
  177. RY ( 1) H 16             0.00058     0.48100
  178. RY ( 1) H 17             0.00041     0.49377
  179. RY ( 1) H 18             0.00178     0.51867
  180. RY ( 1) H 19             0.00071     0.49947
  181. RY ( 1) H 20             0.00089     0.50516
  182. RY ( 1) H 21             0.00056     0.49815
  183. RY ( 1) H 22             0.00121     0.52620
  184. RY ( 1) H 23             0.00059     0.51156
  185. RY ( 1) H 24             0.00067     0.51342
  186. RY ( 1) H 25             0.00033     0.44226
  187. RY ( 1) H 26             0.00087     0.47397
  188. RY ( 1) H 27             0.00033     0.42906
  189. RY ( 1) H 28             0.00073     0.46181
          -------------------------------
                 Total Lewis   65.48995  ( 97.7462%)
           Valence non-Lewis    1.43732  (  2.1452%)
           Rydberg non-Lewis    0.07274  (  0.1086%)
          -------------------------------
               Total unit  1   67.00000  (100.0000%)
              Charge unit  1    1.00000

 $CHOOSE
  ALPHA
   LONE 1 3 12 2 15 2 END
   BOND S 1 2 S 2 3 D 2 7 D 3 4 S 3 16 S 4 5 S 4 17 D 5 6 S 5 11 S 6 7 S 6 8
        S 7 18 S 8 9 S 8 12 S 8 15 S 9 10 S 9 19 S 9 20 S 10 11 S 10 21 S 10 22
        S 11 23 S 11 24 S 12 13 S 13 14 S 13 25 S 13 26 S 14 15 S 14 27 S 14 28
        END
  END
  BETA
   LONE 1 3 12 2 15 2 END
   BOND S 1 2 D 2 3 S 2 7 S 3 4 S 3 16 S 4 5 S 4 17 D 5 6 S 5 11 S 6 7 S 6 8
        S 7 18 S 8 9 S 8 12 S 8 15 S 9 10 S 9 19 S 9 20 S 10 11 S 10 21 S 10 22
        S 11 23 S 11 24 S 12 13 S 13 14 S 13 25 S 13 26 S 14 15 S 14 27 S 14 28
        END
  END
 $END

 NBO analysis completed in 1.29 CPU seconds (1 wall second)
 Maximum scratch memory used by NBO was 774392 words (5.91 MB)
 Maximum scratch memory used by G16NBO was 80940 words (0.62 MB)

 Opening RunExU unformatted file "/home/rpaton/arbr500/xtb/fukui/Gau-2146893.EUF"
 Read unf file /home/rpaton/arbr500/xtb/fukui/Gau-2146893.EUF:
 Label Gaussian matrix elements                                         IVers= 2 NLab= 2 Version=ES64L-G16RevC.01
 Title energy: -44.567785349378 gnorm: 0.000473625240 xtb: 6.7.0 (08769
 NAtoms=    28 NBasis=   189 NBsUse=   189 ICharg=     1 Multip=     2 NE=   135 Len12L=8 Len4L=8 IOpCl= 1 ICGU=112
 GAUSSIAN SCALARS                    NI= 1 NR= 1 NTot=       1 LenBuf=    2 NRI=1 N=    1000
 NPA CHARGES                         NI= 0 NR= 1 NTot=      28 LenBuf= 2048 NRI=1 N=      28
 Recovered energy= -3173.51583780     dipole=      2.549951287787     -0.454379034809      0.419386043376
 Unable to Open any file for archive entry.
 1\1\GINC-DYNAMO\SP\UwB97XD\MIDIx\C12H13Br1O2(1+,2)\RPATON\28-Sep-2024\
 0\\# wb97xd midix pop(nbo6,hirshfeld)\\energy: -44.567785349378 gnorm:
  0.000473625240 xtb: 6.7.0 (08769fc)\\1,2\Br,0,-3.39367,-0.60336,-0.04
 621\C,0,-1.76131,0.37734,-0.02985\C,0,-1.79339,1.75393,0.10409\C,0,-0.
 59771,2.44498,0.11267\C,0,0.6248,1.79091,-0.0038\C,0,0.63224,0.40349,-
 0.13462\C,0,-0.56466,-0.30035,-0.14609\C,0,1.92928,-0.38605,-0.1951\C,
 0,3.10324,0.50838,-0.61011\C,0,3.11929,1.74705,0.2733\C,0,1.89151,2.59
 764,-0.02493\O,0,1.77654,-1.48125,-1.07777\C,0,2.32221,-2.62242,-0.455
 67\C,0,2.11245,-2.33071,1.03161\O,0,2.20545,-0.92663,1.09922\H,0,-2.73
 428,2.27386,0.19918\H,0,-0.61116,3.52057,0.21283\H,0,-0.55261,-1.37277
 ,-0.26252\H,0,4.02775,-0.06036,-0.50203\H,0,2.97486,0.77618,-1.66024\H
 ,0,4.02729,2.32613,0.09935\H,0,3.10551,1.42691,1.31636\H,0,1.81314,3.4
 1916,0.69027\H,0,1.99339,3.04166,-1.02137\H,0,1.78497,-3.49926,-0.8164
 2\H,0,3.39066,-2.71702,-0.69269\H,0,2.88049,-2.76046,1.67596\H,0,1.120
 62,-2.66291,1.36719\\Version=ES64L-G16RevC.01\State=2-A\HF=-3173.51583
 78\S2=0.757097\S2-1=0.\S2A=0.750036\RMSD=6.189e-09\Dipole=2.5534933,-0
 .4175392,0.4358087\Quadrupole=7.6525003,9.1862899,-16.8387902,-7.40821
 13,0.6018234,-2.6340067\PG=C01 [X(C12H13Br1O2)]\\@
 The archive entry for this job was punched.


 There ain't no surer way to find out whether you
 like people or hate them than to travel with them.
                                     -- Mark Twain
 Job cpu time:       0 days  0 hours 25 minutes 58.1 seconds.
 Elapsed time:       0 days  0 hours  1 minutes  5.4 seconds.
 File lengths (MBytes):  RWF=     39 Int=      0 D2E=      0 Chk=      4 Scr=      1
 Normal termination of Gaussian 16 at Sat Sep 28 19:27:59 2024.
