 Entering Gaussian System, Link 0=/usr/local/Gaussian/G16C/g16/g16
 Input=arbr34_xtbopt_oxd.com
 Output=arbr34_xtbopt_oxd.log
 Initial command:
 /usr/local/Gaussian/G16C/g16/l1.exe "/home/rpaton/arbr500/xtb/fukui/Gau-2133916.inp" -scrdir="/home/rpaton/arbr500/xtb/fukui/"
 Entering Link 1 = /usr/local/Gaussian/G16C/g16/l1.exe PID=   2133917.
  
 Copyright (c) 1988-2019, Gaussian, Inc.  All Rights Reserved.
  
 This is part of the Gaussian(R) 16 program.  It is based on
 the Gaussian(R) 09 system (copyright 2009, Gaussian, Inc.),
 the Gaussian(R) 03 system (copyright 2003, Gaussian, Inc.),
 the Gaussian(R) 98 system (copyright 1998, Gaussian, Inc.),
 the Gaussian(R) 94 system (copyright 1995, Gaussian, Inc.),
 the Gaussian 92(TM) system (copyright 1992, Gaussian, Inc.),
 the Gaussian 90(TM) system (copyright 1990, Gaussian, Inc.),
 the Gaussian 88(TM) system (copyright 1988, Gaussian, Inc.),
 the Gaussian 86(TM) system (copyright 1986, Carnegie Mellon
 University), and the Gaussian 82(TM) system (copyright 1983,
 Carnegie Mellon University). Gaussian is a federally registered
 trademark of Gaussian, Inc.
  
 This software contains proprietary and confidential information,
 including trade secrets, belonging to Gaussian, Inc.
  
 This software is provided under written license and may be
 used, copied, transmitted, or stored only in accord with that
 written license.
  
 The following legend is applicable only to US Government
 contracts under FAR:
  
                    RESTRICTED RIGHTS LEGEND
  
 Use, reproduction and disclosure by the US Government is
 subject to restrictions as set forth in subparagraphs (a)
 and (c) of the Commercial Computer Software - Restricted
 Rights clause in FAR 52.227-19.
  
 Gaussian, Inc.
 340 Quinnipiac St., Bldg. 40, Wallingford CT 06492
  
  
 ---------------------------------------------------------------
 Warning -- This program may not be used in any manner that
 competes with the business of Gaussian, Inc. or will provide
 assistance to any competitor of Gaussian, Inc.  The licensee
 of this program is prohibited from giving any competitor of
 Gaussian, Inc. access to this program.  By using this program,
 the user acknowledges that Gaussian, Inc. is engaged in the
 business of creating and licensing software in the field of
 computational chemistry and represents and warrants to the
 licensee that it is not a competitor of Gaussian, Inc. and that
 it will not use this program in any manner prohibited above.
 ---------------------------------------------------------------
  

 Cite this work as:
 Gaussian 16, Revision C.01,
 M. J. Frisch, G. W. Trucks, H. B. Schlegel, G. E. Scuseria, 
 M. A. Robb, J. R. Cheeseman, G. Scalmani, V. Barone, 
 G. A. Petersson, H. Nakatsuji, X. Li, M. Caricato, A. V. Marenich, 
 J. Bloino, B. G. Janesko, R. Gomperts, B. Mennucci, H. P. Hratchian, 
 J. V. Ortiz, A. F. Izmaylov, J. L. Sonnenberg, D. Williams-Young, 
 F. Ding, F. Lipparini, F. Egidi, J. Goings, B. Peng, A. Petrone, 
 T. Henderson, D. Ranasinghe, V. G. Zakrzewski, J. Gao, N. Rega, 
 G. Zheng, W. Liang, M. Hada, M. Ehara, K. Toyota, R. Fukuda, 
 J. Hasegawa, M. Ishida, T. Nakajima, Y. Honda, O. Kitao, H. Nakai, 
 T. Vreven, K. Throssell, J. A. Montgomery, Jr., J. E. Peralta, 
 F. Ogliaro, M. J. Bearpark, J. J. Heyd, E. N. Brothers, K. N. Kudin, 
 V. N. Staroverov, T. A. Keith, R. Kobayashi, J. Normand, 
 K. Raghavachari, A. P. Rendell, J. C. Burant, S. S. Iyengar, 
 J. Tomasi, M. Cossi, J. M. Millam, M. Klene, C. Adamo, R. Cammi, 
 J. W. Ochterski, R. L. Martin, K. Morokuma, O. Farkas, 
 J. B. Foresman, and D. J. Fox, Gaussian, Inc., Wallingford CT, 2019.
 
 ******************************************
 Gaussian 16:  ES64L-G16RevC.01  3-Jul-2019
                28-Sep-2024 
 ******************************************
 %nprocshared=24
 Will use up to   24 processors via shared memory.
 ----------------------------------
 # wb97xd midix pop(nbo6,hirshfeld)
 ----------------------------------
 1/38=1,172=1/1;
 2/12=2,17=6,18=5,40=1/2;
 3/5=20,11=2,25=1,30=1,74=-58/1,2,3;
 4//1;
 5/5=2,38=5/2;
 6/7=2,8=2,9=2,10=2,28=1,40=1,79=1,113=1,114=1,124=3103,126=1/1,12;
 99/5=1,9=1/99;
 -------------------------------------------------------------------
 energy: -36.515935481572 gnorm: 0.000782190493 xtb: 6.7.0 (08769fc)
 -------------------------------------------------------------------
 Symbolic Z-matrix:
 Charge =  1 Multiplicity = 2
 Br                    3.81427  -0.10734   0.00001 
 C                     1.92224   0.14786   0.00001 
 C                     1.41994   1.44007   0. 
 C                     0.05064   1.64485  -0.00001 
 C                    -0.79269   0.54462   0. 
 C                    -0.2654   -0.75758   0.00001 
 C                     1.09674  -0.96773   0.00001 
 C                    -1.37291  -1.7686    0.00002 
 C                    -2.60087  -0.90514   0.00001 
 C                    -3.92844  -1.27823   0.00001 
 C                    -4.89984  -0.28654  -0.00001 
 C                    -4.54677   1.05512  -0.00001 
 C                    -3.21601   1.43872  -0.00001 
 C                    -2.24257   0.4522    0. 
 H                     2.09902   2.27896  -0.00001 
 H                    -0.34595   2.64859  -0.00002 
 H                     1.51605  -1.96257   0.00003 
 H                    -1.33053  -2.41484  -0.88042 
 H                    -1.33053  -2.41482   0.88046 
 H                    -4.21017  -2.32134   0.00001 
 H                    -5.94384  -0.56324   0. 
 H                    -5.32047   1.80892  -0.00002 
 H                    -2.944     2.48365  -0.00002 
 
                          Input orientation:                          
 ---------------------------------------------------------------------
 Center     Atomic      Atomic             Coordinates (Angstroms)
 Number     Number       Type             X           Y           Z
 ---------------------------------------------------------------------
      1         35           0        3.814270   -0.107340    0.000010
      2          6           0        1.922240    0.147860    0.000010
      3          6           0        1.419940    1.440070    0.000000
      4          6           0        0.050640    1.644850   -0.000010
      5          6           0       -0.792690    0.544620    0.000000
      6          6           0       -0.265400   -0.757580    0.000010
      7          6           0        1.096740   -0.967730    0.000010
      8          6           0       -1.372910   -1.768600    0.000020
      9          6           0       -2.600870   -0.905140    0.000010
     10          6           0       -3.928440   -1.278230    0.000010
     11          6           0       -4.899840   -0.286540   -0.000010
     12          6           0       -4.546770    1.055120   -0.000010
     13          6           0       -3.216010    1.438720   -0.000010
     14          6           0       -2.242570    0.452200    0.000000
     15          1           0        2.099020    2.278960   -0.000010
     16          1           0       -0.345950    2.648590   -0.000020
     17          1           0        1.516050   -1.962570    0.000030
     18          1           0       -1.330530   -2.414840   -0.880420
     19          1           0       -1.330530   -2.414820    0.880460
     20          1           0       -4.210170   -2.321340    0.000010
     21          1           0       -5.943840   -0.563240    0.000000
     22          1           0       -5.320470    1.808920   -0.000020
     23          1           0       -2.944000    2.483650   -0.000020
 ---------------------------------------------------------------------
                    Distance matrix (angstroms):
                    1          2          3          4          5
     1  Br   0.000000
     2  C    1.909163   0.000000
     3  C    2.850841   1.386403   0.000000
     4  C    4.151515   2.396636   1.384528   0.000000
     5  C    4.652863   2.743768   2.386957   1.386258   0.000000
     6  C    4.131164   2.367613   2.769483   2.423128   1.404906
     7  C    2.850481   1.387801   2.429395   2.814232   2.420155
     8  C    5.446707   3.811933   4.253889   3.698396   2.384878
     9  C    6.464558   4.644064   4.654774   3.678716   2.317611
    10  C    7.830743   6.021976   5.999527   4.937355   3.627080
    11  C    8.715952   6.835896   6.551397   5.313899   4.190407
    12  C    8.441463   6.532320   5.979115   4.635079   3.788631
    13  C    7.198273   5.297918   4.635950   3.273147   2.583001
    14  C    6.082631   4.175915   3.793398   2.584807   1.452823
    15  H    2.938794   2.138420   1.079299   2.144285   3.371931
    16  H    4.990249   3.376142   2.139834   1.079249   2.150876
    17  H    2.953590   2.149164   3.403997   3.893701   3.408267
    18  H    5.706898   4.233568   4.816696   4.377652   3.134137
    19  H    5.706893   4.233560   4.816687   4.377645   3.134129
    20  H    8.324268   6.610855   6.770993   5.821097   4.460145
    21  H    9.768754   7.898157   7.631416   6.388228   5.268937
    22  H    9.333570   7.430745   6.750495   5.373615   4.700984
    23  H    7.237917   5.397796   4.486985   3.109896   2.896200
                    6          7          8          9         10
     6  C    0.000000
     7  C    1.378256   0.000000
     8  C    1.499580   2.596260   0.000000
     9  C    2.340127   3.698140   1.501149   0.000000
    10  C    3.699857   5.034764   2.602152   1.378999   0.000000
    11  C    4.658317   6.035146   3.825668   2.380741   1.388188
    12  C    4.649302   5.995092   4.248150   2.762091   2.413888
    13  C    3.678292   4.938706   3.699178   2.423237   2.808803
    14  C    2.317923   3.628663   2.385008   1.403834   2.415894
    15  H    3.848514   3.397876   5.332639   5.676923   6.998848
    16  H    3.407122   3.893472   4.534999   4.208760   5.315463
    17  H    2.150713   1.079596   2.895464   4.250552   5.487330
    18  H    2.157816   2.959886   1.092976   2.160582   2.969205
    19  H    2.157809   2.959882   1.092964   2.160576   2.969203
    20  H    4.243413   5.476820   2.890600   2.143704   1.080486
    21  H    5.681765   7.052190   4.727187   3.360408   2.138469
    22  H    5.669273   6.992165   5.327465   3.842180   3.386479
    23  H    4.204815   5.314095   4.533206   3.406117   3.888555
                   11         12         13         14         15
    11  C    0.000000
    12  C    1.387339   0.000000
    13  C    2.410769   1.384944   0.000000
    14  C    2.758047   2.381775   1.385932   0.000000
    15  H    7.454249   6.757537   5.381036   4.710250   0.000000
    16  H    5.417832   4.492887   3.114648   2.901947   2.472752
    17  H    6.631193   6.772314   5.827621   4.467476   4.281405
    18  H    4.247912   4.812478   4.379507   3.134785   5.879515
    19  H    4.247914   4.812474   4.379501   3.134778   5.879508
    20  H    2.148501   3.393196   3.889268   3.400584   7.808242
    21  H    1.080046   2.137965   3.383622   3.838036   8.530281
    22  H    2.137260   1.080197   2.136773   3.363652   7.434364
    23  H    3.391056   2.146991   1.079754   2.149138   5.047172
                   16         17         18         19         20
    16  H    0.000000
    17  H    4.972911   0.000000
    18  H    5.232860   3.013761   0.000000
    19  H    5.232854   3.013753   1.760880   0.000000
    20  H    6.295427   5.737448   3.012678   3.012683   0.000000
    21  H    6.453853   7.589999   5.048385   5.048385   2.469115
    22  H    5.044888   7.807826   5.876638   5.876636   4.276893
    23  H    2.603280   6.297692   5.231978   5.231973   4.969016
                   21         22         23
    21  H    0.000000
    22  H    2.452699   0.000000
    23  H    4.275813   2.470399   0.000000
 Stoichiometry    C13H9Br(1+,2)
 Framework group  C1[X(C13H9Br)]
 Deg. of freedom    63
 Full point group                 C1      NOp   1
 Largest Abelian subgroup         C1      NOp   1
 Largest concise Abelian subgroup C1      NOp   1
                         Standard orientation:                         
 ---------------------------------------------------------------------
 Center     Atomic      Atomic             Coordinates (Angstroms)
 Number     Number       Type             X           Y           Z
 ---------------------------------------------------------------------
      1         35           0        3.818859   -0.112074    0.000006
      2          6           0        1.926957    0.144074    0.000006
      3          6           0        1.425304    1.436535   -0.000004
      4          6           0        0.056107    1.642001   -0.000014
      5          6           0       -0.787774    0.542194   -0.000004
      6          6           0       -0.261137   -0.760270    0.000006
      7          6           0        1.100898   -0.971102    0.000006
      8          6           0       -1.369153   -1.770735    0.000016
      9          6           0       -2.596680   -0.906660    0.000006
     10          6           0       -3.924437   -1.279085    0.000006
     11          6           0       -4.895340   -0.286908   -0.000014
     12          6           0       -4.541598    1.054575   -0.000014
     13          6           0       -3.210646    1.437508   -0.000014
     14          6           0       -2.237700    0.450500   -0.000004
     15          1           0        2.104804    2.275085   -0.000014
     16          1           0       -0.339980    2.645940   -0.000024
     17          1           0        1.519709   -1.966152    0.000026
     18          1           0       -1.327097   -2.416996   -0.880424
     19          1           0       -1.327097   -2.416976    0.880456
     20          1           0       -4.206690   -2.322053    0.000006
     21          1           0       -5.939479   -0.563085   -0.000004
     22          1           0       -5.314920    1.808762   -0.000024
     23          1           0       -2.938112    2.482302   -0.000024
 ---------------------------------------------------------------------
 Rotational constants (GHZ):           2.1637311           0.2158401           0.1965007
 Standard basis: MIDIx (5D, 7F)
 There are   164 symmetry adapted cartesian basis functions of A   symmetry.
 There are   162 symmetry adapted basis functions of A   symmetry.
   162 basis functions,   285 primitive gaussians,   164 cartesian basis functions
    61 alpha electrons       60 beta electrons
       nuclear repulsion energy      1043.7032336402 Hartrees.
 NAtoms=   23 NActive=   23 NUniq=   23 SFac= 1.00D+00 NAtFMM=   60 NAOKFM=F Big=F
 Integral buffers will be    131072 words long.
 Raffenetti 2 integral format.
 Two-electron integral symmetry is turned on.
 Nuclear repulsion after empirical dispersion term =     1043.6885133696 Hartrees.
 One-electron integrals computed using PRISM.
 NBasis=   162 RedAO= T EigKep=  9.85D-04  NBF=   162
 NBsUse=   162 1.00D-06 EigRej= -1.00D+00 NBFU=   162
 ExpMin= 1.47D-01 ExpMax= 6.10D+03 ExpMxC= 6.10D+03 IAcc=3 IRadAn=         5 AccDes= 0.00D+00
 Harris functional with IExCor= 4639 and IRadAn=       5 diagonalized for initial guess.
 HarFok:  IExCor= 4639 AccDes= 0.00D+00 IRadAn=         5 IDoV= 1 UseB2=F ITyADJ=14
 ICtDFT=  3500011 ScaDFX=  1.000000  1.000000  1.000000  1.000000
 FoFCou: FMM=F IPFlag=           0 FMFlag=      100000 FMFlg1=           0
         NFxFlg=           0 DoJE=T BraDBF=F KetDBF=T FulRan=T
         wScrn=  0.000000 ICntrl=       500 IOpCl=  0 I1Cent=   200000004 NGrid=           0
         NMat0=    1 NMatS0=      1 NMatT0=    0 NMatD0=    1 NMtDS0=    0 NMtDT0=    0
 Petite list used in FoFCou.
 Initial guess <Sx>= 0.0000 <Sy>= 0.0000 <Sz>= 0.5000 <S**2>= 0.7500 S= 0.5000
 Requested convergence on RMS density matrix=1.00D-08 within 128 cycles.
 Requested convergence on MAX density matrix=1.00D-06.
 Requested convergence on             energy=1.00D-06.
 No special actions if energy rises.
 Integral accuracy reduced to 1.0D-05 until final iterations.
 Initial convergence to 1.0D-05 achieved.  Increase integral accuracy.
 SCF Done:  E(UwB97XD) =  -3059.47376845     A.U. after   24 cycles
            NFock= 24  Conv=0.88D-08     -V/T= 2.0024
 <Sx>= 0.0000 <Sy>= 0.0000 <Sz>= 0.5000 <S**2>= 0.7752 S= 0.5125
 <L.S>= 0.000000000000E+00
 Annihilation of the first spin contaminant:
 S**2 before annihilation     0.7752,   after     0.7504

 **********************************************************************

            Population analysis using the SCF Density.

 **********************************************************************

 Orbital symmetries:
 Alpha Orbitals:
       Occupied  (A) (A) (A) (A) (A) (A) (A) (A) (A) (A) (A) (A)
                 (A) (A) (A) (A) (A) (A) (A) (A) (A) (A) (A) (A)
                 (A) (A) (A) (A) (A) (A) (A) (A) (A) (A) (A) (A)
                 (A) (A) (A) (A) (A) (A) (A) (A) (A) (A) (A) (A)
                 (A) (A) (A) (A) (A) (A) (A) (A) (A) (A) (A) (A)
                 (A)
       Virtual   (A) (A) (A) (A) (A) (A) (A) (A) (A) (A) (A) (A)
                 (A) (A) (A) (A) (A) (A) (A) (A) (A) (A) (A) (A)
                 (A) (A) (A) (A) (A) (A) (A) (A) (A) (A) (A) (A)
                 (A) (A) (A) (A) (A) (A) (A) (A) (A) (A) (A) (A)
                 (A) (A) (A) (A) (A) (A) (A) (A) (A) (A) (A) (A)
                 (A) (A) (A) (A) (A) (A) (A) (A) (A) (A) (A) (A)
                 (A) (A) (A) (A) (A) (A) (A) (A) (A) (A) (A) (A)
                 (A) (A) (A) (A) (A) (A) (A) (A) (A) (A) (A) (A)
                 (A) (A) (A) (A) (A)
 Beta  Orbitals:
       Occupied  (A) (A) (A) (A) (A) (A) (A) (A) (A) (A) (A) (A)
                 (A) (A) (A) (A) (A) (A) (A) (A) (A) (A) (A) (A)
                 (A) (A) (A) (A) (A) (A) (A) (A) (A) (A) (A) (A)
                 (A) (A) (A) (A) (A) (A) (A) (A) (A) (A) (A) (A)
                 (A) (A) (A) (A) (A) (A) (A) (A) (A) (A) (A) (A)
       Virtual   (A) (A) (A) (A) (A) (A) (A) (A) (A) (A) (A) (A)
                 (A) (A) (A) (A) (A) (A) (A) (A) (A) (A) (A) (A)
                 (A) (A) (A) (A) (A) (A) (A) (A) (A) (A) (A) (A)
                 (A) (A) (A) (A) (A) (A) (A) (A) (A) (A) (A) (A)
                 (A) (A) (A) (A) (A) (A) (A) (A) (A) (A) (A) (A)
                 (A) (A) (A) (A) (A) (A) (A) (A) (A) (A) (A) (A)
                 (A) (A) (A) (A) (A) (A) (A) (A) (A) (A) (A) (A)
                 (A) (A) (A) (A) (A) (A) (A) (A) (A) (A) (A) (A)
                 (A) (A) (A) (A) (A) (A)
 The electronic state is 2-A.
 Alpha  occ. eigenvalues -- -480.30586 -62.73916 -56.32820 -56.32441 -56.32353
 Alpha  occ. eigenvalues --  -10.47919 -10.44363 -10.43481 -10.43176 -10.42470
 Alpha  occ. eigenvalues --  -10.42280 -10.41709 -10.41573 -10.41219 -10.41014
 Alpha  occ. eigenvalues --  -10.40406 -10.39721 -10.39648  -9.04750  -6.83223
 Alpha  occ. eigenvalues --   -6.81956  -6.81644  -2.93539  -2.93127  -2.92925
 Alpha  occ. eigenvalues --   -2.91834  -2.91829  -1.19738  -1.15373  -1.10468
 Alpha  occ. eigenvalues --   -1.06825  -1.03844  -1.02967  -0.98652  -0.96838
 Alpha  occ. eigenvalues --   -0.91161  -0.86372  -0.85511  -0.84659  -0.78488
 Alpha  occ. eigenvalues --   -0.75718  -0.74475  -0.71473  -0.71068  -0.70334
 Alpha  occ. eigenvalues --   -0.69500  -0.67861  -0.67026  -0.65652  -0.64716
 Alpha  occ. eigenvalues --   -0.62802  -0.60988  -0.60483  -0.59130  -0.58273
 Alpha  occ. eigenvalues --   -0.57337  -0.51436  -0.51192  -0.50837  -0.48871
 Alpha  occ. eigenvalues --   -0.46523
 Alpha virt. eigenvalues --   -0.14630  -0.10915  -0.08774  -0.06930  -0.06111
 Alpha virt. eigenvalues --    0.04184   0.04338   0.05327   0.06826   0.09029
 Alpha virt. eigenvalues --    0.09954   0.11032   0.11040   0.12548   0.14310
 Alpha virt. eigenvalues --    0.14896   0.16268   0.19003   0.19429   0.20522
 Alpha virt. eigenvalues --    0.21371   0.23975   0.24929   0.29593   0.30672
 Alpha virt. eigenvalues --    0.31875   0.33152   0.36960   0.38190   0.40659
 Alpha virt. eigenvalues --    0.42800   0.43900   0.44656   0.45513   0.47994
 Alpha virt. eigenvalues --    0.48881   0.49186   0.49541   0.49800   0.51310
 Alpha virt. eigenvalues --    0.53530   0.53932   0.55882   0.56999   0.58375
 Alpha virt. eigenvalues --    0.59865   0.62314   0.62430   0.63175   0.65142
 Alpha virt. eigenvalues --    0.68370   0.68905   0.70571   0.74979   0.75571
 Alpha virt. eigenvalues --    0.77259   0.77837   0.79167   0.79368   0.80039
 Alpha virt. eigenvalues --    0.80495   0.81546   0.81901   0.82792   0.84995
 Alpha virt. eigenvalues --    0.85132   0.85383   0.86299   0.87202   0.88084
 Alpha virt. eigenvalues --    0.88289   0.88882   0.89122   0.90536   0.91175
 Alpha virt. eigenvalues --    0.93817   0.93838   0.96559   0.97072   0.98189
 Alpha virt. eigenvalues --    1.00297   1.02036   1.04589   1.07021   1.08084
 Alpha virt. eigenvalues --    1.11816   1.12559   1.20412   1.25889   1.28372
 Alpha virt. eigenvalues --    1.38875   1.41662   1.43536   1.46047   1.51173
 Alpha virt. eigenvalues --    1.52466   1.63569   1.67827   1.68711   1.82568
 Alpha virt. eigenvalues --    1.87313
  Beta  occ. eigenvalues -- -480.30553 -62.73894 -56.32810 -56.32356 -56.32337
  Beta  occ. eigenvalues --  -10.47603 -10.44183 -10.43333 -10.43067 -10.42286
  Beta  occ. eigenvalues --  -10.42192 -10.41721 -10.41649 -10.40943 -10.40896
  Beta  occ. eigenvalues --  -10.40426 -10.39821 -10.39699  -9.04706  -6.83213
  Beta  occ. eigenvalues --   -6.81828  -6.81625  -2.93516  -2.93072  -2.92920
  Beta  occ. eigenvalues --   -2.91778  -2.91776  -1.19166  -1.14834  -1.09926
  Beta  occ. eigenvalues --   -1.06436  -1.03336  -1.02788  -0.97769  -0.96767
  Beta  occ. eigenvalues --   -0.90746  -0.85988  -0.85159  -0.84345  -0.78398
  Beta  occ. eigenvalues --   -0.75512  -0.74192  -0.70869  -0.70659  -0.70118
  Beta  occ. eigenvalues --   -0.69341  -0.67648  -0.66916  -0.65479  -0.63394
  Beta  occ. eigenvalues --   -0.61518  -0.60833  -0.60256  -0.58962  -0.58104
  Beta  occ. eigenvalues --   -0.54659  -0.51003  -0.50532  -0.48699  -0.47873
  Beta virt. eigenvalues --   -0.29035  -0.12405  -0.10051  -0.07559  -0.06417
  Beta virt. eigenvalues --   -0.04317   0.04280   0.05121   0.05426   0.06864
  Beta virt. eigenvalues --    0.09129   0.09957   0.11109   0.12236   0.12708
  Beta virt. eigenvalues --    0.14526   0.15059   0.16441   0.19217   0.19869
  Beta virt. eigenvalues --    0.20770   0.21607   0.24342   0.25057   0.30024
  Beta virt. eigenvalues --    0.30871   0.32128   0.33366   0.37102   0.38349
  Beta virt. eigenvalues --    0.40816   0.42999   0.44059   0.44838   0.45719
  Beta virt. eigenvalues --    0.48137   0.49733   0.49795   0.49800   0.50021
  Beta virt. eigenvalues --    0.51663   0.53659   0.54067   0.55992   0.57496
  Beta virt. eigenvalues --    0.58463   0.59996   0.62449   0.62551   0.63771
  Beta virt. eigenvalues --    0.65289   0.68792   0.69377   0.70899   0.75458
  Beta virt. eigenvalues --    0.75715   0.77278   0.78010   0.79368   0.79454
  Beta virt. eigenvalues --    0.80589   0.80647   0.82040   0.82054   0.82924
  Beta virt. eigenvalues --    0.85239   0.85405   0.85476   0.86397   0.87251
  Beta virt. eigenvalues --    0.88413   0.88554   0.88996   0.89788   0.90653
  Beta virt. eigenvalues --    0.91254   0.93967   0.94105   0.96666   0.97756
  Beta virt. eigenvalues --    0.98336   1.00369   1.02325   1.04695   1.07131
  Beta virt. eigenvalues --    1.08195   1.11916   1.12693   1.20566   1.26038
  Beta virt. eigenvalues --    1.28550   1.39074   1.41856   1.43686   1.46370
  Beta virt. eigenvalues --    1.51339   1.52636   1.63970   1.68025   1.68905
  Beta virt. eigenvalues --    1.82761   1.87417
          Condensed to atoms (all electrons):
               1          2          3          4          5          6
     1  Br  34.708560   0.243608  -0.037363   0.001641   0.000297   0.002152
     2  C    0.243608   5.081774   0.418409  -0.032249  -0.044457  -0.017709
     3  C   -0.037363   0.418409   4.968227   0.526061  -0.032707  -0.036370
     4  C    0.001641  -0.032249   0.526061   4.845935   0.404145  -0.021081
     5  C    0.000297  -0.044457  -0.032707   0.404145   5.043166   0.404658
     6  C    0.002152  -0.017709  -0.036370  -0.021081   0.404658   5.125831
     7  C   -0.039215   0.443163  -0.043581  -0.019011  -0.024604   0.476025
     8  C   -0.000015   0.000229   0.000682  -0.000174  -0.045215   0.298146
     9  C    0.000001  -0.000158  -0.000110   0.001084  -0.043135  -0.075983
    10  C   -0.000000  -0.000001   0.000001   0.000031   0.000705   0.001760
    11  C    0.000000   0.000000   0.000000   0.000000   0.000882  -0.000129
    12  C   -0.000000   0.000000  -0.000001   0.000095   0.000232  -0.000124
    13  C   -0.000000   0.000001   0.000097  -0.000402   0.009890   0.001041
    14  C    0.000002   0.000872   0.000208   0.009570   0.380923  -0.043341
    15  H    0.000893  -0.017583   0.385639  -0.011933   0.002438   0.000042
    16  H   -0.000040   0.002401  -0.014323   0.389956  -0.017057   0.002143
    17  H    0.000834  -0.013900   0.001873   0.000007   0.002048  -0.009260
    18  H   -0.000000   0.000046  -0.000002  -0.000003   0.000743  -0.022908
    19  H   -0.000000   0.000046  -0.000002  -0.000003   0.000743  -0.022908
    20  H   -0.000000  -0.000000  -0.000000  -0.000000  -0.000098   0.000114
    21  H   -0.000000   0.000000  -0.000000  -0.000000   0.000003   0.000001
    22  H   -0.000000  -0.000000   0.000000  -0.000000  -0.000021   0.000000
    23  H   -0.000000   0.000000  -0.000004   0.001537  -0.006352   0.000098
               7          8          9         10         11         12
     1  Br  -0.039215  -0.000015   0.000001  -0.000000   0.000000  -0.000000
     2  C    0.443163   0.000229  -0.000158  -0.000001   0.000000   0.000000
     3  C   -0.043581   0.000682  -0.000110   0.000001   0.000000  -0.000001
     4  C   -0.019011  -0.000174   0.001084   0.000031   0.000000   0.000095
     5  C   -0.024604  -0.045215  -0.043135   0.000705   0.000882   0.000232
     6  C    0.476025   0.298146  -0.075983   0.001760  -0.000129  -0.000124
     7  C    4.902991   0.003943   0.001971   0.000054  -0.000001   0.000001
     8  C    0.003943   5.054304   0.308960   0.005881  -0.000072   0.000795
     9  C    0.001971   0.308960   5.119810   0.473346  -0.031573  -0.040916
    10  C    0.000054   0.005881   0.473346   4.886554   0.491058  -0.045023
    11  C   -0.000001  -0.000072  -0.031573   0.491058   4.938093   0.469710
    12  C    0.000001   0.000795  -0.040916  -0.045023   0.469710   4.940438
    13  C    0.000024  -0.000480  -0.018788  -0.024811  -0.047592   0.534300
    14  C    0.000861  -0.047583   0.416684  -0.028107  -0.032336  -0.039291
    15  H    0.002072   0.000003   0.000000  -0.000000  -0.000000   0.000000
    16  H   -0.000138  -0.000049   0.000107   0.000001   0.000000  -0.000005
    17  H    0.381327  -0.003857   0.000103   0.000000  -0.000000  -0.000000
    18  H   -0.003890   0.384091  -0.023502  -0.003702   0.000048  -0.000001
    19  H   -0.003890   0.384091  -0.023501  -0.003702   0.000048  -0.000001
    20  H    0.000000  -0.004258  -0.017170   0.392038  -0.015719   0.002116
    21  H   -0.000000  -0.000013   0.002974  -0.020026   0.393318  -0.019521
    22  H   -0.000000   0.000004   0.000110   0.002332  -0.019892   0.395484
    23  H    0.000000  -0.000054   0.002121  -0.000063   0.002265  -0.013776
              13         14         15         16         17         18
     1  Br  -0.000000   0.000002   0.000893  -0.000040   0.000834  -0.000000
     2  C    0.000001   0.000872  -0.017583   0.002401  -0.013900   0.000046
     3  C    0.000097   0.000208   0.385639  -0.014323   0.001873  -0.000002
     4  C   -0.000402   0.009570  -0.011933   0.389956   0.000007  -0.000003
     5  C    0.009890   0.380923   0.002438  -0.017057   0.002048   0.000743
     6  C    0.001041  -0.043341   0.000042   0.002143  -0.009260  -0.022908
     7  C    0.000024   0.000861   0.002072  -0.000138   0.381327  -0.003890
     8  C   -0.000480  -0.047583   0.000003  -0.000049  -0.003857   0.384091
     9  C   -0.018788   0.416684   0.000000   0.000107   0.000103  -0.023502
    10  C   -0.024811  -0.028107  -0.000000   0.000001   0.000000  -0.003702
    11  C   -0.047592  -0.032336  -0.000000   0.000000  -0.000000   0.000048
    12  C    0.534300  -0.039291   0.000000  -0.000005  -0.000000  -0.000001
    13  C    4.849805   0.412038  -0.000000   0.001609  -0.000000   0.000001
    14  C    0.412038   5.033323  -0.000015  -0.005890  -0.000087   0.000874
    15  H   -0.000000  -0.000015   0.373682  -0.003237  -0.000037  -0.000000
    16  H    0.001609  -0.005890  -0.003237   0.388778   0.000004   0.000001
    17  H   -0.000000  -0.000087  -0.000037   0.000004   0.379907   0.000568
    18  H    0.000001   0.000874  -0.000000   0.000001   0.000568   0.405922
    19  H    0.000001   0.000874  -0.000000   0.000001   0.000568  -0.018386
    20  H    0.000062   0.002358   0.000000   0.000000   0.000000   0.000630
    21  H    0.002458   0.000015  -0.000000  -0.000000  -0.000000  -0.000000
    22  H   -0.019001   0.002940   0.000000   0.000000   0.000000  -0.000000
    23  H    0.391577  -0.018408   0.000000   0.002005   0.000000   0.000002
              19         20         21         22         23
     1  Br  -0.000000  -0.000000  -0.000000  -0.000000  -0.000000
     2  C    0.000046  -0.000000   0.000000  -0.000000   0.000000
     3  C   -0.000002  -0.000000  -0.000000   0.000000  -0.000004
     4  C   -0.000003  -0.000000  -0.000000  -0.000000   0.001537
     5  C    0.000743  -0.000098   0.000003  -0.000021  -0.006352
     6  C   -0.022908   0.000114   0.000001   0.000000   0.000098
     7  C   -0.003890   0.000000  -0.000000  -0.000000   0.000000
     8  C    0.384091  -0.004258  -0.000013   0.000004  -0.000054
     9  C   -0.023501  -0.017170   0.002974   0.000110   0.002121
    10  C   -0.003702   0.392038  -0.020026   0.002332  -0.000063
    11  C    0.000048  -0.015719   0.393318  -0.019892   0.002265
    12  C   -0.000001   0.002116  -0.019521   0.395484  -0.013776
    13  C    0.000001   0.000062   0.002458  -0.019001   0.391577
    14  C    0.000874   0.002358   0.000015   0.002940  -0.018408
    15  H   -0.000000   0.000000  -0.000000   0.000000   0.000000
    16  H    0.000001   0.000000  -0.000000   0.000000   0.002005
    17  H    0.000568   0.000000  -0.000000   0.000000   0.000000
    18  H   -0.018386   0.000630  -0.000000  -0.000000   0.000002
    19  H    0.405920   0.000630  -0.000000  -0.000000   0.000002
    20  H    0.000630   0.396086  -0.003141  -0.000042   0.000004
    21  H   -0.000000  -0.003141   0.385044  -0.003098  -0.000039
    22  H   -0.000000  -0.000042  -0.003098   0.390064  -0.003286
    23  H    0.000002   0.000004  -0.000039  -0.003286   0.399424
          Atomic-Atomic Spin Densities.
               1          2          3          4          5          6
     1  Br   0.142137  -0.037053  -0.002124   0.000198   0.000025   0.000225
     2  C   -0.037053   0.269701   0.025460  -0.007137  -0.004233  -0.007908
     3  C   -0.002124   0.025460  -0.021523  -0.020430  -0.005342  -0.001271
     4  C    0.000198  -0.007137  -0.020430   0.071248   0.035671  -0.000847
     5  C    0.000025  -0.004233  -0.005342   0.035671   0.156036   0.039005
     6  C    0.000225  -0.007908  -0.001271  -0.000847   0.039005   0.131468
     7  C   -0.000809   0.017971  -0.001453  -0.000125  -0.003919  -0.015908
     8  C   -0.000000   0.000086  -0.000024   0.000023  -0.002205  -0.000630
     9  C   -0.000000   0.000009   0.000009  -0.000110  -0.010386  -0.005759
    10  C    0.000000  -0.000000  -0.000000   0.000001   0.000215   0.000141
    11  C    0.000000  -0.000000  -0.000000   0.000001   0.000114   0.000006
    12  C    0.000000  -0.000000  -0.000000   0.000006   0.000184   0.000009
    13  C   -0.000000   0.000001   0.000009  -0.000336  -0.004496  -0.000143
    14  C   -0.000000   0.000097   0.000239  -0.004383  -0.054792  -0.009017
    15  H   -0.000003  -0.000376   0.000563  -0.000043   0.000030  -0.000010
    16  H    0.000000   0.000031  -0.000145  -0.000159  -0.000487   0.000019
    17  H   -0.000044  -0.000176   0.000006  -0.000005   0.000035   0.000053
    18  H    0.000000  -0.000003   0.000000   0.000001   0.000086  -0.000510
    19  H    0.000000  -0.000003   0.000000   0.000001   0.000086  -0.000510
    20  H   -0.000000   0.000000  -0.000000  -0.000000  -0.000002   0.000001
    21  H   -0.000000   0.000000   0.000000  -0.000000   0.000000   0.000000
    22  H   -0.000000   0.000000   0.000000   0.000000  -0.000001   0.000000
    23  H   -0.000000   0.000000   0.000000  -0.000015  -0.000015   0.000001
               7          8          9         10         11         12
     1  Br  -0.000809  -0.000000  -0.000000   0.000000   0.000000   0.000000
     2  C    0.017971   0.000086   0.000009  -0.000000  -0.000000  -0.000000
     3  C   -0.001453  -0.000024   0.000009  -0.000000  -0.000000  -0.000000
     4  C   -0.000125   0.000023  -0.000110   0.000001   0.000001   0.000006
     5  C   -0.003919  -0.002205  -0.010386   0.000215   0.000114   0.000184
     6  C   -0.015908  -0.000630  -0.005759   0.000141   0.000006   0.000009
     7  C   -0.080872  -0.000542   0.000185  -0.000002  -0.000000  -0.000000
     8  C   -0.000542  -0.019901  -0.003038  -0.000910   0.000123  -0.000030
     9  C    0.000185  -0.003038   0.170744  -0.010319  -0.007718  -0.000888
    10  C   -0.000002  -0.000910  -0.010319  -0.101114   0.008259  -0.001626
    11  C   -0.000000   0.000123  -0.007718   0.008259   0.255488   0.017406
    12  C   -0.000000  -0.000030  -0.000888  -0.001626   0.017406  -0.056377
    13  C    0.000002   0.000044  -0.000139   0.000290  -0.006573  -0.016367
    14  C    0.000316  -0.002244   0.035736  -0.002832  -0.003320  -0.003773
    15  H    0.000005  -0.000000   0.000000   0.000000   0.000000  -0.000000
    16  H   -0.000015   0.000000   0.000001  -0.000000   0.000000   0.000000
    17  H    0.000925   0.000055   0.000001   0.000000   0.000000   0.000000
    18  H   -0.000001   0.001516  -0.000763   0.000025  -0.000003   0.000000
    19  H   -0.000001   0.001516  -0.000763   0.000025  -0.000003   0.000000
    20  H    0.000000   0.000059   0.000075   0.000987  -0.000184   0.000009
    21  H   -0.000000   0.000000   0.000003  -0.000482  -0.001884  -0.000604
    22  H    0.000000  -0.000000  -0.000007   0.000011  -0.000382   0.000745
    23  H   -0.000000   0.000001   0.000019  -0.000015   0.000027  -0.000191
              13         14         15         16         17         18
     1  Br  -0.000000  -0.000000  -0.000003   0.000000  -0.000044   0.000000
     2  C    0.000001   0.000097  -0.000376   0.000031  -0.000176  -0.000003
     3  C    0.000009   0.000239   0.000563  -0.000145   0.000006   0.000000
     4  C   -0.000336  -0.004383  -0.000043  -0.000159  -0.000005   0.000001
     5  C   -0.004496  -0.054792   0.000030  -0.000487   0.000035   0.000086
     6  C   -0.000143  -0.009017  -0.000010   0.000019   0.000053  -0.000510
     7  C    0.000002   0.000316   0.000005  -0.000015   0.000925  -0.000001
     8  C    0.000044  -0.002244  -0.000000   0.000000   0.000055   0.001516
     9  C   -0.000139   0.035736   0.000000   0.000001   0.000001  -0.000763
    10  C    0.000290  -0.002832   0.000000  -0.000000   0.000000   0.000025
    11  C   -0.006573  -0.003320   0.000000   0.000000   0.000000  -0.000003
    12  C   -0.016367  -0.003773  -0.000000   0.000000   0.000000   0.000000
    13  C    0.101496   0.032426   0.000000  -0.000014  -0.000000   0.000001
    14  C    0.032426   0.087864  -0.000000   0.000026  -0.000001   0.000094
    15  H    0.000000  -0.000000  -0.000233   0.000049   0.000000   0.000000
    16  H   -0.000014   0.000026   0.000049  -0.003613  -0.000000  -0.000000
    17  H   -0.000000  -0.000001   0.000000  -0.000000   0.001735  -0.000006
    18  H    0.000001   0.000094   0.000000  -0.000000  -0.000006   0.001443
    19  H    0.000001   0.000094   0.000000  -0.000000  -0.000006  -0.000359
    20  H   -0.000005   0.000037  -0.000000  -0.000000  -0.000000  -0.000006
    21  H    0.000006  -0.000014   0.000000   0.000000   0.000000   0.000000
    22  H    0.000018   0.000030  -0.000000  -0.000000  -0.000000   0.000000
    23  H   -0.000378  -0.000449  -0.000000  -0.000015  -0.000000  -0.000000
              19         20         21         22         23
     1  Br   0.000000  -0.000000  -0.000000  -0.000000  -0.000000
     2  C   -0.000003   0.000000   0.000000   0.000000   0.000000
     3  C    0.000000  -0.000000   0.000000   0.000000   0.000000
     4  C    0.000001  -0.000000  -0.000000   0.000000  -0.000015
     5  C    0.000086  -0.000002   0.000000  -0.000001  -0.000015
     6  C   -0.000510   0.000001   0.000000   0.000000   0.000001
     7  C   -0.000001   0.000000  -0.000000   0.000000  -0.000000
     8  C    0.001516   0.000059   0.000000  -0.000000   0.000001
     9  C   -0.000763   0.000075   0.000003  -0.000007   0.000019
    10  C    0.000025   0.000987  -0.000482   0.000011  -0.000015
    11  C   -0.000003  -0.000184  -0.001884  -0.000382   0.000027
    12  C    0.000000   0.000009  -0.000604   0.000745  -0.000191
    13  C    0.000001  -0.000005   0.000006   0.000018  -0.000378
    14  C    0.000094   0.000037  -0.000014   0.000030  -0.000449
    15  H    0.000000  -0.000000   0.000000  -0.000000  -0.000000
    16  H   -0.000000  -0.000000   0.000000  -0.000000  -0.000015
    17  H   -0.000006  -0.000000   0.000000  -0.000000  -0.000000
    18  H   -0.000359  -0.000006   0.000000   0.000000  -0.000000
    19  H    0.001443  -0.000006   0.000000   0.000000  -0.000000
    20  H   -0.000006   0.002644   0.000047  -0.000000  -0.000000
    21  H    0.000000   0.000047  -0.009745   0.000055   0.000001
    22  H    0.000000  -0.000000   0.000055   0.001136   0.000042
    23  H   -0.000000  -0.000000   0.000001   0.000042  -0.004594
 Mulliken charges and spin densities:
               1          2
     1  Br   0.118646   0.102551
     2  C   -0.064492   0.256468
     3  C   -0.136735  -0.026023
     4  C   -0.095208   0.073561
     5  C   -0.037228   0.145610
     6  C   -0.062197   0.128417
     7  C   -0.078102  -0.084241
     8  C   -0.339357  -0.026100
     9  C   -0.052436   0.166894
    10  C   -0.128324  -0.107347
    11  C   -0.148110   0.261358
    12  C   -0.184513  -0.061496
    13  C   -0.091830   0.105844
    14  C   -0.046484   0.076133
    15  H    0.268035  -0.000018
    16  H    0.253732  -0.004323
    17  H    0.259901   0.002572
    18  H    0.279468   0.001518
    19  H    0.279468   0.001518
    20  H    0.246388   0.003657
    21  H    0.262026  -0.012617
    22  H    0.254406   0.001646
    23  H    0.242948  -0.005582
 Sum of Mulliken charges =   1.00000   1.00000
 Mulliken charges and spin densities with hydrogens summed into heavy atoms:
               1          2
     1  Br   0.118646   0.102551
     2  C   -0.064492   0.256468
     3  C    0.131300  -0.026041
     4  C    0.158524   0.069239
     5  C   -0.037228   0.145610
     6  C   -0.062197   0.128417
     7  C    0.181799  -0.081669
     8  C    0.219579  -0.023064
     9  C   -0.052436   0.166894
    10  C    0.118064  -0.103691
    11  C    0.113915   0.248741
    12  C    0.069893  -0.059850
    13  C    0.151118   0.100262
    14  C   -0.046484   0.076133
 Electronic spatial extent (au):  <R**2>=           4785.0588
 Charge=              1.0000 electrons
 Dipole moment (field-independent basis, Debye):
    X=             -5.5859    Y=              0.1005    Z=             -0.0000  Tot=              5.5868
 Quadrupole moment (field-independent basis, Debye-Ang):
   XX=            -33.2639   YY=            -70.0150   ZZ=            -94.0195
   XY=              1.1197   XZ=              0.0001   YZ=             -0.0002
 Traceless Quadrupole moment (field-independent basis, Debye-Ang):
   XX=             32.5023   YY=             -4.2489   ZZ=            -28.2534
   XY=              1.1197   XZ=              0.0001   YZ=             -0.0002
 Octapole moment (field-independent basis, Debye-Ang**2):
  XXX=            -29.4349  YYY=              1.7691  ZZZ=              0.0003  XYY=             15.8498
  XXY=             -1.6559  XXZ=             -0.0004  XZZ=             49.9250  YZZ=             -5.4073
  YYZ=             -0.0002  XYZ=              0.0002
 Hexadecapole moment (field-independent basis, Debye-Ang**3):
 XXXX=          -3256.6985 YYYY=           -597.7802 ZZZZ=           -101.5099 XXXY=            -30.0935
 XXXZ=             -0.0014 YYYX=             -6.7163 YYYZ=              0.0012 ZZZX=             -0.0040
 ZZZY=              0.0024 XXYY=           -775.6425 XXZZ=           -861.2072 YYZZ=           -140.6039
 XXYZ=             -0.0008 YYXZ=             -0.0007 ZZXY=             -0.4846
 N-N= 1.043688513370D+03 E-N=-9.343173745176D+03  KE= 3.052285736974D+03
 There are a total of      525418 grid points.
 ElSum from          density=      121.0000204273
 ElSum from atomic densities=      122.0001654747
 Hirshfeld populations at iteration   1 (CA, CB, DipXYZ):
               1          2          3          4          5
     1  Br  17.502888  17.383884   0.163732  -0.020174  -0.000000
     2  C    3.046086   2.879809   0.031607   0.001230   0.000001
     3  C    3.011063   2.991123   0.022036   0.032114   0.000000
     4  C    3.026775   2.960396  -0.032770   0.044085  -0.000001
     5  C    3.038943   2.916832  -0.006427   0.023667  -0.000000
     6  C    3.023010   2.932915  -0.032799  -0.037308   0.000001
     7  C    3.001485   3.014356   0.015371  -0.042245  -0.000000
     8  C    3.014776   3.007012   0.000941  -0.019272   0.000001
     9  C    3.032227   2.926832   0.034519  -0.038102   0.000001
    10  C    2.993784   3.017338  -0.033799  -0.047388   0.000001
    11  C    3.057661   2.899281  -0.060720  -0.010234  -0.000002
    12  C    2.999641   2.999362  -0.049941   0.019406   0.000000
    13  C    3.034841   2.958033   0.020757   0.047746  -0.000000
    14  C    3.030875   2.940155   0.007927   0.023100  -0.000000
    15  H    0.463308   0.463274   0.095940   0.150922  -0.000002
    16  H    0.464519   0.462075  -0.054496   0.165623  -0.000002
    17  H    0.463348   0.465065   0.053548  -0.168641   0.000004
    18  H    0.466337   0.464578   0.006482  -0.110249  -0.128924
    19  H    0.466337   0.464579   0.006482  -0.110247   0.128926
    20  H    0.464675   0.466638  -0.050861  -0.167438  -0.000000
    21  H    0.465524   0.457171  -0.170025  -0.044532   0.000002
    22  H    0.464442   0.465001  -0.127738   0.122353  -0.000002
    23  H    0.467464   0.464300   0.032730   0.168475  -0.000002
       Tot  61.000010  60.000011  -0.127502  -0.017110   0.000002

 Dip from Atomic Chgs             -2.070043   0.056654  -0.000007
         Total Dipole             -2.197545   0.039544  -0.000004

 Hirshfeld charges, spin densities, dipoles, and CM5 charges using IRadAn=      5:
              Q-H        S-H        Dx         Dy         Dz        Q-CM5   
     1  Br   0.113228   0.119004   0.163732  -0.020174  -0.000000   0.127657
     2  C    0.074105   0.166278   0.031607   0.001230   0.000001   0.053188
     3  C   -0.002186   0.019940   0.022036   0.032114   0.000000  -0.056308
     4  C    0.012829   0.066379  -0.032770   0.044085  -0.000001  -0.040207
     5  C    0.044225   0.122111  -0.006427   0.023667  -0.000000   0.039249
     6  C    0.044075   0.090094  -0.032799  -0.037308   0.000001   0.033500
     7  C   -0.015841  -0.012871   0.015371  -0.042245  -0.000000  -0.067337
     8  C   -0.021788   0.007765   0.000941  -0.019272   0.000001  -0.117775
     9  C    0.040941   0.105395   0.034519  -0.038102   0.000001   0.030234
    10  C   -0.011122  -0.023554  -0.033799  -0.047388   0.000001  -0.064733
    11  C    0.043057   0.158380  -0.060720  -0.010234  -0.000002  -0.013175
    12  C    0.000996   0.000279  -0.049941   0.019406   0.000000  -0.055204
    13  C    0.007126   0.076808   0.020757   0.047746  -0.000000  -0.046022
    14  C    0.028970   0.090721   0.007927   0.023100  -0.000000   0.023945
    15  H    0.073418   0.000034   0.095940   0.150922  -0.000002   0.130978
    16  H    0.073406   0.002444  -0.054496   0.165623  -0.000002   0.130768
    17  H    0.071586  -0.001717   0.053548  -0.168641   0.000004   0.129474
    18  H    0.069085   0.001759   0.006482  -0.110249  -0.128924   0.124905
    19  H    0.069084   0.001759   0.006482  -0.110247   0.128926   0.124905
    20  H    0.068687  -0.001964  -0.050861  -0.167438  -0.000000   0.125561
    21  H    0.077305   0.008353  -0.170025  -0.044532   0.000002   0.133817
    22  H    0.070558  -0.000559  -0.127738   0.122353  -0.000002   0.127070
    23  H    0.068236   0.003163   0.032730   0.168475  -0.000002   0.125490
       Tot   0.999980   0.999999  -0.127502  -0.017110   0.000002   0.999980
 Hirshfeld charges and spin densities with hydrogens summed into heavy atoms:
              Q-H        S-H       Q-CM5   
     1  Br   0.113228   0.119004   0.127657
     2  C    0.074105   0.166278   0.053188
     3  C    0.071231   0.019974   0.074670
     4  C    0.086235   0.068822   0.090561
     5  C    0.044225   0.122111   0.039249
     6  C    0.044075   0.090094   0.033500
     7  C    0.055745  -0.014588   0.062137
     8  C    0.116381   0.011282   0.132035
     9  C    0.040941   0.105395   0.030234
    10  C    0.057565  -0.025517   0.060827
    11  C    0.120363   0.166733   0.120642
    12  C    0.071554  -0.000280   0.071867
    13  C    0.075362   0.079971   0.079468
    14  C    0.028970   0.090721   0.023945
 
 EQQ= 0.784059232361E-01 EQD=-0.537218938277E-01 EDD= 0.104759142059E-01
 EQQ+QD+DD= 0.351599436142E-01
 
                          Isotropic Fermi Contact Couplings
        Atom                 a.u.       MegaHertz       Gauss      10(-4) cm-1
     1  Br(79)             0.01329      14.93504       5.32919       4.98179
     2  C(13)              0.02628      29.54761      10.54332       9.85602
     3  C(13)             -0.00574      -6.44952      -2.30135      -2.15133
     4  C(13)              0.00431       4.84615       1.72923       1.61650
     5  C(13)              0.00924      10.38607       3.70601       3.46442
     6  C(13)              0.01022      11.48619       4.09856       3.83138
     7  C(13)             -0.01141     -12.82370      -4.57581      -4.27752
     8  C(13)             -0.00532      -5.98414      -2.13529      -1.99609
     9  C(13)              0.01413      15.88928       5.66969       5.30009
    10  C(13)             -0.01329     -14.94559      -5.33296      -4.98531
    11  C(13)              0.02317      26.04627       9.29396       8.68810
    12  C(13)             -0.00883      -9.92885      -3.54286      -3.31191
    13  C(13)              0.00790       8.88191       3.16929       2.96269
    14  C(13)              0.00219       2.45742       0.87687       0.81971
    15  H(1)              -0.00006      -0.25286      -0.09023      -0.08434
    16  H(1)              -0.00112      -5.00657      -1.78647      -1.67001
    17  H(1)               0.00057       2.52761       0.90191       0.84312
    18  H(1)               0.00064       2.84774       1.01614       0.94990
    19  H(1)               0.00064       2.84770       1.01613       0.94989
    20  H(1)               0.00082       3.67916       1.31282       1.22724
    21  H(1)              -0.00298     -13.33564      -4.75849      -4.44829
    22  H(1)               0.00037       1.65002       0.58877       0.55039
    23  H(1)              -0.00139      -6.22777      -2.22222      -2.07736
 --------------------------------------------------------
       Center         ----  Spin Dipole Couplings  ----
                      3XX-RR        3YY-RR        3ZZ-RR
 --------------------------------------------------------
     1   Atom       -0.783602     -0.620983      1.404585
     2   Atom       -0.122536     -0.133443      0.255979
     3   Atom       -0.001900      0.000827      0.001073
     4   Atom       -0.041193     -0.036356      0.077548
     5   Atom       -0.080099     -0.081116      0.161215
     6   Atom       -0.064428     -0.059714      0.124142
     7   Atom        0.026642      0.024082     -0.050724
     8   Atom       -0.001948      0.005066     -0.003118
     9   Atom       -0.078229     -0.073637      0.151867
    10   Atom        0.037673      0.031377     -0.069050
    11   Atom       -0.109735     -0.118315      0.228050
    12   Atom        0.014422      0.016033     -0.030455
    13   Atom       -0.051394     -0.047210      0.098605
    14   Atom       -0.052545     -0.054317      0.106861
    15   Atom       -0.001509      0.005396     -0.003888
    16   Atom       -0.005755      0.010077     -0.004322
    17   Atom        0.001567      0.002115     -0.003681
    18   Atom       -0.000775      0.004302     -0.003527
    19   Atom       -0.000775      0.004302     -0.003527
    20   Atom        0.003461     -0.000418     -0.003043
    21   Atom        0.017744     -0.014418     -0.003327
    22   Atom       -0.000544      0.003609     -0.003066
    23   Atom       -0.006910      0.010932     -0.004022
 --------------------------------------------------------
                        XY            XZ            YZ
 --------------------------------------------------------
     1   Atom        0.023324     -0.000003      0.000006
     2   Atom       -0.002281     -0.000001      0.000000
     3   Atom       -0.002383     -0.000000      0.000000
     4   Atom        0.002760     -0.000001      0.000001
     5   Atom        0.001516      0.000000      0.000002
     6   Atom       -0.000161      0.000000      0.000002
     7   Atom        0.002666      0.000000     -0.000001
     8   Atom       -0.000202      0.000000     -0.000000
     9   Atom       -0.000298     -0.000001      0.000002
    10   Atom       -0.001372      0.000001     -0.000001
    11   Atom        0.002734     -0.000001      0.000003
    12   Atom        0.002448      0.000000     -0.000000
    13   Atom       -0.003097     -0.000001      0.000001
    14   Atom       -0.002055      0.000000      0.000001
    15   Atom        0.001599     -0.000000     -0.000000
    16   Atom       -0.001909      0.000000     -0.000000
    17   Atom        0.002436     -0.000000     -0.000000
    18   Atom       -0.000335     -0.000171      0.002031
    19   Atom       -0.000335      0.000171     -0.002031
    20   Atom       -0.001921      0.000000     -0.000000
    21   Atom        0.009896     -0.000000      0.000000
    22   Atom       -0.000285      0.000000     -0.000000
    23   Atom        0.000437     -0.000000     -0.000000
 --------------------------------------------------------


 ---------------------------------------------------------------------------------
              Anisotropic Spin Dipole Couplings in Principal Axis System
 ---------------------------------------------------------------------------------

       Atom             a.u.   MegaHertz   Gauss  10(-4) cm-1        Axes

              Baa    -0.7869  -105.550   -37.663   -35.208  0.9903 -0.1392  0.0000
     1 Br(79) Bbb    -0.6177   -82.857   -29.565   -27.638  0.1392  0.9903 -0.0000
              Bcc     1.4046   188.407    67.228    62.846 -0.0000  0.0000  1.0000
 
              Baa    -0.1339   -17.968    -6.412    -5.994  0.1968  0.9805 -0.0000
     2 C(13)  Bbb    -0.1221   -16.382    -5.845    -5.464  0.9805 -0.1968  0.0000
              Bcc     0.2560    34.350    12.257    11.458 -0.0000  0.0000  1.0000
 
              Baa    -0.0033    -0.440    -0.157    -0.147  0.8650  0.5017  0.0000
     3 C(13)  Bbb     0.0011     0.144     0.051     0.048  0.0002 -0.0004  1.0000
              Bcc     0.0022     0.296     0.106     0.099 -0.5017  0.8650  0.0004
 
              Baa    -0.0424    -5.695    -2.032    -1.900  0.9108 -0.4129  0.0000
     4 C(13)  Bbb    -0.0351    -4.711    -1.681    -1.571  0.4129  0.9108 -0.0000
              Bcc     0.0775    10.406     3.713     3.471 -0.0000  0.0000  1.0000
 
              Baa    -0.0822   -11.031    -3.936    -3.680 -0.5840  0.8117 -0.0000
     5 C(13)  Bbb    -0.0790   -10.602    -3.783    -3.536  0.8117  0.5840 -0.0000
              Bcc     0.1612    21.634     7.719     7.216  0.0000  0.0000  1.0000
 
              Baa    -0.0644    -8.646    -3.085    -2.884  0.9994  0.0340 -0.0000
     6 C(13)  Bbb    -0.0597    -8.012    -2.859    -2.673 -0.0340  0.9994 -0.0000
              Bcc     0.1241    16.659     5.944     5.557  0.0000  0.0000  1.0000
 
              Baa    -0.0507    -6.807    -2.429    -2.270 -0.0000  0.0000  1.0000
     7 C(13)  Bbb     0.0224     3.006     1.073     1.003 -0.5325  0.8464 -0.0000
              Bcc     0.0283     3.800     1.356     1.268  0.8464  0.5325 -0.0000
 
              Baa    -0.0031    -0.418    -0.149    -0.140 -0.0000  0.0000  1.0000
     8 C(13)  Bbb    -0.0020    -0.262    -0.094    -0.087  0.9996  0.0288  0.0000
              Bcc     0.0051     0.681     0.243     0.227 -0.0288  0.9996 -0.0000
 
              Baa    -0.0782   -10.500    -3.747    -3.502  0.9979  0.0645  0.0000
     9 C(13)  Bbb    -0.0736    -9.879    -3.525    -3.295 -0.0645  0.9979 -0.0000
              Bcc     0.1519    20.379     7.272     6.798 -0.0000  0.0000  1.0000
 
              Baa    -0.0690    -9.266    -3.306    -3.091 -0.0000  0.0000  1.0000
    10 C(13)  Bbb     0.0311     4.172     1.489     1.392  0.2041  0.9790 -0.0000
              Bcc     0.0380     5.094     1.818     1.699  0.9790 -0.2041  0.0000
 
              Baa    -0.1191   -15.984    -5.703    -5.332 -0.2799  0.9600 -0.0000
    11 C(13)  Bbb    -0.1089   -14.618    -5.216    -4.876  0.9600  0.2799  0.0000
              Bcc     0.2280    30.602    10.920    10.208 -0.0000  0.0000  1.0000
 
              Baa    -0.0305    -4.087    -1.458    -1.363 -0.0000  0.0000  1.0000
    12 C(13)  Bbb     0.0127     1.698     0.606     0.566  0.8102 -0.5862  0.0000
              Bcc     0.0178     2.389     0.853     0.797  0.5862  0.8102 -0.0000
 
              Baa    -0.0530    -7.117    -2.540    -2.374  0.8831  0.4692 -0.0000
    13 C(13)  Bbb    -0.0456    -6.114    -2.182    -2.040 -0.4692  0.8831 -0.0000
              Bcc     0.0986    13.232     4.721     4.414 -0.0000  0.0000  1.0000
 
              Baa    -0.0557    -7.470    -2.666    -2.492  0.5496  0.8354 -0.0000
    14 C(13)  Bbb    -0.0512    -6.870    -2.451    -2.291  0.8354 -0.5496  0.0000
              Bcc     0.1069    14.340     5.117     4.783  0.0000  0.0000  1.0000
 
              Baa    -0.0039    -2.074    -0.740    -0.692  0.0000  0.0000  1.0000
    15 H(1)   Bbb    -0.0019    -0.993    -0.354    -0.331  0.9766 -0.2152 -0.0000
              Bcc     0.0057     3.067     1.095     1.023  0.2152  0.9766 -0.0000
 
              Baa    -0.0060    -3.192    -1.139    -1.065  0.9930  0.1181  0.0000
    16 H(1)   Bbb    -0.0043    -2.306    -0.823    -0.769 -0.0000  0.0000  1.0000
              Bcc     0.0103     5.498     1.962     1.834 -0.1181  0.9930 -0.0000
 
              Baa    -0.0037    -1.964    -0.701    -0.655  0.0000 -0.0000  1.0000
    17 H(1)   Bbb    -0.0006    -0.326    -0.116    -0.109  0.7456 -0.6664 -0.0000
              Bcc     0.0043     2.290     0.817     0.764  0.6664  0.7456 -0.0000
 
              Baa    -0.0040    -2.147    -0.766    -0.716  0.0267 -0.2358  0.9714
    18 H(1)   Bbb    -0.0008    -0.425    -0.152    -0.142  0.9975  0.0698 -0.0104
              Bcc     0.0048     2.572     0.918     0.858 -0.0653  0.9693  0.2371
 
              Baa    -0.0040    -2.147    -0.766    -0.716 -0.0267  0.2358  0.9714
    19 H(1)   Bbb    -0.0008    -0.425    -0.152    -0.142  0.9975  0.0698  0.0104
              Bcc     0.0048     2.572     0.918     0.858 -0.0653  0.9693 -0.2371
 
              Baa    -0.0030    -1.624    -0.579    -0.542  0.0000  0.0000  1.0000
    20 H(1)   Bbb    -0.0012    -0.645    -0.230    -0.215  0.3804  0.9248 -0.0000
              Bcc     0.0043     2.268     0.809     0.757  0.9248 -0.3804  0.0000
 
              Baa    -0.0172    -9.187    -3.278    -3.064 -0.2723  0.9622 -0.0000
    21 H(1)   Bbb    -0.0033    -1.775    -0.633    -0.592  0.0000  0.0000  1.0000
              Bcc     0.0205    10.962     3.912     3.657  0.9622  0.2723 -0.0000
 
              Baa    -0.0031    -1.636    -0.584    -0.546 -0.0000  0.0000  1.0000
    22 H(1)   Bbb    -0.0006    -0.301    -0.107    -0.100  0.9977  0.0681  0.0000
              Bcc     0.0036     1.936     0.691     0.646 -0.0681  0.9977 -0.0000
 
              Baa    -0.0069    -3.692    -1.318    -1.232  0.9997 -0.0245  0.0000
    23 H(1)   Bbb    -0.0040    -2.146    -0.766    -0.716 -0.0000  0.0000  1.0000
              Bcc     0.0109     5.839     2.083     1.948  0.0245  0.9997 -0.0000
 

 ---------------------------------------------------------------------------------

 Running external command "gaunbo6 R"
         input file       "/home/rpaton/arbr500/xtb/fukui/Gau-2133917.EIn"
         output file      "/home/rpaton/arbr500/xtb/fukui/Gau-2133917.EOu"
         message file     "/home/rpaton/arbr500/xtb/fukui/Gau-2133917.EMs"
         fchk file        "/home/rpaton/arbr500/xtb/fukui/Gau-2133917.EFC"
         mat. el file     "/home/rpaton/arbr500/xtb/fukui/Gau-2133917.EUF"

 Writing WrtUnf unformatted file "/home/rpaton/arbr500/xtb/fukui/Gau-2133917.EUF"
 Gaussian matrix elements                                         Version   2 NLab=11 Len12L=8 Len4L=8
 Write SHELL TO ATOM MAP                   from file      0 offset           0 length                  94 to matrix element file.
 Write SHELL TYPES                         from file      0 offset           0 length                  94 to matrix element file.
 Write NUMBER OF PRIMITIVES PER SHELL      from file      0 offset           0 length                  94 to matrix element file.
 Write PRIMITIVE EXPONENTS                 from file      0 offset           0 length                 169 to matrix element file.
 Write CONTRACTION COEFFICIENTS            from file      0 offset           0 length                 169 to matrix element file.
 Write P(S=P) CONTRACTION COEFFICIENTS     from file      0 offset           0 length                 169 to matrix element file.
 Write COORDINATES OF EACH SHELL           from file      0 offset           0 length                 282 to matrix element file.
 Write BONDS PER ATOM                      from file      0 offset           0 length                  23 to matrix element file.
 Write BONDED ATOMS                        from file      0 offset           0 length                  50 to matrix element file.
 Write BOND TYPES                          from file      0 offset           0 length                  50 to matrix element file.
 Write ONIOM CHARGE/MULT                   from file      0 offset           0 length                  32 to matrix element file.
 Write ONIOM ATOM LAYERS                   from file      0 offset           0 length                  23 to matrix element file.
 Write ONIOM ATOM MODIFIERS                from file      0 offset           0 length                  23 to matrix element file.
 Write ONIOM ATOM TYPES                    from file      0 offset           0 length                  23 to matrix element file.
 Write ONIOM LINK ATOMS                    from file      0 offset           0 length                  23 to matrix element file.
 Write ONIOM LINK CHARGES                  from file      0 offset           0 length                  23 to matrix element file.
 Write ONIOM LINK DISTANCES                from file      0 offset           0 length                  92 to matrix element file.
 Write SYMINF INTS                         from file      0 offset           0 length                  26 to matrix element file.
 Write ROTTR TO SO                         from file      0 offset           0 length                  12 to matrix element file.
 Write GAUSSIAN SCALARS                    from file    501 offset           0 to matrix element file.
 Write OPTIMIZATION FLAGS                  from file      0 offset           0 length                  23 to matrix element file.
 Write INTEGER ISO                         from file      0 offset           0 length                  23 to matrix element file.
 Write INTEGER SPIN                        from file      0 offset           0 length                  23 to matrix element file.
 Write REAL ZEFFECTIVE                     from file      0 offset           0 length                  23 to matrix element file.
 Write REAL QUADRUPOLEMOMENT               from file      0 offset           0 length                  23 to matrix element file.
 Write REAL GFACTOR                        from file      0 offset           0 length                  23 to matrix element file.
 Write REAL ZNUCLEAR                       from file      0 offset           0 length                  23 to matrix element file.
 Write MULLIKEN CHARGES                    from file      0 offset           0 length                  23 to matrix element file.
 Write TYPE 6 CHARGES                      from file      0 offset           0 length                  23 to matrix element file.
 Write TYPE 7 CHARGES                      from file      0 offset           0 length                  23 to matrix element file.
 Write NUCLEAR GRADIENT                    from file  10584 offset           0 length                  69 to matrix element file.
 Array NUCLEAR FORCE CONSTANTS              on  file  10585 does not exist.
 Write ELECTRIC DIPOLE MOMENT              from file      0 offset           0 length                   3 to matrix element file.
 Write NON-ADIABATIC COUPLING              from file  10810 offset           0 length                  69 to matrix element file.
 Write FINITE EM FIELD                     from file  10521 offset           0 length                  35 to matrix element file.
 Write OVERLAP                             from file  10514 offset           0 length               13203 to matrix element file.
 Write CORE HAMILTONIAN ALPHA              from file  10515 offset           0 length               13203 to matrix element file.
 Write CORE HAMILTONIAN BETA               from file  10515 offset       13203 length               13203 to matrix element file.
 Write KINETIC ENERGY                      from file  10516 offset           0 length               13203 to matrix element file.
 Write ORTHOGONAL BASIS                    from file  10685 offset           0 length               26244 to matrix element file.
 Write DIPOLE INTEGRALS                    from file  10518 offset           0 length               39609 to matrix element file.
 Array DIP VEL INTEGRALS                    on  file  10572 does not exist.
 Array R X DEL INTEGRALS                    on  file  10572 does not exist.
 Write ALPHA ORBITAL ENERGIES              from file      0 offset           0 length                 162 to matrix element file.
 Write BETA ORBITAL ENERGIES               from file      0 offset           0 length                 162 to matrix element file.
 Write ALPHA MO COEFFICIENTS               from file  10524 offset           0 length               26244 to matrix element file.
 Write BETA MO COEFFICIENTS                from file  10526 offset           0 length               26244 to matrix element file.
 Write ALPHA DENSITY MATRIX                from file      0 offset           0 length               13203 to matrix element file.
 Write BETA DENSITY MATRIX                 from file      0 offset           0 length               13203 to matrix element file.
 Write ALPHA FOCK MATRIX                   from file  10536 offset           0 length               13203 to matrix element file.
 Write BETA FOCK MATRIX                    from file  10538 offset           0 length               13203 to matrix element file.
 Write ENERGY-WEIGHTED DENSITY             from file  10571 offset           0 length               13203 to matrix element file.
 Write ALPHA SCF DENSITY MATRIX            from file      0 offset           0 length               13203 to matrix element file.
 Write BETA SCF DENSITY MATRIX             from file      0 offset           0 length               13203 to matrix element file.
 No 2e integrals to process.
 Perform NBO analysis...

 *********************************** NBO 7.0 ***********************************
             N A T U R A L   A T O M I C   O R B I T A L   A N D
          N A T U R A L   B O N D   O R B I T A L   A N A L Y S I S
 **************************** Robert Paton (I101709) ***************************
  (c) Copyright 1996-2019 Board of Regents of the University of Wisconsin System
      on behalf of the Theoretical Chemistry Institute.  All rights reserved.

          Cite this program [NBO 7.0.5 (4-Jun-2019)] as:

          NBO 7.0.  E. D. Glendening, J. K. Badenhoop, A. E. Reed,
          J. E. Carpenter, J. A. Bohmann, C. M. Morales, P. Karafiloglou,
          C. R. Landis, and F. Weinhold, Theoretical Chemistry Institute,
          University of Wisconsin, Madison, WI (2018)

 Filename set to /home/rpaton/arbr500/xtb/fukui/Gau-2133917

 Job title:  energy: -36.515935481572 gnorm: 0.000782190493 xtb: 6.7.0 (08769fc)


 NATURAL POPULATIONS:  Natural atomic orbital occupancies

  NAO Atom No lang   Type(AO)    Occupancy     Spin
 -----------------------------------------------------
   1   Br  1  s      Cor( 3s)     2.00000     0.00000
   2   Br  1  s      Cor( 1s)     2.00000     0.00000
   3   Br  1  s      Cor( 2s)     1.99999     0.00000
   4   Br  1  s      Val( 4s)     1.88140     0.00109
   5   Br  1  s      Ryd( 5s)     0.00288     0.00009
   6   Br  1  px     Cor( 3p)     2.00000     0.00000
   7   Br  1  px     Cor( 2p)     1.99999     0.00000
   8   Br  1  px     Val( 4p)     1.07947    -0.00909
   9   Br  1  px     Ryd( 5p)     0.00347     0.00008
  10   Br  1  py     Cor( 3p)     2.00000     0.00000
  11   Br  1  py     Cor( 2p)     1.99999     0.00000
  12   Br  1  py     Val( 4p)     1.96309     0.00011
  13   Br  1  py     Ryd( 5p)     0.00144    -0.00002
  14   Br  1  pz     Cor( 3p)     2.00000     0.00000
  15   Br  1  pz     Cor( 2p)     2.00000     0.00000
  16   Br  1  pz     Val( 4p)     1.82395     0.11909
  17   Br  1  pz     Ryd( 5p)     0.00066     0.00009
  18   Br  1  dxy    Cor( 3d)     1.99968     0.00000
  19   Br  1  dxy    Ryd( 4d)     0.00114    -0.00004
  20   Br  1  dxz    Cor( 3d)     1.99987     0.00001
  21   Br  1  dxz    Ryd( 4d)     0.00238    -0.00037
  22   Br  1  dyz    Cor( 3d)     1.99999     0.00000
  23   Br  1  dyz    Ryd( 4d)     0.00008    -0.00001
  24   Br  1  dx2y2  Cor( 3d)     1.99944     0.00000
  25   Br  1  dx2y2  Ryd( 4d)     0.00479    -0.00008
  26   Br  1  dz2    Cor( 3d)     1.99980     0.00000
  27   Br  1  dz2    Ryd( 4d)     0.00160     0.00003

  28    C  2  s      Cor( 1s)     1.99989     0.00000
  29    C  2  s      Val( 2s)     0.95388     0.00910
  30    C  2  s      Ryd( 3s)     0.00059    -0.00002
  31    C  2  px     Val( 2p)     1.02811     0.00633
  32    C  2  px     Ryd( 3p)     0.00705    -0.00011
  33    C  2  py     Val( 2p)     1.10663     0.00430
  34    C  2  py     Ryd( 3p)     0.00856    -0.00005
  35    C  2  pz     Val( 2p)     0.93526     0.19542
  36    C  2  pz     Ryd( 3p)     0.00107    -0.00020

  37    C  3  s      Cor( 1s)     1.99986     0.00000
  38    C  3  s      Val( 2s)     0.95700    -0.00167
  39    C  3  s      Ryd( 3s)     0.00106     0.00002
  40    C  3  px     Val( 2p)     1.13688    -0.00174
  41    C  3  px     Ryd( 3p)     0.00683     0.00005
  42    C  3  py     Val( 2p)     1.16529    -0.00362
  43    C  3  py     Ryd( 3p)     0.00562     0.00003
  44    C  3  pz     Val( 2p)     0.95583     0.00117
  45    C  3  pz     Ryd( 3p)     0.00043    -0.00004

  46    C  4  s      Cor( 1s)     1.99983     0.00000
  47    C  4  s      Val( 2s)     0.94659     0.00183
  48    C  4  s      Ryd( 3s)     0.00079     0.00000
  49    C  4  px     Val( 2p)     1.08217     0.00041
  50    C  4  px     Ryd( 3p)     0.00541     0.00001
  51    C  4  py     Val( 2p)     1.20017     0.00007
  52    C  4  py     Ryd( 3p)     0.00555     0.00001
  53    C  4  pz     Val( 2p)     0.93241     0.06864
  54    C  4  pz     Ryd( 3p)     0.00035    -0.00002

  55    C  5  s      Cor( 1s)     1.99987     0.00000
  56    C  5  s      Val( 2s)     0.85260     0.00328
  57    C  5  s      Ryd( 3s)     0.00103     0.00001
  58    C  5  px     Val( 2p)     1.08879     0.00070
  59    C  5  px     Ryd( 3p)     0.00467    -0.00002
  60    C  5  py     Val( 2p)     1.10607    -0.00026
  61    C  5  py     Ryd( 3p)     0.00549     0.00005
  62    C  5  pz     Val( 2p)     0.91264     0.13269
  63    C  5  pz     Ryd( 3p)     0.00022     0.00006

  64    C  6  s      Cor( 1s)     1.99991     0.00000
  65    C  6  s      Val( 2s)     0.85692     0.00372
  66    C  6  s      Ryd( 3s)     0.00103     0.00002
  67    C  6  px     Val( 2p)     1.10447     0.00281
  68    C  6  px     Ryd( 3p)     0.00510     0.00003
  69    C  6  py     Val( 2p)     1.06220     0.00032
  70    C  6  py     Ryd( 3p)     0.00419     0.00001
  71    C  6  pz     Val( 2p)     0.91006     0.10469
  72    C  6  pz     Ryd( 3p)     0.00097     0.00002

  73    C  7  s      Cor( 1s)     1.99984     0.00000
  74    C  7  s      Val( 2s)     0.94225    -0.00355
  75    C  7  s      Ryd( 3s)     0.00134     0.00002
  76    C  7  px     Val( 2p)     1.08563    -0.00443
  77    C  7  px     Ryd( 3p)     0.00688     0.00005
  78    C  7  py     Val( 2p)     1.21449    -0.00350
  79    C  7  py     Ryd( 3p)     0.00627     0.00004
  80    C  7  pz     Val( 2p)     0.97971    -0.04158
  81    C  7  pz     Ryd( 3p)     0.00038    -0.00006

  82    C  8  s      Cor( 1s)     1.99975     0.00000
  83    C  8  s      Val( 2s)     1.02556    -0.00144
  84    C  8  s      Ryd( 3s)     0.00070     0.00001
  85    C  8  px     Val( 2p)     1.01795    -0.00504
  86    C  8  px     Ryd( 3p)     0.00306     0.00002
  87    C  8  py     Val( 2p)     1.18222    -0.00234
  88    C  8  py     Ryd( 3p)     0.00232     0.00001
  89    C  8  pz     Val( 2p)     1.29864    -0.00182
  90    C  8  pz     Ryd( 3p)     0.00102     0.00003

  91    C  9  s      Cor( 1s)     1.99991     0.00000
  92    C  9  s      Val( 2s)     0.85656     0.00501
  93    C  9  s      Ryd( 3s)     0.00102     0.00002
  94    C  9  px     Val( 2p)     1.10673     0.00375
  95    C  9  px     Ryd( 3p)     0.00515     0.00003
  96    C  9  py     Val( 2p)     1.05834     0.00158
  97    C  9  py     Ryd( 3p)     0.00398     0.00000
  98    C  9  pz     Val( 2p)     0.91216     0.12834
  99    C  9  pz     Ryd( 3p)     0.00102     0.00004

 100    C 10  s      Cor( 1s)     1.99984     0.00000
 101    C 10  s      Val( 2s)     0.94716    -0.00424
 102    C 10  s      Ryd( 3s)     0.00107     0.00002
 103    C 10  px     Val( 2p)     1.07117    -0.00532
 104    C 10  px     Ryd( 3p)     0.00562     0.00004
 105    C 10  py     Val( 2p)     1.22583    -0.00329
 106    C 10  py     Ryd( 3p)     0.00585     0.00005
 107    C 10  pz     Val( 2p)     0.98326    -0.05724
 108    C 10  pz     Ryd( 3p)     0.00028    -0.00005

 109    C 11  s      Cor( 1s)     1.99987     0.00000
 110    C 11  s      Val( 2s)     0.96827     0.00822
 111    C 11  s      Ryd( 3s)     0.00060    -0.00002
 112    C 11  px     Val( 2p)     1.21799     0.00524
 113    C 11  px     Ryd( 3p)     0.00544    -0.00001
 114    C 11  py     Val( 2p)     1.07419     0.00471
 115    C 11  py     Ryd( 3p)     0.00488    -0.00003
 116    C 11  pz     Val( 2p)     0.85238     0.19860
 117    C 11  pz     Ryd( 3p)     0.00019     0.00011

 118    C 12  s      Cor( 1s)     1.99987     0.00000
 119    C 12  s      Val( 2s)     0.96144    -0.00276
 120    C 12  s      Ryd( 3s)     0.00069     0.00002
 121    C 12  px     Val( 2p)     1.14983    -0.00225
 122    C 12  px     Ryd( 3p)     0.00540     0.00004
 123    C 12  py     Val( 2p)     1.14851    -0.00417
 124    C 12  py     Ryd( 3p)     0.00542     0.00002
 125    C 12  pz     Val( 2p)     0.96197    -0.02464
 126    C 12  pz     Ryd( 3p)     0.00029    -0.00005

 127    C 13  s      Cor( 1s)     1.99983     0.00000
 128    C 13  s      Val( 2s)     0.94612     0.00302
 129    C 13  s      Ryd( 3s)     0.00087    -0.00001
 130    C 13  px     Val( 2p)     1.07505     0.00135
 131    C 13  px     Ryd( 3p)     0.00540     0.00000
 132    C 13  py     Val( 2p)     1.20857     0.00139
 133    C 13  py     Ryd( 3p)     0.00531     0.00000
 134    C 13  pz     Val( 2p)     0.93156     0.08769
 135    C 13  pz     Ryd( 3p)     0.00038     0.00001

 136    C 14  s      Cor( 1s)     1.99987     0.00000
 137    C 14  s      Val( 2s)     0.84886     0.00095
 138    C 14  s      Ryd( 3s)     0.00099     0.00001
 139    C 14  px     Val( 2p)     1.08576    -0.00140
 140    C 14  px     Ryd( 3p)     0.00468    -0.00002
 141    C 14  py     Val( 2p)     1.10821    -0.00189
 142    C 14  py     Ryd( 3p)     0.00556     0.00006
 143    C 14  pz     Val( 2p)     0.95260     0.08703
 144    C 14  pz     Ryd( 3p)     0.00023     0.00007

 145    H 15  s      Val( 1s)     0.70301    -0.00003
 146    H 15  s      Ryd( 2s)     0.00112    -0.00001

 147    H 16  s      Val( 1s)     0.71761    -0.00247
 148    H 16  s      Ryd( 2s)     0.00077    -0.00001

 149    H 17  s      Val( 1s)     0.70539     0.00136
 150    H 17  s      Ryd( 2s)     0.00108    -0.00001

 151    H 18  s      Val( 1s)     0.68697     0.00130
 152    H 18  s      Ryd( 2s)     0.00077     0.00002

 153    H 19  s      Val( 1s)     0.68697     0.00130
 154    H 19  s      Ryd( 2s)     0.00077     0.00002

 155    H 20  s      Val( 1s)     0.71851     0.00195
 156    H 20  s      Ryd( 2s)     0.00072     0.00000

 157    H 21  s      Val( 1s)     0.71816    -0.00662
 158    H 21  s      Ryd( 2s)     0.00077     0.00000

 159    H 22  s      Val( 1s)     0.71602     0.00090
 160    H 22  s      Ryd( 2s)     0.00074     0.00000

 161    H 23  s      Val( 1s)     0.72534    -0.00314
 162    H 23  s      Ryd( 2s)     0.00077    -0.00001


 Summary of Natural Population Analysis:

                                     Natural Population                 Natural
             Natural    ---------------------------------------------    Spin
  Atom No    Charge        Core      Valence    Rydberg      Total      Density
 -------------------------------------------------------------------------------
   Br  1    0.23487     27.99876     6.74791    0.01845    34.76513     0.11099
    C  2   -0.04104      1.99989     4.02387    0.01728     6.04104     0.21476
    C  3   -0.22881      1.99986     4.21500    0.01395     6.22881    -0.00582
    C  4   -0.17328      1.99983     4.16134    0.01211     6.17328     0.07096
    C  5    0.02863      1.99987     3.96009    0.01140     5.97137     0.13651
    C  6    0.05515      1.99991     3.93365    0.01129     5.94485     0.11162
    C  7   -0.23680      1.99984     4.22208    0.01488     6.23680    -0.05302
    C  8   -0.53122      1.99975     4.52437    0.00710     6.53122    -0.01058
    C  9    0.05513      1.99991     3.93379    0.01117     5.94487     0.13877
    C 10   -0.24009      1.99984     4.22743    0.01282     6.24009    -0.07004
    C 11   -0.12381      1.99987     4.11283    0.01111     6.12381     0.21682
    C 12   -0.23341      1.99987     4.22174    0.01180     6.23341    -0.03378
    C 13   -0.17308      1.99983     4.16130    0.01195     6.17308     0.09343
    C 14   -0.00676      1.99987     3.99543    0.01146     6.00676     0.08480
    H 15    0.29587      0.00000     0.70301    0.00112     0.70413    -0.00003
    H 16    0.28161      0.00000     0.71761    0.00077     0.71839    -0.00248
    H 17    0.29353      0.00000     0.70539    0.00108     0.70647     0.00135
    H 18    0.31226      0.00000     0.68697    0.00077     0.68774     0.00132
    H 19    0.31226      0.00000     0.68697    0.00077     0.68774     0.00132
    H 20    0.28078      0.00000     0.71851    0.00072     0.71922     0.00195
    H 21    0.28107      0.00000     0.71816    0.00077     0.71893    -0.00662
    H 22    0.28323      0.00000     0.71602    0.00074     0.71677     0.00090
    H 23    0.27390      0.00000     0.72534    0.00077     0.72610    -0.00314
 ===============================================================================
 * Total *  1.00000     53.99690    66.81882    0.18428   121.00000     1.00000

                                 Natural Population
 ---------------------------------------------------------
   Core                      53.99690 ( 99.9943% of   54)
   Valence                   66.81882 ( 99.7296% of   67)
   Natural Minimal Basis    120.81572 ( 99.8477% of  121)
   Natural Rydberg Basis      0.18428 (  0.1523% of  121)
 ---------------------------------------------------------

    Atom No         Natural Electron Configuration
 ----------------------------------------------------------------------------
     Br  1      [core]4s( 1.88)4p( 4.87)4d( 0.01)5p( 0.01)
      C  2      [core]2s( 0.95)2p( 3.07)3p( 0.02)
      C  3      [core]2s( 0.96)2p( 3.26)3p( 0.01)
      C  4      [core]2s( 0.95)2p( 3.21)3p( 0.01)
      C  5      [core]2s( 0.85)2p( 3.11)3p( 0.01)
      C  6      [core]2s( 0.86)2p( 3.08)3p( 0.01)
      C  7      [core]2s( 0.94)2p( 3.28)3p( 0.01)
      C  8      [core]2s( 1.03)2p( 3.50)3p( 0.01)
      C  9      [core]2s( 0.86)2p( 3.08)3p( 0.01)
      C 10      [core]2s( 0.95)2p( 3.28)3p( 0.01)
      C 11      [core]2s( 0.97)2p( 3.14)3p( 0.01)
      C 12      [core]2s( 0.96)2p( 3.26)3p( 0.01)
      C 13      [core]2s( 0.95)2p( 3.22)3p( 0.01)
      C 14      [core]2s( 0.85)2p( 3.15)3p( 0.01)
      H 15            1s( 0.70)
      H 16            1s( 0.72)
      H 17            1s( 0.71)
      H 18            1s( 0.69)
      H 19            1s( 0.69)
      H 20            1s( 0.72)
      H 21            1s( 0.72)
      H 22            1s( 0.72)
      H 23            1s( 0.73)


 ***************************************************
 *******         Alpha spin orbitals         *******
 ***************************************************


 NATURAL POPULATIONS:  Natural atomic orbital occupancies

  NAO Atom No lang   Type(AO)    Occupancy      Energy
 -------------------------------------------------------
   1   Br  1  s      Cor( 3s)     1.00000     -19.48299
   2   Br  1  s      Cor( 1s)     1.00000    -452.60976
   3   Br  1  s      Cor( 2s)     1.00000     -79.99914
   4   Br  1  s      Val( 4s)     0.94124      -0.92658
   5   Br  1  s      Ryd( 5s)     0.00149       0.71703
   6   Br  1  px     Cor( 3p)     1.00000      -7.39794
   7   Br  1  px     Cor( 2p)     0.99999     -55.76158
   8   Br  1  px     Val( 4p)     0.53519      -0.37389
   9   Br  1  px     Ryd( 5p)     0.00178       0.59858
  10   Br  1  py     Cor( 3p)     1.00000      -7.38237
  11   Br  1  py     Cor( 2p)     1.00000     -55.75770
  12   Br  1  py     Val( 4p)     0.98160      -0.50619
  13   Br  1  py     Ryd( 5p)     0.00071       0.62826
  14   Br  1  pz     Cor( 3p)     1.00000      -7.38525
  15   Br  1  pz     Cor( 2p)     1.00000     -55.75859
  16   Br  1  pz     Val( 4p)     0.97152      -0.50985
  17   Br  1  pz     Ryd( 5p)     0.00038       0.58746
  18   Br  1  dxy    Cor( 3d)     0.99984      -2.92866
  19   Br  1  dxy    Ryd( 4d)     0.00055       0.77008
  20   Br  1  dxz    Cor( 3d)     0.99994      -2.93079
  21   Br  1  dxz    Ryd( 4d)     0.00100       0.56423
  22   Br  1  dyz    Cor( 3d)     1.00000      -2.91857
  23   Br  1  dyz    Ryd( 4d)     0.00003       0.49815
  24   Br  1  dx2y2  Cor( 3d)     0.99972      -2.92884
  25   Br  1  dx2y2  Ryd( 4d)     0.00236       0.84135
[...]
   54. BD ( 1) C 11- C 12     135. RY ( 2) C 10            0.87    1.70   0.049
   54. BD ( 1) C 11- C 12     147. RY ( 2) C 13            1.12    1.73   0.056
   55. BD ( 1) C 11- H 21      81. BD*( 1) C  9- C 10      1.44    1.27   0.054
   55. BD ( 1) C 11- H 21      84. BD*( 1) C 10- C 11      0.42    1.25   0.029
   55. BD ( 1) C 11- H 21      86. BD*( 1) C 11- C 12      0.43    1.25   0.029
   55. BD ( 1) C 11- H 21      88. BD*( 1) C 12- C 13      1.51    1.25   0.055
   55. BD ( 1) C 11- H 21     134. RY ( 1) C 10            0.66    1.99   0.046
   55. BD ( 1) C 11- H 21     142. RY ( 1) C 12            0.71    1.98   0.047
   56. BD ( 1) C 12- C 13      73. BD*( 1) C  5- C 14      1.81    1.28   0.061
   56. BD ( 1) C 12- C 13      86. BD*( 1) C 11- C 12      1.13    1.38   0.050
   56. BD ( 1) C 12- C 13      87. BD*( 1) C 11- H 21      0.76    1.31   0.040
   56. BD ( 1) C 12- C 13      90. BD*( 1) C 12- H 22      0.78    1.32   0.040
   56. BD ( 1) C 12- C 13      91. BD*( 1) C 13- C 14      1.41    1.38   0.056
   56. BD ( 1) C 12- C 13      92. BD*( 1) C 13- H 23      0.87    1.30   0.042
   56. BD ( 1) C 12- C 13     138. RY ( 1) C 11            0.49    2.11   0.041
   56. BD ( 1) C 12- C 13     139. RY ( 2) C 11            0.83    1.72   0.048
   56. BD ( 1) C 12- C 13     150. RY ( 1) C 14            1.03    2.15   0.060
   56. BD ( 1) C 12- C 13     151. RY ( 2) C 14            0.44    2.19   0.039
   57. BD ( 2) C 12- C 13      63. LV ( 1) C 11           47.98    0.25   0.137
   57. BD ( 2) C 12- C 13     141. RY ( 4) C 11            0.46    1.26   0.030
   58. BD ( 1) C 12- H 22      84. BD*( 1) C 10- C 11      1.44    1.24   0.053
   58. BD ( 1) C 12- H 22      86. BD*( 1) C 11- C 12      0.46    1.25   0.030
   58. BD ( 1) C 12- H 22      88. BD*( 1) C 12- C 13      0.50    1.25   0.032
   58. BD ( 1) C 12- H 22      91. BD*( 1) C 13- C 14      1.45    1.25   0.054
   58. BD ( 1) C 12- H 22     138. RY ( 1) C 11            0.70    1.98   0.047
   58. BD ( 1) C 12- H 22     146. RY ( 1) C 13            0.64    1.95   0.045
   59. BD ( 1) C 13- C 14      73. BD*( 1) C  5- C 14      1.99    1.29   0.064
   59. BD ( 1) C 13- C 14      78. BD*( 1) C  8- C  9      0.64    1.22   0.035
   59. BD ( 1) C 13- C 14      83. BD*( 1) C  9- C 14      2.12    1.35   0.067
   59. BD ( 1) C 13- C 14      88. BD*( 1) C 12- C 13      1.27    1.40   0.053
   59. BD ( 1) C 13- C 14      90. BD*( 1) C 12- H 22      0.74    1.33   0.040
   59. BD ( 1) C 13- C 14      92. BD*( 1) C 13- H 23      0.82    1.31   0.041
   59. BD ( 1) C 13- C 14     114. RY ( 1) C  5            0.76    2.16   0.051
   59. BD ( 1) C 13- C 14     115. RY ( 2) C  5            0.28    2.20   0.031
   59. BD ( 1) C 13- C 14     130. RY ( 1) C  9            0.62    2.28   0.047
   59. BD ( 1) C 13- C 14     142. RY ( 1) C 12            0.65    2.13   0.047
   59. BD ( 1) C 13- C 14     143. RY ( 2) C 12            0.75    1.74   0.045
   60. BD ( 1) C 13- H 23      83. BD*( 1) C  9- C 14      1.73    1.22   0.058
   60. BD ( 1) C 13- H 23      86. BD*( 1) C 11- C 12      1.34    1.26   0.052
   60. BD ( 1) C 13- H 23      88. BD*( 1) C 12- C 13      0.57    1.26   0.034
   60. BD ( 1) C 13- H 23      91. BD*( 1) C 13- C 14      0.52    1.26   0.032
   60. BD ( 1) C 13- H 23     142. RY ( 1) C 12            0.73    1.99   0.048
   60. BD ( 1) C 13- H 23     151. RY ( 2) C 14            0.87    2.07   0.054


 NATURAL BOND ORBITALS (Summary):

                                                     Principal Delocalizations
           NBO                 Occupancy    Energy   (geminal,vicinal,remote)
 ===============================================================================
 Molecular unit  1  (C13H9Br)
 ------ Lewis --------------------------------------
    1. CR ( 1)Br  1             1.00000   -19.48251
    2. CR ( 2)Br  1             1.00000  -452.60939
    3. CR ( 3)Br  1             1.00000   -79.99899
    4. CR ( 4)Br  1             1.00000    -7.39784
    5. CR ( 5)Br  1             0.99999   -55.76148
    6. CR ( 6)Br  1             1.00000    -7.38219
    7. CR ( 7)Br  1             1.00000   -55.75754
    8. CR ( 8)Br  1             1.00000    -7.38400
    9. CR ( 9)Br  1             1.00000   -55.75772
   10. CR (10)Br  1             0.99984    -2.92861
   11. CR (11)Br  1             0.99993    -2.93025
   12. CR (12)Br  1             1.00000    -2.91800
   13. CR (13)Br  1             0.99972    -2.92879  95(g)
   14. CR (14)Br  1             0.99990    -2.92268
   15. CR ( 1) C  2             0.99995   -10.47418
   16. CR ( 1) C  3             0.99993   -10.41390
   17. CR ( 1) C  4             0.99991   -10.41828
   18. CR ( 1) C  5             0.99994   -10.43828
   19. CR ( 1) C  6             0.99995   -10.43036
   20. CR ( 1) C  7             0.99992   -10.41297
   21. CR ( 1) C  8             0.99987   -10.39984  128(g)
   22. CR ( 1) C  9             0.99995   -10.41988
   23. CR ( 1) C 10             0.99992   -10.39471
   24. CR ( 1) C 11             0.99993   -10.40605
   25. CR ( 1) C 12             0.99993   -10.39372
   26. CR ( 1) C 13             0.99992   -10.40535
   27. CR ( 1) C 14             0.99994   -10.42717
   28. LP ( 1)Br  1             0.99864    -0.90903  103(v)
   29. LP ( 2)Br  1             0.99038    -0.50670  65(v),66(v),102(v)
   30. LP ( 3)Br  1             0.85370    -0.47375  61(v)
   31. LP ( 1) C 14             0.43279    -0.26521  82(v),89(v),61(r),153(g)
                                                     149(v),75(r),132(v),117(v)
                                                     63(r)
   32. BD ( 1)Br  1- C  2       0.99316    -0.78026  106(v),67(v),74(v),122(v)
   33. BD ( 1) C  2- C  3       0.99098    -0.89539  66(g),67(g),111(v),69(g)
                                                     77(v),71(v),122(v),110(v)
                                                     123(v)
   34. BD ( 1) C  2- C  7       0.99023    -0.89189  65(g),76(v),74(g),119(v)
                                                     77(g),69(v),106(v),107(v)
                                                     118(v)
   35. BD ( 1) C  3- C  4       0.98718    -0.86770  64(v),73(v),70(g),65(g)
                                                     114(v),102(v),69(g),71(g)
                                                     103(v),115(v)
   36. BD ( 2) C  3- C  4       0.85822    -0.48473  61(v),62(v),104(v),117(v)
   37. BD ( 1) C  3- H 15       0.99019    -0.73467  66(v),70(v),103(v),110(v)
                                                     67(g),65(g),64(v)
   38. BD ( 1) C  4- C  5       0.98818    -0.87622  73(g),72(g),67(g),107(v)
                                                     71(g),150(v),69(v),76(v)
                                                     118(v),119(v),106(v),151(v)
   39. BD ( 1) C  4- H 16       0.99070    -0.74027  72(v),65(v),115(v),106(v)
                                                     67(g),70(g)
   40. BD ( 1) C  5- C  6       0.98405    -0.85553  70(g),74(g),91(v),73(g)
                                                     123(v),77(v),150(v),71(v)
                                                     76(g),111(v),110(v),78(v)
                                                     127(v)
   41. BD ( 1) C  5- C 14       0.98523    -0.83448  91(g),70(g),72(g),83(g)
                                                     74(v),81(v),110(v),146(v)
                                                     118(v),130(v),67(v),88(v)
                                                     76(v),78(v)
   42. BD ( 1) C  6- C  7       0.98588    -0.87527  72(g),64(v),76(g),66(g)
                                                     77(g),102(v),73(v),115(v)
                                                     126(v),103(v),114(v)
   43. BD ( 2) C  6- C  7       0.84443    -0.48507  61(v),62(v),79(v),80(v)
                                                     104(v),75(g)
   44. BD ( 1) C  6- C  8       0.98813    -0.80062  74(g),81(v),70(v),122(v)
                                                     72(g),66(v),115(v),78(g)
                                                     79(g),80(g),73(v),131(v)
                                                     83(v)
   45. BD ( 1) C  7- H 17       0.98988    -0.73701  72(v),65(v),118(v),103(v)
                                                     74(g),66(g),64(v),76(v)
   46. BD ( 1) C  8- C  9       0.98841    -0.79515  74(v),81(g),91(v),134(v)
                                                     83(g),151(v),84(v),76(g)
                                                     79(g),80(g),73(v),119(v)
                                                     72(v)
   47. BD ( 1) C  8- H 18       0.98022    -0.71317  82(v),75(v),72(v),132(v)
                                                     120(v),83(v),78(g),76(g)
   48. BD ( 1) C  8- H 19       0.98022    -0.71317  82(v),75(v),72(v),132(v)
                                                     120(v),83(v),78(g),76(g)
   49. BD ( 1) C  9- C 10       0.98851    -0.86222  83(g),78(g),84(g),85(g)
                                                     87(v),139(v),73(v),138(v)
                                                     151(v),150(v),126(v)
   50. BD ( 2) C  9- C 10       0.82481    -0.46653  63(v),79(v),80(v),82(g)
                                                     141(v)
   51. BD ( 1) C  9- C 14       0.98375    -0.84591  91(g),81(g),70(v),73(g)
                                                     85(v),92(v),114(v),135(v)
                                                     78(g),146(v),147(v),127(v)
                                                     76(v),134(v)
   52. BD ( 1) C 10- C 11       0.98993    -0.85183  78(v),81(g),131(v),86(g)
                                                     143(v),90(v),85(g),87(g)
                                                     142(v)
   53. BD ( 1) C 10- H 20       0.99124    -0.72239  83(v),86(v),130(v),138(v)
                                                     81(g),84(g),78(v)
   54. BD ( 1) C 11- C 12       0.99083    -0.85444  88(g),147(v),84(g),92(v)
                                                     85(v),135(v),90(g),87(g)
                                                     134(v)
   55. BD ( 1) C 11- H 21       0.99166    -0.72367  88(v),81(v),142(v),134(v)
                                                     86(g),84(g)
   56. BD ( 1) C 12- C 13       0.98986    -0.85274  73(v),91(g),86(g),150(v)
                                                     92(g),139(v),90(g),87(v)
                                                     138(v),151(v)
   57. BD ( 2) C 12- C 13       0.84728    -0.46724  63(v),141(v)
   58. BD ( 1) C 12- H 22       0.99149    -0.71812  91(v),84(v),138(v),146(v)
                                                     88(g),86(g)
   59. BD ( 1) C 13- C 14       0.98790    -0.86456  83(g),73(g),88(g),92(g)
                                                     114(v),143(v),90(v),142(v)
                                                     78(v),130(v),115(v)
   60. BD ( 1) C 13- H 23       0.99129    -0.73066  83(v),86(v),151(v),142(v)
                                                     88(g),91(g)
 ------ non-Lewis ----------------------------------
   61. LV ( 1) C  2             0.36995    -0.27621
   62. LV ( 1) C  5             0.38998    -0.25998
   63. LV ( 1) C 11             0.32690    -0.22149
   64. BD*( 1)Br  1- C  2       0.01192     0.01993
   65. BD*( 1) C  2- C  3       0.01066     0.49347
   66. BD*( 1) C  2- C  7       0.01056     0.49197
   67. BD*( 1) C  3- C  4       0.00752     0.51630
   68. BD*( 2) C  3- C  4       0.05112    -0.06610
   69. BD*( 1) C  3- H 15       0.00538     0.44701
   70. BD*( 1) C  4- C  5       0.01092     0.51661
   71. BD*( 1) C  4- H 16       0.00552     0.43810
   72. BD*( 1) C  5- C  6       0.01301     0.47425
   73. BD*( 1) C  5- C 14       0.01524     0.42412
   74. BD*( 1) C  6- C  7       0.01098     0.53185
   75. BD*( 2) C  6- C  7       0.06896    -0.06625
   76. BD*( 1) C  6- C  8       0.00895     0.35121
   77. BD*( 1) C  7- H 17       0.00607     0.43927
   78. BD*( 1) C  8- C  9       0.00916     0.35459
   79. BD*( 1) C  8- H 18       0.00534     0.39671
   80. BD*( 1) C  8- H 19       0.00533     0.39673
   81. BD*( 1) C  9- C 10       0.01047     0.54402
   82. BD*( 2) C  9- C 10       0.08744    -0.05827
   83. BD*( 1) C  9- C 14       0.01329     0.48545
   84. BD*( 1) C 10- C 11       0.00712     0.52648
   85. BD*( 1) C 10- H 20       0.00572     0.45286
   86. BD*( 1) C 11- C 12       0.00715     0.52789
   87. BD*( 1) C 11- H 21       0.00486     0.45925
   88. BD*( 1) C 12- C 13       0.00711     0.53076
   89. BD*( 2) C 12- C 13       0.06811    -0.05585
   90. BD*( 1) C 12- H 22       0.00506     0.46246
   91. BD*( 1) C 13- C 14       0.01119     0.52735
   92. BD*( 1) C 13- H 23       0.00560     0.44493
   93. RY ( 1)Br  1             0.00045     0.60632
   94. RY ( 2)Br  1             0.00040     0.53152
   95. RY ( 3)Br  1             0.00031     0.99007
   96. RY ( 4)Br  1             0.00011     0.66267
   97. RY ( 5)Br  1             0.00005     0.78853
   98. RY ( 6)Br  1             0.00002     0.50327
   99. RY ( 7)Br  1             0.00001     0.53094
  100. RY ( 8)Br  1             0.00001     0.63099
  101. RY ( 9)Br  1             0.00000     0.58056
  102. RY ( 1) C  2             0.00362     0.93895
  103. RY ( 2) C  2             0.00259     1.20084
  104. RY ( 3) C  2             0.00061     0.78765
  105. RY ( 4) C  2             0.00017     0.56098
  106. RY ( 1) C  3             0.00283     1.19263
  107. RY ( 2) C  3             0.00173     0.87295
  108. RY ( 3) C  3             0.00024     0.57632
  109. RY ( 4) C  3             0.00016     0.77456
  110. RY ( 1) C  4             0.00230     1.23983
  111. RY ( 2) C  4             0.00177     0.84640
  112. RY ( 3) C  4             0.00016     0.58621
  113. RY ( 4) C  4             0.00014     0.77523
  114. RY ( 1) C  5             0.00242     1.29177
  115. RY ( 2) C  5             0.00216     1.33850
  116. RY ( 3) C  5             0.00040     0.59642
  117. RY ( 4) C  5             0.00007     0.83252
  118. RY ( 1) C  6             0.00215     1.38664
  119. RY ( 2) C  6             0.00165     1.13544
  120. RY ( 3) C  6             0.00048     0.83501
  121. RY ( 4) C  6             0.00034     0.62010
  122. RY ( 1) C  7             0.00298     1.16857
  123. RY ( 2) C  7             0.00194     0.86917
  124. RY ( 3) C  7             0.00032     0.57564
  125. RY ( 4) C  7             0.00016     0.77622
  126. RY ( 1) C  8             0.00113     0.80803
  127. RY ( 2) C  8             0.00106     0.79368
  128. RY ( 3) C  8             0.00022     1.05283
  129. RY ( 4) C  8             0.00015     0.94504
  130. RY ( 1) C  9             0.00207     1.41065
  131. RY ( 2) C  9             0.00163     1.13155
  132. RY ( 3) C  9             0.00049     0.84504
  133. RY ( 4) C  9             0.00034     0.62558
  134. RY ( 1) C 10             0.00240     1.26172
  135. RY ( 2) C 10             0.00184     0.84371
  136. RY ( 3) C 10             0.00024     0.60113
  137. RY ( 4) C 10             0.00008     0.79100
  138. RY ( 1) C 11             0.00225     1.25932
  139. RY ( 2) C 11             0.00153     0.87130
  140. RY ( 3) C 11             0.00012     0.60526
  141. RY ( 4) C 11             0.00003     0.78842
  142. RY ( 1) C 12             0.00231     1.26077
  143. RY ( 2) C 12             0.00161     0.87428
  144. RY ( 3) C 12             0.00014     0.60366
  145. RY ( 4) C 12             0.00007     0.79027
  146. RY ( 1) C 13             0.00222     1.23333
  147. RY ( 2) C 13             0.00173     0.87144
  148. RY ( 3) C 13             0.00019     0.59464
  149. RY ( 4) C 13             0.00014     0.78641
  150. RY ( 1) C 14             0.00246     1.29925
  151. RY ( 2) C 14             0.00217     1.34107
  152. RY ( 3) C 14             0.00040     0.59984
  153. RY ( 4) C 14             0.00008     0.83854
  154. RY ( 1) H 15             0.00056     0.47086
  155. RY ( 1) H 16             0.00039     0.48821
  156. RY ( 1) H 17             0.00055     0.47349
  157. RY ( 1) H 18             0.00038     0.47330
  158. RY ( 1) H 19             0.00038     0.47329
  159. RY ( 1) H 20             0.00036     0.48085
  160. RY ( 1) H 21             0.00039     0.47423
  161. RY ( 1) H 22             0.00037     0.47957
  162. RY ( 1) H 23             0.00039     0.49621
          -------------------------------
                 Total Lewis   58.35779  ( 97.2630%)
           Valence non-Lewis    1.57658  (  2.6276%)
           Rydberg non-Lewis    0.06563  (  0.1094%)
          -------------------------------
               Total unit  1   60.00000  (100.0000%)
              Charge unit  1    1.00000

 $CHOOSE
  ALPHA
   LONE 1 3 END
   BOND S 1 2 D 2 3 S 2 7 S 3 4 S 3 15 D 4 5 S 4 16 S 5 6 S 5 14 D 6 7 S 6 8
        S 7 17 S 8 9 S 8 18 S 8 19 D 9 10 S 9 14 S 10 11 S 10 20 D 11 12
        S 11 21 S 12 13 S 12 22 D 13 14 S 13 23 END
  END
  BETA
   LONE 1 3 14 1 END
   BOND S 1 2 S 2 3 S 2 7 D 3 4 S 3 15 S 4 5 S 4 16 S 5 6 S 5 14 D 6 7 S 6 8
        S 7 17 S 8 9 S 8 18 S 8 19 D 9 10 S 9 14 S 10 11 S 10 20 S 11 12
        S 11 21 D 12 13 S 12 22 S 13 14 S 13 23 END
  END
 $END

 NBO analysis completed in 0.74 CPU seconds (1 wall second)
 Maximum scratch memory used by NBO was 693983 words (5.29 MB)
 Maximum scratch memory used by G16NBO was 61777 words (0.47 MB)

 Opening RunExU unformatted file "/home/rpaton/arbr500/xtb/fukui/Gau-2133917.EUF"
 Read unf file /home/rpaton/arbr500/xtb/fukui/Gau-2133917.EUF:
 Label Gaussian matrix elements                                         IVers= 2 NLab= 2 Version=ES64L-G16RevC.01
 Title energy: -36.515935481572 gnorm: 0.000782190493 xtb: 6.7.0 (08769
 NAtoms=    23 NBasis=   162 NBsUse=   162 ICharg=     1 Multip=     2 NE=   121 Len12L=8 Len4L=8 IOpCl= 1 ICGU=112
 GAUSSIAN SCALARS                    NI= 1 NR= 1 NTot=       1 LenBuf=    2 NRI=1 N=    1000
 NPA CHARGES                         NI= 0 NR= 1 NTot=      23 LenBuf= 2048 NRI=1 N=      23
 Recovered energy= -3059.47376845     dipole=     -2.197659266762      0.039551292257     -0.000004482651
 Unable to Open any file for archive entry.
 1\1\GINC-DYNAMO\SP\UwB97XD\MIDIx\C13H9Br1(1+,2)\RPATON\28-Sep-2024\0\\
 # wb97xd midix pop(nbo6,hirshfeld)\\energy: -36.515935481572 gnorm: 0.
 000782190493 xtb: 6.7.0 (08769fc)\\1,2\Br,0,3.81427,-0.10734,0.00001\C
 ,0,1.92224,0.14786,0.00001\C,0,1.41994,1.44007,0.\C,0,0.05064,1.64485,
 -0.00001\C,0,-0.79269,0.54462,0.\C,0,-0.2654,-0.75758,0.00001\C,0,1.09
 674,-0.96773,0.00001\C,0,-1.37291,-1.7686,0.00002\C,0,-2.60087,-0.9051
 4,0.00001\C,0,-3.92844,-1.27823,0.00001\C,0,-4.89984,-0.28654,-0.00001
 \C,0,-4.54677,1.05512,-0.00001\C,0,-3.21601,1.43872,-0.00001\C,0,-2.24
 257,0.4522,0.\H,0,2.09902,2.27896,-0.00001\H,0,-0.34595,2.64859,-0.000
 02\H,0,1.51605,-1.96257,0.00003\H,0,-1.33053,-2.41484,-0.88042\H,0,-1.
 33053,-2.41482,0.88046\H,0,-4.21017,-2.32134,0.00001\H,0,-5.94384,-0.5
 6324,0.\H,0,-5.32047,1.80892,-0.00002\H,0,-2.944,2.48365,-0.00002\\Ver
 sion=ES64L-G16RevC.01\State=2-A\HF=-3059.4737685\S2=0.775245\S2-1=0.\S
 2A=0.750408\RMSD=8.763e-09\Dipole=-2.1976788,0.0384503,-0.0000045\Quad
 rupole=24.1638013,-3.1580987,-21.0057026,0.8461671,0.0000843,-0.000157
 \PG=C01 [X(C13H9Br1)]\\@
 The archive entry for this job was punched.


 KNOWLEDGE IS OF TWO KINDS:  WE KNOW A SUBJECT OURSELVES OR WE KNOW 
 WHERE WE CAN FIND INFORMATION UPON IT.

                                    -- SAMUEL JOHNSON
 Job cpu time:       0 days  0 hours  9 minutes 58.2 seconds.
 Elapsed time:       0 days  0 hours  0 minutes 25.2 seconds.
 File lengths (MBytes):  RWF=     31 Int=      0 D2E=      0 Chk=      3 Scr=      1
 Normal termination of Gaussian 16 at Sat Sep 28 19:04:58 2024.
