 Entering Gaussian System, Link 0=/usr/local/Gaussian/G16C/g16/g16
 Input=arbr43_xtbopt_red.com
 Output=arbr43_xtbopt_red.log
 Initial command:
 /usr/local/Gaussian/G16C/g16/l1.exe "/home/rpaton/arbr500/xtb/fukui/Gau-2147932.inp" -scrdir="/home/rpaton/arbr500/xtb/fukui/"
 Entering Link 1 = /usr/local/Gaussian/G16C/g16/l1.exe PID=   2147933.
  
 Copyright (c) 1988-2019, Gaussian, Inc.  All Rights Reserved.
  
 This is part of the Gaussian(R) 16 program.  It is based on
 the Gaussian(R) 09 system (copyright 2009, Gaussian, Inc.),
 the Gaussian(R) 03 system (copyright 2003, Gaussian, Inc.),
 the Gaussian(R) 98 system (copyright 1998, Gaussian, Inc.),
 the Gaussian(R) 94 system (copyright 1995, Gaussian, Inc.),
 the Gaussian 92(TM) system (copyright 1992, Gaussian, Inc.),
 the Gaussian 90(TM) system (copyright 1990, Gaussian, Inc.),
 the Gaussian 88(TM) system (copyright 1988, Gaussian, Inc.),
 the Gaussian 86(TM) system (copyright 1986, Carnegie Mellon
 University), and the Gaussian 82(TM) system (copyright 1983,
 Carnegie Mellon University). Gaussian is a federally registered
 trademark of Gaussian, Inc.
  
 This software contains proprietary and confidential information,
 including trade secrets, belonging to Gaussian, Inc.
  
 This software is provided under written license and may be
 used, copied, transmitted, or stored only in accord with that
 written license.
  
 The following legend is applicable only to US Government
 contracts under FAR:
  
                    RESTRICTED RIGHTS LEGEND
  
 Use, reproduction and disclosure by the US Government is
 subject to restrictions as set forth in subparagraphs (a)
 and (c) of the Commercial Computer Software - Restricted
 Rights clause in FAR 52.227-19.
  
 Gaussian, Inc.
 340 Quinnipiac St., Bldg. 40, Wallingford CT 06492
  
  
 ---------------------------------------------------------------
 Warning -- This program may not be used in any manner that
 competes with the business of Gaussian, Inc. or will provide
 assistance to any competitor of Gaussian, Inc.  The licensee
 of this program is prohibited from giving any competitor of
 Gaussian, Inc. access to this program.  By using this program,
 the user acknowledges that Gaussian, Inc. is engaged in the
 business of creating and licensing software in the field of
 computational chemistry and represents and warrants to the
 licensee that it is not a competitor of Gaussian, Inc. and that
 it will not use this program in any manner prohibited above.
 ---------------------------------------------------------------
  

 Cite this work as:
 Gaussian 16, Revision C.01,
 M. J. Frisch, G. W. Trucks, H. B. Schlegel, G. E. Scuseria, 
 M. A. Robb, J. R. Cheeseman, G. Scalmani, V. Barone, 
 G. A. Petersson, H. Nakatsuji, X. Li, M. Caricato, A. V. Marenich, 
 J. Bloino, B. G. Janesko, R. Gomperts, B. Mennucci, H. P. Hratchian, 
 J. V. Ortiz, A. F. Izmaylov, J. L. Sonnenberg, D. Williams-Young, 
 F. Ding, F. Lipparini, F. Egidi, J. Goings, B. Peng, A. Petrone, 
 T. Henderson, D. Ranasinghe, V. G. Zakrzewski, J. Gao, N. Rega, 
 G. Zheng, W. Liang, M. Hada, M. Ehara, K. Toyota, R. Fukuda, 
 J. Hasegawa, M. Ishida, T. Nakajima, Y. Honda, O. Kitao, H. Nakai, 
 T. Vreven, K. Throssell, J. A. Montgomery, Jr., J. E. Peralta, 
 F. Ogliaro, M. J. Bearpark, J. J. Heyd, E. N. Brothers, K. N. Kudin, 
 V. N. Staroverov, T. A. Keith, R. Kobayashi, J. Normand, 
 K. Raghavachari, A. P. Rendell, J. C. Burant, S. S. Iyengar, 
 J. Tomasi, M. Cossi, J. M. Millam, M. Klene, C. Adamo, R. Cammi, 
 J. W. Ochterski, R. L. Martin, K. Morokuma, O. Farkas, 
 J. B. Foresman, and D. J. Fox, Gaussian, Inc., Wallingford CT, 2019.
 
 ******************************************
 Gaussian 16:  ES64L-G16RevC.01  3-Jul-2019
                28-Sep-2024 
 ******************************************
 %nprocshared=24
 Will use up to   24 processors via shared memory.
 ----------------------------------
 # wb97xd midix pop(nbo6,hirshfeld)
 ----------------------------------
 1/38=1,172=1/1;
 2/12=2,17=6,18=5,40=1/2;
 3/5=20,11=2,25=1,30=1,74=-58/1,2,3;
 4//1;
 5/5=2,38=5/2;
 6/7=2,8=2,9=2,10=2,28=1,40=1,79=1,113=1,114=1,124=3103,126=1/1,12;
 99/5=1,9=1/99;
 -------------------------------------------------------------------
 energy: -32.024707278763 gnorm: 0.000396726366 xtb: 6.7.0 (08769fc)
 -------------------------------------------------------------------
 Symbolic Z-matrix:
 Charge = -1 Multiplicity = 2
 Br                    2.99342  -0.25958  -0.10009 
 C                     1.14493   0.19043  -0.01904 
 C                     0.77157   1.52267   0.02996 
 C                    -0.57582   1.82671   0.07294 
 C                    -1.54811   0.83663   0.08075 
 C                    -1.14665  -0.50201   0.05256 
 C                     0.20891  -0.82187  -0.00776 
 O                    -2.00854  -1.55071   0.06264 
 C                    -3.3694   -1.25156   0.31039 
 C                    -3.82063   0.00148  -0.42881 
 C                    -3.01189   1.18433   0.09478 
 H                     1.51618   2.30252   0.02672 
 H                    -0.88513   2.86131   0.09737 
 H                     0.49778  -1.85993  -0.04322 
 H                    -3.92136  -2.13547  -0.01777 
 H                    -3.51964  -1.12209   1.39139 
 H                    -3.63557  -0.13034  -1.49682 
 H                    -4.88826   0.15648  -0.27645 
 H                    -3.32259   1.42203   1.11738 
 H                    -3.1866    2.07262  -0.51535 
 
                          Input orientation:                          
 ---------------------------------------------------------------------
 Center     Atomic      Atomic             Coordinates (Angstroms)
 Number     Number       Type             X           Y           Z
 ---------------------------------------------------------------------
      1         35           0        2.993420   -0.259580   -0.100090
      2          6           0        1.144930    0.190430   -0.019040
      3          6           0        0.771570    1.522670    0.029960
      4          6           0       -0.575820    1.826710    0.072940
      5          6           0       -1.548110    0.836630    0.080750
      6          6           0       -1.146650   -0.502010    0.052560
      7          6           0        0.208910   -0.821870   -0.007760
      8          8           0       -2.008540   -1.550710    0.062640
      9          6           0       -3.369400   -1.251560    0.310390
     10          6           0       -3.820630    0.001480   -0.428810
     11          6           0       -3.011890    1.184330    0.094780
     12          1           0        1.516180    2.302520    0.026720
     13          1           0       -0.885130    2.861310    0.097370
     14          1           0        0.497780   -1.859930   -0.043220
     15          1           0       -3.921360   -2.135470   -0.017770
     16          1           0       -3.519640   -1.122090    1.391390
     17          1           0       -3.635570   -0.130340   -1.496820
     18          1           0       -4.888260    0.156480   -0.276450
     19          1           0       -3.322590    1.422030    1.117380
     20          1           0       -3.186600    2.072620   -0.515350
 ---------------------------------------------------------------------
                    Distance matrix (angstroms):
                    1          2          3          4          5
     1  Br   0.000000
     2  C    1.904204   0.000000
     3  C    2.851306   1.384436   0.000000
     4  C    4.137876   2.376311   1.381936   0.000000
     5  C    4.675454   2.771281   2.419534   1.387684   0.000000
     6  C    4.149970   2.394982   2.789159   2.397749   1.397828
     7  C    2.842216   1.378772   2.411406   2.763565   2.417763
     8  O    5.168472   3.603139   4.144363   3.668754   2.431402
     9  C    6.452751   4.750477   4.992257   4.163678   2.780354
    10  C    6.826968   4.986020   4.859299   3.756595   2.474161
    11  C    6.179531   4.275505   3.799111   2.519438   1.504574
    12  H    2.960182   2.144958   1.078249   2.145925   3.397297
    13  H    4.982178   3.356828   2.130999   1.080123   2.130528
    14  H    2.965227   2.150201   3.394451   3.841539   3.387104
    15  H    7.165188   5.574684   5.950450   5.186496   3.804655
    16  H    6.737090   5.046804   5.221372   4.370333   3.072669
    17  H    6.775771   5.013971   4.948372   3.956799   2.789489
    18  H    7.894624   6.038774   5.830441   4.637767   3.427360
    19  H    6.648461   4.771480   4.237305   2.966373   2.136837
    20  H    6.618478   4.748801   4.033227   2.687514   2.137208
                    6          7          8          9         10
     6  C    0.000000
     7  C    1.394092   0.000000
     8  O    1.357471   2.335219   0.000000
     9  C    2.359856   3.618032   1.415207   0.000000
    10  C    2.763221   4.134293   2.436080   1.523199   0.000000
    11  C    2.514885   3.795906   2.913450   2.471409   1.525563
    12  H    3.867392   3.387028   5.222291   6.048210   5.829565
    13  H    3.373770   3.843669   4.552931   4.809644   4.131907
    14  H    2.134776   1.078087   2.527541   3.930679   4.718283
    15  H    3.220583   4.334141   2.001822   1.092541   2.178453
    16  H    2.794288   3.993725   2.057356   1.099043   2.160123
    17  H    2.955239   4.180376   2.663943   2.143359   1.091911
    18  H    3.813332   5.197163   3.364858   2.152648   1.089529
    19  H    3.093620   4.332727   3.417073   2.793118   2.157941
    20  H    3.333562   4.490569   3.853624   3.430078   2.167742
                   11         12         13         14         15
    11  C    0.000000
    12  H    4.664590   0.000000
    13  H    2.708390   2.466481   0.000000
    14  H    4.648048   4.285793   4.921617   0.000000
    15  H    3.443962   7.018873   5.848056   4.427795   0.000000
    16  H    2.694175   6.240974   4.947990   4.329224   1.781586
    17  H    2.156507   5.897500   4.365356   4.710522   2.507950
    18  H    2.171417   6.761232   4.845709   5.755843   2.500969
    19  H    1.094873   5.037708   3.008847   5.168509   3.781917
    20  H    1.091715   4.739497   2.508829   5.409484   4.300637
                   16         17         18         19         20
    16  H    0.000000
    17  H    3.055939   0.000000
    18  H    2.507898   1.772230   0.000000
    19  H    2.566409   3.056444   2.448612   0.000000
    20  H    3.735337   2.453139   2.573774   1.762830   0.000000
 Stoichiometry    C9H9BrO(1-,2)
 Framework group  C1[X(C9H9BrO)]
 Deg. of freedom    54
 Full point group                 C1      NOp   1
 Largest Abelian subgroup         C1      NOp   1
 Largest concise Abelian subgroup C1      NOp   1
                         Standard orientation:                         
 ---------------------------------------------------------------------
 Center     Atomic      Atomic             Coordinates (Angstroms)
 Number     Number       Type             X           Y           Z
 ---------------------------------------------------------------------
      1         35           0       -3.001707   -0.254224    0.036626
      2          6           0       -1.151362    0.192322   -0.016413
      3          6           0       -0.774972    1.523637   -0.067322
      4          6           0        0.573462    1.825251   -0.089740
      5          6           0        1.544060    0.833587   -0.075338
      6          6           0        1.139909   -0.504211   -0.045663
      7          6           0       -0.217009   -0.821525   -0.005947
      8          8           0        2.000061   -1.554331   -0.035009
      9          6           0        3.365359   -1.258883   -0.261911
     10          6           0        3.806372   -0.002061    0.477033
     11          6           0        3.008461    1.178851   -0.067141
     12          1           0       -1.518205    2.304683   -0.081225
     13          1           0        0.884896    2.859186   -0.115334
     14          1           0       -0.508195   -1.858885    0.031035
     15          1           0        3.910282   -2.141648    0.080770
     16          1           0        3.533767   -1.136281   -1.341033
     17          1           0        3.603361   -0.127038    1.542602
     18          1           0        4.876649    0.150293    0.341509
     19          1           0        3.336520    1.409783   -1.085863
     20          1           0        3.174517    2.070583    0.540380
 ---------------------------------------------------------------------
 Rotational constants (GHZ):           2.4510255           0.3732244           0.3280302
 Standard basis: MIDIx (5D, 7F)
 There are   143 symmetry adapted cartesian basis functions of A   symmetry.
 There are   140 symmetry adapted basis functions of A   symmetry.
   140 basis functions,   246 primitive gaussians,   143 cartesian basis functions
    54 alpha electrons       53 beta electrons
       nuclear repulsion energy       827.5070561860 Hartrees.
 NAtoms=   20 NActive=   20 NUniq=   20 SFac= 1.00D+00 NAtFMM=   60 NAOKFM=F Big=F
 Integral buffers will be    131072 words long.
 Raffenetti 2 integral format.
 Two-electron integral symmetry is turned on.
 Nuclear repulsion after empirical dispersion term =      827.4947897399 Hartrees.
 One-electron integrals computed using PRISM.
 NBasis=   140 RedAO= T EigKep=  1.05D-03  NBF=   140
 NBsUse=   140 1.00D-06 EigRej= -1.00D+00 NBFU=   140
 ExpMin= 1.47D-01 ExpMax= 6.10D+03 ExpMxC= 6.10D+03 IAcc=3 IRadAn=         5 AccDes= 0.00D+00
 Harris functional with IExCor= 4639 and IRadAn=       5 diagonalized for initial guess.
 HarFok:  IExCor= 4639 AccDes= 0.00D+00 IRadAn=         5 IDoV= 1 UseB2=F ITyADJ=14
 ICtDFT=  3500011 ScaDFX=  1.000000  1.000000  1.000000  1.000000
 FoFCou: FMM=F IPFlag=           0 FMFlag=      100000 FMFlg1=           0
         NFxFlg=           0 DoJE=T BraDBF=F KetDBF=T FulRan=T
         wScrn=  0.000000 ICntrl=       500 IOpCl=  0 I1Cent=   200000004 NGrid=           0
         NMat0=    1 NMatS0=      1 NMatT0=    0 NMatD0=    1 NMtDS0=    0 NMtDT0=    0
 Petite list used in FoFCou.
 Initial guess <Sx>= 0.0000 <Sy>= 0.0000 <Sz>= 0.5000 <S**2>= 0.7500 S= 0.5000
 Requested convergence on RMS density matrix=1.00D-08 within 128 cycles.
 Requested convergence on MAX density matrix=1.00D-06.
 Requested convergence on             energy=1.00D-06.
 No special actions if energy rises.
 Integral accuracy reduced to 1.0D-05 until final iterations.
 Initial convergence to 1.0D-05 achieved.  Increase integral accuracy.
 SCF Done:  E(UwB97XD) =  -2982.97990012     A.U. after   32 cycles
            NFock= 32  Conv=0.83D-08     -V/T= 2.0019
 <Sx>= 0.0000 <Sy>= 0.0000 <Sz>= 0.5000 <S**2>= 0.7634 S= 0.5067
 <L.S>= 0.000000000000E+00
 Annihilation of the first spin contaminant:
 S**2 before annihilation     0.7634,   after     0.7501

 **********************************************************************

            Population analysis using the SCF Density.

 **********************************************************************

 Orbital symmetries:
 Alpha Orbitals:
       Occupied  (A) (A) (A) (A) (A) (A) (A) (A) (A) (A) (A) (A)
                 (A) (A) (A) (A) (A) (A) (A) (A) (A) (A) (A) (A)
                 (A) (A) (A) (A) (A) (A) (A) (A) (A) (A) (A) (A)
                 (A) (A) (A) (A) (A) (A) (A) (A) (A) (A) (A) (A)
                 (A) (A) (A) (A) (A) (A)
       Virtual   (A) (A) (A) (A) (A) (A) (A) (A) (A) (A) (A) (A)
                 (A) (A) (A) (A) (A) (A) (A) (A) (A) (A) (A) (A)
                 (A) (A) (A) (A) (A) (A) (A) (A) (A) (A) (A) (A)
                 (A) (A) (A) (A) (A) (A) (A) (A) (A) (A) (A) (A)
                 (A) (A) (A) (A) (A) (A) (A) (A) (A) (A) (A) (A)
                 (A) (A) (A) (A) (A) (A) (A) (A) (A) (A) (A) (A)
                 (A) (A) (A) (A) (A) (A) (A) (A) (A) (A) (A) (A)
                 (A) (A)
 Beta  Orbitals:
       Occupied  (A) (A) (A) (A) (A) (A) (A) (A) (A) (A) (A) (A)
                 (A) (A) (A) (A) (A) (A) (A) (A) (A) (A) (A) (A)
                 (A) (A) (A) (A) (A) (A) (A) (A) (A) (A) (A) (A)
                 (A) (A) (A) (A) (A) (A) (A) (A) (A) (A) (A) (A)
                 (A) (A) (A) (A) (A)
       Virtual   (A) (A) (A) (A) (A) (A) (A) (A) (A) (A) (A) (A)
                 (A) (A) (A) (A) (A) (A) (A) (A) (A) (A) (A) (A)
                 (A) (A) (A) (A) (A) (A) (A) (A) (A) (A) (A) (A)
                 (A) (A) (A) (A) (A) (A) (A) (A) (A) (A) (A) (A)
                 (A) (A) (A) (A) (A) (A) (A) (A) (A) (A) (A) (A)
                 (A) (A) (A) (A) (A) (A) (A) (A) (A) (A) (A) (A)
                 (A) (A) (A) (A) (A) (A) (A) (A) (A) (A) (A) (A)
                 (A) (A) (A)
 The electronic state is 2-A.
 Alpha  occ. eigenvalues -- -479.96782 -62.40168 -55.99020 -55.98673 -55.98648
 Alpha  occ. eigenvalues --  -19.01512 -10.15030 -10.10337 -10.09914 -10.08076
 Alpha  occ. eigenvalues --  -10.06125 -10.04007 -10.01888 -10.01355 -10.00931
 Alpha  occ. eigenvalues --   -8.70981  -6.49302  -6.48136  -6.48098  -2.59643
 Alpha  occ. eigenvalues --   -2.59232  -2.59176  -2.58218  -2.58213  -1.01059
 Alpha  occ. eigenvalues --   -0.78229  -0.76753  -0.72244  -0.67358  -0.64881
 Alpha  occ. eigenvalues --   -0.59819  -0.56720  -0.52019  -0.49003  -0.43639
 Alpha  occ. eigenvalues --   -0.42383  -0.41809  -0.37885  -0.36795  -0.34949
 Alpha  occ. eigenvalues --   -0.33164  -0.32230  -0.31518  -0.29506  -0.28066
 Alpha  occ. eigenvalues --   -0.27055  -0.24774  -0.24024  -0.21662  -0.19815
 Alpha  occ. eigenvalues --   -0.19007  -0.13291  -0.11280   0.06959
 Alpha virt. eigenvalues --    0.27309   0.27523   0.29978   0.33570   0.35067
 Alpha virt. eigenvalues --    0.36166   0.37192   0.38309   0.38860   0.41227
 Alpha virt. eigenvalues --    0.41736   0.43151   0.44890   0.47004   0.48786
 Alpha virt. eigenvalues --    0.52010   0.56505   0.59479   0.60771   0.62864
 Alpha virt. eigenvalues --    0.65984   0.73802   0.74739   0.77349   0.78370
 Alpha virt. eigenvalues --    0.79499   0.81415   0.81821   0.82722   0.83443
 Alpha virt. eigenvalues --    0.84856   0.85528   0.87154   0.88876   0.91876
 Alpha virt. eigenvalues --    0.94055   0.95099   0.96311   0.98306   1.01221
 Alpha virt. eigenvalues --    1.01608   1.04288   1.05790   1.07923   1.10469
 Alpha virt. eigenvalues --    1.12819   1.12950   1.14074   1.14573   1.15158
 Alpha virt. eigenvalues --    1.16155   1.17582   1.18325   1.19724   1.20336
 Alpha virt. eigenvalues --    1.21077   1.22715   1.23122   1.23520   1.24152
 Alpha virt. eigenvalues --    1.26316   1.29171   1.29899   1.31767   1.35755
 Alpha virt. eigenvalues --    1.38835   1.44244   1.47675   1.53369   1.60375
 Alpha virt. eigenvalues --    1.62834   1.73332   1.75234   1.75830   1.83964
 Alpha virt. eigenvalues --    1.86105   1.88541   1.98610   2.10227   2.10382
 Alpha virt. eigenvalues --    2.13805   2.16613   2.24417   2.42476   2.69001
 Alpha virt. eigenvalues --    2.88658
  Beta  occ. eigenvalues -- -479.96783 -62.40167 -55.99027 -55.98673 -55.98639
  Beta  occ. eigenvalues --  -19.01533 -10.15031 -10.10466 -10.09906 -10.08113
  Beta  occ. eigenvalues --  -10.05712 -10.04153 -10.01509 -10.00984 -10.00550
  Beta  occ. eigenvalues --   -8.70981  -6.49314  -6.48136  -6.48085  -2.59649
  Beta  occ. eigenvalues --   -2.59238  -2.59168  -2.58212  -2.58207  -1.01112
  Beta  occ. eigenvalues --   -0.77533  -0.76611  -0.71861  -0.67139  -0.64142
  Beta  occ. eigenvalues --   -0.59555  -0.56434  -0.51211  -0.48808  -0.43440
  Beta  occ. eigenvalues --   -0.42129  -0.41488  -0.37776  -0.36553  -0.34670
  Beta  occ. eigenvalues --   -0.32926  -0.31793  -0.31256  -0.29128  -0.27529
  Beta  occ. eigenvalues --   -0.26679  -0.24203  -0.23723  -0.21465  -0.18978
  Beta  occ. eigenvalues --   -0.18897  -0.10178  -0.09469
  Beta virt. eigenvalues --    0.27494   0.27926   0.28546   0.30061   0.33914
  Beta virt. eigenvalues --    0.35108   0.36569   0.37291   0.38654   0.38968
  Beta virt. eigenvalues --    0.41529   0.42122   0.43486   0.46903   0.47266
  Beta virt. eigenvalues --    0.49337   0.52230   0.56951   0.59972   0.61205
  Beta virt. eigenvalues --    0.63448   0.66355   0.73987   0.75075   0.77615
  Beta virt. eigenvalues --    0.78548   0.79661   0.81511   0.82333   0.82860
  Beta virt. eigenvalues --    0.83573   0.85063   0.85782   0.87416   0.89231
  Beta virt. eigenvalues --    0.91979   0.94307   0.95311   0.96612   0.98433
  Beta virt. eigenvalues --    1.01328   1.01729   1.04613   1.06651   1.08404
  Beta virt. eigenvalues --    1.10584   1.13011   1.13593   1.14220   1.14881
  Beta virt. eigenvalues --    1.15525   1.16498   1.17866   1.18603   1.19875
  Beta virt. eigenvalues --    1.20609   1.21506   1.23181   1.23374   1.24256
  Beta virt. eigenvalues --    1.24630   1.26947   1.29858   1.30525   1.32015
  Beta virt. eigenvalues --    1.36076   1.39579   1.44486   1.47813   1.53595
  Beta virt. eigenvalues --    1.60605   1.62976   1.73490   1.75444   1.75890
  Beta virt. eigenvalues --    1.84236   1.86245   1.88735   1.98902   2.10289
  Beta virt. eigenvalues --    2.10482   2.13803   2.16605   2.24570   2.42592
  Beta virt. eigenvalues --    2.68973   2.88578
          Condensed to atoms (all electrons):
               1          2          3          4          5          6
     1  Br  35.149094   0.168565  -0.036106   0.001972   0.000484   0.001605
     2  C    0.168565   5.305598   0.492532  -0.061698  -0.035077  -0.012565
     3  C   -0.036106   0.492532   4.896265   0.531101  -0.031130  -0.027886
     4  C    0.001972  -0.061698   0.531101   5.106600   0.326223  -0.012462
     5  C    0.000484  -0.035077  -0.031130   0.326223   5.375695   0.479675
     6  C    0.001605  -0.012565  -0.027886  -0.012462   0.479675   4.574574
     7  C   -0.030183   0.316749  -0.042223  -0.010883  -0.060011   0.525836
     8  O   -0.000015   0.003081  -0.000018   0.002102  -0.041023   0.226951
     9  C    0.000001  -0.000239   0.000046  -0.000172  -0.001813  -0.048881
    10  C   -0.000000  -0.000029  -0.000046   0.001363  -0.063065  -0.022337
    11  C    0.000003   0.000988   0.000637  -0.021445   0.329297  -0.021653
    12  H   -0.000471  -0.029065   0.397270  -0.022924   0.003669   0.000182
    13  H   -0.000100   0.004103  -0.027682   0.401782  -0.031699   0.002982
    14  H   -0.002451  -0.027093   0.003594  -0.000294   0.005582  -0.027264
    15  H   -0.000000   0.000001   0.000000   0.000011  -0.000745   0.004883
    16  H   -0.000000   0.000003  -0.000011  -0.000063   0.002448  -0.001369
    17  H   -0.000000   0.000004   0.000002  -0.000233   0.000878   0.002342
    18  H    0.000000   0.000000  -0.000001   0.000021   0.006845   0.000384
    19  H   -0.000000  -0.000052  -0.000080   0.001937  -0.053128  -0.001176
    20  H   -0.000000  -0.000032   0.000262  -0.001128  -0.047557   0.002271
               7          8          9         10         11         12
     1  Br  -0.030183  -0.000015   0.000001  -0.000000   0.000003  -0.000471
     2  C    0.316749   0.003081  -0.000239  -0.000029   0.000988  -0.029065
     3  C   -0.042223  -0.000018   0.000046  -0.000046   0.000637   0.397270
     4  C   -0.010883   0.002102  -0.000172   0.001363  -0.021445  -0.022924
     5  C   -0.060011  -0.041023  -0.001813  -0.063065   0.329297   0.003669
     6  C    0.525836   0.226951  -0.048881  -0.022337  -0.021653   0.000182
     7  C    5.193533  -0.052375   0.003904   0.000027  -0.000304   0.002981
     8  O   -0.052375   8.466560   0.194351  -0.029803  -0.013341   0.000001
     9  C    0.003904   0.194351   4.915984   0.282524  -0.080269  -0.000000
    10  C    0.000027  -0.029803   0.282524   5.337506   0.315034   0.000001
    11  C   -0.000304  -0.013341  -0.080269   0.315034   5.153353  -0.000058
    12  H    0.002981   0.000001  -0.000000   0.000001  -0.000058   0.531319
    13  H    0.000227  -0.000027  -0.000004   0.000193  -0.009217  -0.006255
    14  H    0.397012   0.000150  -0.000029   0.000022  -0.000055  -0.000099
    15  H    0.000125  -0.030244   0.392168  -0.038732   0.007406   0.000000
    16  H    0.000167  -0.028190   0.378087  -0.051992  -0.012545  -0.000000
    17  H   -0.000417   0.001392  -0.036051   0.380060  -0.037402   0.000000
    18  H    0.000005   0.002711  -0.038174   0.373163  -0.044505  -0.000000
    19  H    0.000124   0.000507  -0.013863  -0.031366   0.356115   0.000002
    20  H    0.000014  -0.000029   0.009308  -0.034663   0.388910  -0.000008
              13         14         15         16         17         18
     1  Br  -0.000100  -0.002451  -0.000000  -0.000000  -0.000000   0.000000
     2  C    0.004103  -0.027093   0.000001   0.000003   0.000004   0.000000
     3  C   -0.027682   0.003594   0.000000  -0.000011   0.000002  -0.000001
     4  C    0.401782  -0.000294   0.000011  -0.000063  -0.000233   0.000021
     5  C   -0.031699   0.005582  -0.000745   0.002448   0.000878   0.006845
     6  C    0.002982  -0.027264   0.004883  -0.001369   0.002342   0.000384
     7  C    0.000227   0.397012   0.000125   0.000167  -0.000417   0.000005
     8  O   -0.000027   0.000150  -0.030244  -0.028190   0.001392   0.002711
     9  C   -0.000004  -0.000029   0.392168   0.378087  -0.036051  -0.038174
    10  C    0.000193   0.000022  -0.038732  -0.051992   0.380060   0.373163
    11  C   -0.009217  -0.000055   0.007406  -0.012545  -0.037402  -0.044505
    12  H   -0.006255  -0.000099   0.000000  -0.000000   0.000000  -0.000000
    13  H    0.569794   0.000010  -0.000000   0.000001   0.000003  -0.000010
    14  H    0.000010   0.534045  -0.000042   0.000016   0.000008  -0.000001
    15  H   -0.000000  -0.000042   0.566419  -0.040796  -0.005052  -0.001279
    16  H    0.000001   0.000016  -0.040796   0.593841   0.005956   0.000907
    17  H    0.000003   0.000008  -0.005052   0.005956   0.531871  -0.025084
    18  H   -0.000010  -0.000001  -0.001279   0.000907  -0.025084   0.588208
    19  H    0.000934   0.000003  -0.000304   0.006804   0.005716  -0.000007
    20  H    0.004628   0.000003  -0.000160  -0.000094  -0.005346  -0.003820
              19         20
     1  Br  -0.000000  -0.000000
     2  C   -0.000052  -0.000032
     3  C   -0.000080   0.000262
     4  C    0.001937  -0.001128
     5  C   -0.053128  -0.047557
     6  C   -0.001176   0.002271
     7  C    0.000124   0.000014
     8  O    0.000507  -0.000029
     9  C   -0.013863   0.009308
    10  C   -0.031366  -0.034663
    11  C    0.356115   0.388910
    12  H    0.000002  -0.000008
    13  H    0.000934   0.004628
    14  H    0.000003   0.000003
    15  H   -0.000304  -0.000160
    16  H    0.006804  -0.000094
    17  H    0.005716  -0.005346
    18  H   -0.000007  -0.003820
    19  H    0.646244  -0.052557
    20  H   -0.052557   0.599106
          Atomic-Atomic Spin Densities.
               1          2          3          4          5          6
     1  Br   0.010185  -0.016728  -0.001320   0.000300  -0.000076   0.000082
     2  C   -0.016728   0.549326   0.004807  -0.033464   0.015484  -0.005663
     3  C   -0.001320   0.004807  -0.159937   0.008027  -0.005608   0.004643
     4  C    0.000300  -0.033464   0.008027   0.514862  -0.171318  -0.004802
     5  C   -0.000076   0.015484  -0.005608  -0.171318   0.515654   0.000518
     6  C    0.000082  -0.005663   0.004643  -0.004802   0.000518  -0.134072
     7  C    0.002147  -0.188789  -0.004567   0.016089  -0.030114   0.004305
     8  O   -0.000000   0.000142  -0.000019   0.000104  -0.000542   0.011568
     9  C    0.000000   0.000003   0.000014  -0.000165  -0.001235   0.002236
    10  C   -0.000000   0.000012  -0.000012   0.000133   0.001992   0.000270
    11  C   -0.000000  -0.000002   0.000175  -0.008446   0.021887  -0.003682
    12  H    0.000133  -0.000674   0.002239  -0.000825   0.000138  -0.000034
    13  H   -0.000001   0.000085  -0.001917   0.003139  -0.002425   0.000045
    14  H    0.000475  -0.001761  -0.000014  -0.000035   0.000012  -0.002223
    15  H    0.000000   0.000000   0.000000  -0.000000  -0.000074   0.000020
    16  H    0.000000  -0.000009  -0.000000   0.000064  -0.000959  -0.000747
    17  H   -0.000000   0.000010  -0.000002  -0.000140   0.001913   0.000019
    18  H   -0.000000   0.000000  -0.000000  -0.000016   0.000811  -0.000051
    19  H    0.000000  -0.000056  -0.000053   0.006274  -0.020331  -0.000038
    20  H    0.000000  -0.000041   0.000085   0.004254  -0.016454   0.000045
               7          8          9         10         11         12
     1  Br   0.002147  -0.000000   0.000000  -0.000000  -0.000000   0.000133
     2  C   -0.188789   0.000142   0.000003   0.000012  -0.000002  -0.000674
     3  C   -0.004567  -0.000019   0.000014  -0.000012   0.000175   0.002239
     4  C    0.016089   0.000104  -0.000165   0.000133  -0.008446  -0.000825
     5  C   -0.030114  -0.000542  -0.001235   0.001992   0.021887   0.000138
     6  C    0.004305   0.011568   0.002236   0.000270  -0.003682  -0.000034
     7  C    0.538933  -0.002269   0.000203  -0.000267   0.000024   0.000151
     8  O   -0.002269  -0.008200  -0.009682   0.003454  -0.001187  -0.000000
     9  C    0.000203  -0.009682   0.027626  -0.014733   0.012605   0.000000
    10  C   -0.000267   0.003454  -0.014733   0.015851  -0.005770  -0.000000
    11  C    0.000024  -0.001187   0.012605  -0.005770  -0.016842   0.000001
    12  H    0.000151  -0.000000   0.000000  -0.000000   0.000001   0.003937
    13  H   -0.000056   0.000000   0.000003  -0.000022   0.000685   0.000245
    14  H    0.002010   0.000349  -0.000025   0.000001   0.000001   0.000001
    15  H    0.000008  -0.000796   0.002261  -0.001593   0.000320   0.000000
    16  H    0.000141   0.001603  -0.005069   0.003419  -0.001916  -0.000000
    17  H   -0.000097   0.000248  -0.001798   0.000594  -0.000928  -0.000000
    18  H   -0.000004   0.000173  -0.004272  -0.002821  -0.003255  -0.000000
    19  H    0.000164   0.000407  -0.007687   0.004730  -0.028224  -0.000000
    20  H    0.000096  -0.000090   0.002067   0.000853   0.001223   0.000001
              13         14         15         16         17         18
     1  Br  -0.000001   0.000475   0.000000   0.000000  -0.000000  -0.000000
     2  C    0.000085  -0.001761   0.000000  -0.000009   0.000010   0.000000
     3  C   -0.001917  -0.000014   0.000000  -0.000000  -0.000002  -0.000000
     4  C    0.003139  -0.000035  -0.000000   0.000064  -0.000140  -0.000016
     5  C   -0.002425   0.000012  -0.000074  -0.000959   0.001913   0.000811
     6  C    0.000045  -0.002223   0.000020  -0.000747   0.000019  -0.000051
     7  C   -0.000056   0.002010   0.000008   0.000141  -0.000097  -0.000004
     8  O    0.000000   0.000349  -0.000796   0.001603   0.000248   0.000173
     9  C    0.000003  -0.000025   0.002261  -0.005069  -0.001798  -0.004272
    10  C   -0.000022   0.000001  -0.001593   0.003419   0.000594  -0.002821
    11  C    0.000685   0.000001   0.000320  -0.001916  -0.000928  -0.003255
    12  H    0.000245   0.000001   0.000000  -0.000000  -0.000000  -0.000000
    13  H   -0.020665   0.000000   0.000000  -0.000000  -0.000001  -0.000000
    14  H    0.000000  -0.019620   0.000000   0.000001   0.000000  -0.000000
    15  H    0.000000   0.000000   0.002620  -0.000892  -0.000241  -0.000627
    16  H   -0.000000   0.000001  -0.000892   0.001043   0.000110   0.000807
    17  H   -0.000001   0.000000  -0.000241   0.000110  -0.000347   0.001275
    18  H   -0.000000  -0.000000  -0.000627   0.000807   0.001275   0.009187
    19  H   -0.000099   0.000000  -0.000162   0.002026   0.000647   0.004290
    20  H    0.000066  -0.000000   0.000038  -0.000193  -0.001210  -0.002685
              19         20
     1  Br   0.000000   0.000000
     2  C   -0.000056  -0.000041
     3  C   -0.000053   0.000085
     4  C    0.006274   0.004254
     5  C   -0.020331  -0.016454
     6  C   -0.000038   0.000045
     7  C    0.000164   0.000096
     8  O    0.000407  -0.000090
     9  C   -0.007687   0.002067
    10  C    0.004730   0.000853
    11  C   -0.028224   0.001223
    12  H   -0.000000   0.000001
    13  H   -0.000099   0.000066
    14  H    0.000000  -0.000000
    15  H   -0.000162   0.000038
    16  H    0.002026  -0.000193
    17  H    0.000647  -0.001210
    18  H    0.004290  -0.002685
    19  H    0.089064  -0.022103
    20  H   -0.022103   0.049804
 Mulliken charges and spin densities:
               1          2
     1  Br  -0.252398  -0.004801
     2  C   -0.125775   0.322683
     3  C   -0.156525  -0.153460
     4  C   -0.241808   0.334037
     5  C   -0.165547   0.309273
     6  C    0.353907  -0.127562
     7  C   -0.244308   0.338106
     8  O   -0.702740  -0.004735
     9  C    0.043125   0.002350
    10  C   -0.417858   0.006092
    11  C   -0.310947  -0.033332
    12  H    0.123455   0.005314
    13  H    0.090338  -0.020918
    14  H    0.116884  -0.020825
    15  H    0.146342   0.000883
    16  H    0.146830  -0.000571
    17  H    0.181354   0.000053
    18  H    0.140636   0.002811
    19  H    0.134147   0.028849
    20  H    0.140891   0.015755
 Sum of Mulliken charges =  -1.00000   1.00000
 Mulliken charges and spin densities with hydrogens summed into heavy atoms:
               1          2
     1  Br  -0.252398  -0.004801
     2  C   -0.125775   0.322683
     3  C   -0.033070  -0.148147
     4  C   -0.151470   0.313119
     5  C   -0.165547   0.309273
     6  C    0.353907  -0.127562
     7  C   -0.127424   0.317281
     8  O   -0.702740  -0.004735
     9  C    0.336297   0.002662
    10  C   -0.095869   0.008956
    11  C   -0.035909   0.011272
 Electronic spatial extent (au):  <R**2>=           3060.6904
 Charge=             -1.0000 electrons
 Dipole moment (field-independent basis, Debye):
    X=              1.7871    Y=             -0.8470    Z=              0.0535  Tot=              1.9784
 Quadrupole moment (field-independent basis, Debye-Ang):
   XX=            -95.2943   YY=            -86.5582   ZZ=            -83.6916
   XY=             -2.4099   XZ=             -0.2623   YZ=              0.3336
 Traceless Quadrupole moment (field-independent basis, Debye-Ang):
   XX=             -6.7796   YY=              1.9565   ZZ=              4.8231
   XY=             -2.4099   XZ=             -0.2623   YZ=              0.3336
 Octapole moment (field-independent basis, Debye-Ang**2):
  XXX=            -76.2872  YYY=            -20.7896  ZZZ=              2.1754  XYY=            -38.9976
  XXY=            -13.1788  XXZ=             -1.7522  XZZ=            -29.4274  YZZ=             -9.2983
  YYZ=              1.4561  XYZ=              0.9765
 Hexadecapole moment (field-independent basis, Debye-Ang**3):
 XXXX=          -3021.5831 YYYY=           -643.7035 ZZZZ=           -121.9816 XXXY=            -30.3983
 XXXZ=            -15.5341 YYYX=              2.6537 YYYZ=              0.4345 ZZZX=             -3.3021
 ZZZY=              1.3485 XXYY=           -601.9075 XXZZ=           -516.3422 YYZZ=           -134.1903
 XXYZ=              2.0588 YYXZ=              1.6041 ZZXY=             -0.1181
 N-N= 8.274947897399D+02 E-N=-8.776484306138D+03  KE= 2.977223981749D+03
 There are a total of      455472 grid points.
 ElSum from          density=      107.0000208165
 ElSum from atomic densities=      106.0001216986
 Hirshfeld populations at iteration   1 (CA, CB, DipXYZ):
               1          2          3          4          5
     1  Br  17.617347  17.584837   0.128313   0.021726  -0.002592
     2  C    3.154843   2.930485  -0.050651  -0.027808   0.000689
     3  C    3.044685   3.057404  -0.017513   0.030537  -0.000429
     4  C    3.188350   2.967378   0.021619  -0.006450   0.001697
     5  C    3.165934   2.955520   0.037332   0.016236  -0.004087
     6  C    2.981286   2.979191   0.079840  -0.081150  -0.000490
     7  C    3.204718   2.975163   0.011998   0.021504   0.001793
     8  O    4.081672   4.088311   0.040744   0.122994  -0.023007
     9  C    2.984982   2.983520  -0.037308   0.006483   0.021683
    10  C    3.031847   3.025266  -0.023474  -0.010961  -0.031311
    11  C    3.041245   3.021225   0.008794  -0.023392   0.018310
    12  H    0.494072   0.495631  -0.084819   0.112895  -0.002337
    13  H    0.512477   0.495653   0.037644   0.128614  -0.003640
    14  H    0.509466   0.492130  -0.029624  -0.142150   0.005195
    15  H    0.490169   0.489541   0.069046  -0.104312   0.041406
    16  H    0.492117   0.491219   0.026542   0.009015  -0.120925
    17  H    0.491032   0.489249  -0.023613  -0.016545   0.135420
    18  H    0.497271   0.495156   0.123153   0.017731  -0.018135
    19  H    0.513866   0.492111   0.032203   0.026388  -0.105436
    20  H    0.502631   0.491020   0.019088   0.099722   0.069162
       Tot  54.000011  53.000010   0.369314   0.201079  -0.017035

 Dip from Atomic Chgs              0.333750  -0.534316   0.038134
         Total Dipole              0.703065  -0.333238   0.021099

 Hirshfeld charges, spin densities, dipoles, and CM5 charges using IRadAn=      5:
              Q-H        S-H        Dx         Dy         Dz        Q-CM5   
     1  Br  -0.202184   0.032510   0.128313   0.021726  -0.002592  -0.187469
     2  C   -0.085328   0.224358  -0.050651  -0.027808   0.000689  -0.106234
     3  C   -0.102089  -0.012719  -0.017513   0.030537  -0.000429  -0.156433
     4  C   -0.155728   0.220972   0.021619  -0.006450   0.001697  -0.209658
     5  C   -0.121454   0.210414   0.037332   0.016236  -0.004087  -0.132089
     6  C    0.039523   0.002095   0.079840  -0.081150  -0.000490   0.059008
     7  C   -0.179881   0.229555   0.011998   0.021504   0.001793  -0.228505
     8  O   -0.169983  -0.006639   0.040744   0.122994  -0.023007  -0.254543
     9  C    0.031498   0.001463  -0.037308   0.006483   0.021683  -0.048588
    10  C   -0.057113   0.006581  -0.023474  -0.010961  -0.031311  -0.164111
    11  C   -0.062470   0.020020   0.008794  -0.023392   0.018310  -0.165344
    12  H    0.010297  -0.001559  -0.084819   0.112895  -0.002337   0.067855
    13  H   -0.008131   0.016824   0.037644   0.128614  -0.003640   0.049433
    14  H   -0.001597   0.017336  -0.029624  -0.142150   0.005195   0.059527
    15  H    0.020290   0.000629   0.069046  -0.104312   0.041406   0.084159
    16  H    0.016664   0.000897   0.026542   0.009015  -0.120925   0.079848
    17  H    0.019719   0.001783  -0.023613  -0.016545   0.135420   0.077934
    18  H    0.007573   0.002115   0.123153   0.017731  -0.018135   0.062793
    19  H   -0.005977   0.021756   0.032203   0.026388  -0.105436   0.050141
    20  H    0.006349   0.011611   0.019088   0.099722   0.069162   0.062254
       Tot  -1.000021   1.000000   0.369314   0.201079  -0.017035  -1.000021
 Hirshfeld charges and spin densities with hydrogens summed into heavy atoms:
              Q-H        S-H       Q-CM5   
     1  Br  -0.202184   0.032510  -0.187469
     2  C   -0.085328   0.224358  -0.106234
     3  C   -0.091793  -0.014278  -0.088578
     4  C   -0.163859   0.237796  -0.160225
     5  C   -0.121454   0.210414  -0.132089
     6  C    0.039523   0.002095   0.059008
     7  C   -0.181478   0.246890  -0.168978
     8  O   -0.169983  -0.006639  -0.254543
     9  C    0.068452   0.002988   0.115419
    10  C   -0.029821   0.010479  -0.023384
    11  C   -0.062098   0.053387  -0.052949
 
 EQQ= 0.975923959671E-01 EQD=-0.387084402052E-01 EDD=-0.206701372871E-02
 EQQ+QD+DD= 0.568169420332E-01
 
                          Isotropic Fermi Contact Couplings
        Atom                 a.u.       MegaHertz       Gauss      10(-4) cm-1
     1  Br(79)            -0.00441      -4.95936      -1.76962      -1.65426
     2  C(13)              0.03251      36.54614      13.04057      12.19048
     3  C(13)             -0.02141     -24.07079      -8.58906      -8.02915
     4  C(13)              0.02697      30.31978      10.81885      10.11359
     5  C(13)              0.02719      30.56687      10.90702      10.19601
     6  C(13)             -0.02061     -23.16772      -8.26682      -7.72792
     7  C(13)              0.02740      30.80508      10.99202      10.27547
     8  O(17)             -0.00261       1.58315       0.56491       0.52808
     9  C(13)             -0.00028      -0.32025      -0.11427      -0.10682
    10  C(13)              0.00374       4.20194       1.49936       1.40162
    11  C(13)             -0.00958     -10.77197      -3.84371      -3.59314
    12  H(1)               0.00102       4.56600       1.62926       1.52305
    13  H(1)              -0.00398     -17.80954      -6.35489      -5.94062
    14  H(1)              -0.00411     -18.37390      -6.55627      -6.12887
    15  H(1)               0.00028       1.27020       0.45324       0.42369
    16  H(1)               0.00003       0.15309       0.05463       0.05106
    17  H(1)              -0.00003      -0.11910      -0.04250      -0.03973
    18  H(1)               0.00014       0.62762       0.22395       0.20935
    19  H(1)               0.00722      32.28114      11.51871      10.76783
    20  H(1)               0.00351      15.70884       5.60531       5.23991
 --------------------------------------------------------
       Center         ----  Spin Dipole Couplings  ----
                      3XX-RR        3YY-RR        3ZZ-RR
 --------------------------------------------------------
     1   Atom       -0.207137     -0.013400      0.220537
     2   Atom       -0.166614     -0.181557      0.348171
     3   Atom        0.046856      0.046451     -0.093306
     4   Atom       -0.163092     -0.152718      0.315810
     5   Atom       -0.158942     -0.167048      0.325990
     6   Atom        0.040794      0.039286     -0.080080
     7   Atom       -0.168955     -0.158665      0.327620
     8   Atom        0.021843      0.021416     -0.043259
     9   Atom        0.000799      0.001251     -0.002049
    10   Atom        0.003646     -0.000497     -0.003149
    11   Atom        0.009240     -0.003866     -0.005374
    12   Atom        0.002742      0.002781     -0.005523
    13   Atom       -0.021759      0.024490     -0.002731
    14   Atom       -0.023104      0.025697     -0.002593
    15   Atom        0.000628      0.000644     -0.001272
    16   Atom        0.001336      0.000449     -0.001785
    17   Atom        0.003010     -0.002115     -0.000895
    18   Atom        0.003066     -0.001664     -0.001402
    19   Atom        0.008045     -0.002920     -0.005125
    20   Atom        0.006237     -0.002470     -0.003767
 --------------------------------------------------------
                        XY            XZ            YZ
 --------------------------------------------------------
     1   Atom       -0.049494      0.021304      0.011473
     2   Atom       -0.002487      0.005414      0.021044
     3   Atom        0.007116     -0.001280     -0.004214
     4   Atom       -0.000648      0.004598      0.001661
     5   Atom       -0.002261     -0.001258      0.009542
     6   Atom        0.004916     -0.003261     -0.001709
     7   Atom       -0.000836      0.011753      0.016319
     8   Atom       -0.003105     -0.006643     -0.002317
     9   Atom       -0.004251     -0.000352     -0.000023
    10   Atom       -0.003329      0.001241      0.000095
    11   Atom        0.001415      0.000283      0.000536
    12   Atom        0.002720     -0.000170     -0.000361
    13   Atom        0.013177      0.000632      0.000129
    14   Atom        0.013215      0.000222     -0.001401
    15   Atom       -0.001583     -0.000007     -0.000124
    16   Atom       -0.002685     -0.001435      0.001346
    17   Atom       -0.002091      0.002873     -0.001976
    18   Atom       -0.001122      0.000221     -0.000088
    19   Atom        0.002835     -0.004053     -0.000250
    20   Atom        0.005257      0.002408      0.000302
 --------------------------------------------------------


 ---------------------------------------------------------------------------------
              Anisotropic Spin Dipole Couplings in Principal Axis System
 ---------------------------------------------------------------------------------

       Atom             a.u.   MegaHertz   Gauss  10(-4) cm-1        Axes

              Baa    -0.2203   -29.549   -10.544    -9.857  0.9705  0.2351 -0.0530
     1 Br(79) Bbb    -0.0017    -0.222    -0.079    -0.074 -0.2368  0.9712 -0.0274
              Bcc     0.2219    29.772    10.623     9.931  0.0450  0.0392  0.9982
 
              Baa    -0.1828   -24.536    -8.755    -8.184  0.1646  0.9855 -0.0407
     2 C(13)  Bbb    -0.1662   -22.305    -7.959    -7.440  0.9863 -0.1649 -0.0036
              Bcc     0.3491    46.841    16.714    15.624  0.0103  0.0396  0.9992
 
              Baa    -0.0934   -12.539    -4.474    -4.183  0.0076  0.0297  0.9995
     3 C(13)  Bbb     0.0396     5.310     1.895     1.771 -0.7000  0.7140 -0.0159
              Bcc     0.0539     7.229     2.580     2.411  0.7141  0.6995 -0.0262
 
              Baa    -0.1632   -21.897    -7.813    -7.304  0.9979  0.0634 -0.0098
     4 C(13)  Bbb    -0.1527   -20.488    -7.311    -6.834 -0.0634  0.9980 -0.0029
              Bcc     0.3159    42.385    15.124    14.138  0.0096  0.0035  0.9999
 
              Baa    -0.1678   -22.517    -8.035    -7.511  0.2449  0.9694 -0.0181
     5 C(13)  Bbb    -0.1584   -21.253    -7.584    -7.089  0.9695 -0.2448  0.0073
              Bcc     0.3262    43.770    15.618    14.600 -0.0027  0.0194  0.9998
 
              Baa    -0.0802   -10.761    -3.840    -3.589  0.0264  0.0132  0.9996
     6 C(13)  Bbb     0.0351     4.706     1.679     1.570 -0.6493  0.7605  0.0071
              Bcc     0.0451     6.054     2.160     2.019  0.7601  0.6492 -0.0287
 
              Baa    -0.1694   -22.729    -8.110    -7.582  0.9925  0.1191 -0.0274
     7 C(13)  Bbb    -0.1591   -21.345    -7.616    -7.120 -0.1199  0.9923 -0.0304
              Bcc     0.3284    44.074    15.727    14.701  0.0236  0.0334  0.9992
 
              Baa    -0.0440     3.186     1.137     1.063  0.1021  0.0400  0.9940
     8 O(17)  Bbb     0.0191    -1.383    -0.494    -0.461  0.6372  0.7647 -0.0963
              Bcc     0.0249    -1.803    -0.643    -0.601  0.7639 -0.6432 -0.0526
 
              Baa    -0.0033    -0.442    -0.158    -0.147  0.7126  0.6680  0.2145
     9 C(13)  Bbb    -0.0020    -0.268    -0.096    -0.089 -0.1349 -0.1696  0.9762
              Bcc     0.0053     0.710     0.253     0.237 -0.6885  0.7246  0.0307
 
              Baa    -0.0036    -0.487    -0.174    -0.163 -0.3147 -0.3607  0.8780
    10 C(13)  Bbb    -0.0020    -0.267    -0.095    -0.089  0.3728  0.8037  0.4638
              Bcc     0.0056     0.754     0.269     0.252  0.8729 -0.4733  0.1184
 
              Baa    -0.0055    -0.744    -0.266    -0.248  0.0117 -0.3126  0.9498
    11 C(13)  Bbb    -0.0039    -0.517    -0.184    -0.172 -0.1088  0.9438  0.3120
              Bcc     0.0094     1.261     0.450     0.421  0.9940  0.1070  0.0229
 
              Baa    -0.0055    -2.955    -1.055    -0.986  0.0070  0.0410  0.9991
    12 H(1)   Bbb     0.0000     0.024     0.008     0.008  0.7106 -0.7032  0.0239
              Bcc     0.0055     2.932     1.046     0.978  0.7035  0.7098 -0.0341
 
              Baa    -0.0253   -13.480    -4.810    -4.496  0.9664 -0.2559 -0.0256
    13 H(1)   Bbb    -0.0027    -1.451    -0.518    -0.484  0.0224 -0.0156  0.9996
              Bcc     0.0280    14.931     5.328     4.980  0.2562  0.9666  0.0093
 
              Baa    -0.0265   -14.121    -5.039    -4.710  0.9690 -0.2461 -0.0234
    14 H(1)   Bbb    -0.0026    -1.405    -0.501    -0.469  0.0328  0.0341  0.9989
              Bcc     0.0291    15.526     5.540     5.179  0.2450  0.9686 -0.0411
 
              Baa    -0.0013    -0.692    -0.247    -0.231  0.1645  0.1956  0.9668
    15 H(1)   Bbb    -0.0009    -0.492    -0.176    -0.164  0.6903  0.6773 -0.2545
              Bcc     0.0022     1.185     0.423     0.395 -0.7046  0.7092 -0.0236
 
              Baa    -0.0024    -1.301    -0.464    -0.434  0.1352 -0.3124  0.9403
    16 H(1)   Bbb    -0.0018    -0.968    -0.345    -0.323  0.6787  0.7206  0.1418
              Bcc     0.0043     2.269     0.810     0.757  0.7219 -0.6190 -0.3095
 
              Baa    -0.0036    -1.906    -0.680    -0.636 -0.0063  0.8015  0.5980
    17 H(1)   Bbb    -0.0020    -1.052    -0.375    -0.351 -0.5806 -0.4898  0.6503
              Bcc     0.0055     2.958     1.056     0.987  0.8141 -0.3431  0.4685
 
              Baa    -0.0019    -1.024    -0.365    -0.342  0.2158  0.9737  0.0733
    18 H(1)   Bbb    -0.0014    -0.753    -0.269    -0.251 -0.0643 -0.0607  0.9961
              Bcc     0.0033     1.777     0.634     0.593  0.9743 -0.2197  0.0495
 
              Baa    -0.0064    -3.398    -1.213    -1.133  0.2986 -0.1775  0.9377
    19 H(1)   Bbb    -0.0034    -1.835    -0.655    -0.612 -0.1555  0.9604  0.2313
              Bcc     0.0098     5.233     1.867     1.746  0.9416  0.2149 -0.2592
 
              Baa    -0.0054    -2.878    -1.027    -0.960 -0.4394  0.7370  0.5136
    20 H(1)   Bbb    -0.0037    -1.990    -0.710    -0.664  0.0805 -0.5372  0.8396
              Bcc     0.0091     4.868     1.737     1.624  0.8947  0.4103  0.1767
 

 ---------------------------------------------------------------------------------

 Running external command "gaunbo6 R"
         input file       "/home/rpaton/arbr500/xtb/fukui/Gau-2147933.EIn"
         output file      "/home/rpaton/arbr500/xtb/fukui/Gau-2147933.EOu"
         message file     "/home/rpaton/arbr500/xtb/fukui/Gau-2147933.EMs"
         fchk file        "/home/rpaton/arbr500/xtb/fukui/Gau-2147933.EFC"
         mat. el file     "/home/rpaton/arbr500/xtb/fukui/Gau-2147933.EUF"

 Writing WrtUnf unformatted file "/home/rpaton/arbr500/xtb/fukui/Gau-2147933.EUF"
 Gaussian matrix elements                                         Version   2 NLab=11 Len12L=8 Len4L=8
 Write SHELL TO ATOM MAP                   from file      0 offset           0 length                  80 to matrix element file.
 Write SHELL TYPES                         from file      0 offset           0 length                  80 to matrix element file.
 Write NUMBER OF PRIMITIVES PER SHELL      from file      0 offset           0 length                  80 to matrix element file.
 Write PRIMITIVE EXPONENTS                 from file      0 offset           0 length                 143 to matrix element file.
 Write CONTRACTION COEFFICIENTS            from file      0 offset           0 length                 143 to matrix element file.
 Write P(S=P) CONTRACTION COEFFICIENTS     from file      0 offset           0 length                 143 to matrix element file.
 Write COORDINATES OF EACH SHELL           from file      0 offset           0 length                 240 to matrix element file.
 Write BONDS PER ATOM                      from file      0 offset           0 length                  20 to matrix element file.
 Write BONDED ATOMS                        from file      0 offset           0 length                  42 to matrix element file.
 Write BOND TYPES                          from file      0 offset           0 length                  42 to matrix element file.
 Write ONIOM CHARGE/MULT                   from file      0 offset           0 length                  32 to matrix element file.
 Write ONIOM ATOM LAYERS                   from file      0 offset           0 length                  20 to matrix element file.
 Write ONIOM ATOM MODIFIERS                from file      0 offset           0 length                  20 to matrix element file.
 Write ONIOM ATOM TYPES                    from file      0 offset           0 length                  20 to matrix element file.
 Write ONIOM LINK ATOMS                    from file      0 offset           0 length                  20 to matrix element file.
 Write ONIOM LINK CHARGES                  from file      0 offset           0 length                  20 to matrix element file.
 Write ONIOM LINK DISTANCES                from file      0 offset           0 length                  80 to matrix element file.
 Write SYMINF INTS                         from file      0 offset           0 length                  26 to matrix element file.
 Write ROTTR TO SO                         from file      0 offset           0 length                  12 to matrix element file.
 Write GAUSSIAN SCALARS                    from file    501 offset           0 to matrix element file.
 Write OPTIMIZATION FLAGS                  from file      0 offset           0 length                  20 to matrix element file.
 Write INTEGER ISO                         from file      0 offset           0 length                  20 to matrix element file.
 Write INTEGER SPIN                        from file      0 offset           0 length                  20 to matrix element file.
 Write REAL ZEFFECTIVE                     from file      0 offset           0 length                  20 to matrix element file.
 Write REAL QUADRUPOLEMOMENT               from file      0 offset           0 length                  20 to matrix element file.
 Write REAL GFACTOR                        from file      0 offset           0 length                  20 to matrix element file.
 Write REAL ZNUCLEAR                       from file      0 offset           0 length                  20 to matrix element file.
 Write MULLIKEN CHARGES                    from file      0 offset           0 length                  20 to matrix element file.
 Write TYPE 6 CHARGES                      from file      0 offset           0 length                  20 to matrix element file.
 Write TYPE 7 CHARGES                      from file      0 offset           0 length                  20 to matrix element file.
 Write NUCLEAR GRADIENT                    from file  10584 offset           0 length                  60 to matrix element file.
 Array NUCLEAR FORCE CONSTANTS              on  file  10585 does not exist.
 Write ELECTRIC DIPOLE MOMENT              from file      0 offset           0 length                   3 to matrix element file.
 Write NON-ADIABATIC COUPLING              from file  10810 offset           0 length                  60 to matrix element file.
 Write FINITE EM FIELD                     from file  10521 offset           0 length                  35 to matrix element file.
 Write OVERLAP                             from file  10514 offset           0 length                9870 to matrix element file.
 Write CORE HAMILTONIAN ALPHA              from file  10515 offset           0 length                9870 to matrix element file.
 Write CORE HAMILTONIAN BETA               from file  10515 offset        9870 length                9870 to matrix element file.
 Write KINETIC ENERGY                      from file  10516 offset           0 length                9870 to matrix element file.
 Write ORTHOGONAL BASIS                    from file  10685 offset           0 length               19600 to matrix element file.
 Write DIPOLE INTEGRALS                    from file  10518 offset           0 length               29610 to matrix element file.
 Array DIP VEL INTEGRALS                    on  file  10572 does not exist.
 Array R X DEL INTEGRALS                    on  file  10572 does not exist.
 Write ALPHA ORBITAL ENERGIES              from file      0 offset           0 length                 140 to matrix element file.
 Write BETA ORBITAL ENERGIES               from file      0 offset           0 length                 140 to matrix element file.
 Write ALPHA MO COEFFICIENTS               from file  10524 offset           0 length               19600 to matrix element file.
 Write BETA MO COEFFICIENTS                from file  10526 offset           0 length               19600 to matrix element file.
 Write ALPHA DENSITY MATRIX                from file      0 offset           0 length                9870 to matrix element file.
 Write BETA DENSITY MATRIX                 from file      0 offset           0 length                9870 to matrix element file.
 Write ALPHA FOCK MATRIX                   from file  10536 offset           0 length                9870 to matrix element file.
 Write BETA FOCK MATRIX                    from file  10538 offset           0 length                9870 to matrix element file.
 Write ENERGY-WEIGHTED DENSITY             from file  10571 offset           0 length                9870 to matrix element file.
 Write ALPHA SCF DENSITY MATRIX            from file      0 offset           0 length                9870 to matrix element file.
 Write BETA SCF DENSITY MATRIX             from file      0 offset           0 length                9870 to matrix element file.
 No 2e integrals to process.
 Perform NBO analysis...

 *********************************** NBO 7.0 ***********************************
             N A T U R A L   A T O M I C   O R B I T A L   A N D
          N A T U R A L   B O N D   O R B I T A L   A N A L Y S I S
 **************************** Robert Paton (I101709) ***************************
  (c) Copyright 1996-2019 Board of Regents of the University of Wisconsin System
      on behalf of the Theoretical Chemistry Institute.  All rights reserved.

          Cite this program [NBO 7.0.5 (4-Jun-2019)] as:

          NBO 7.0.  E. D. Glendening, J. K. Badenhoop, A. E. Reed,
          J. E. Carpenter, J. A. Bohmann, C. M. Morales, P. Karafiloglou,
          C. R. Landis, and F. Weinhold, Theoretical Chemistry Institute,
          University of Wisconsin, Madison, WI (2018)

 Filename set to /home/rpaton/arbr500/xtb/fukui/Gau-2147933

 Job title:  energy: -32.024707278763 gnorm: 0.000396726366 xtb: 6.7.0 (08769fc)


 NATURAL POPULATIONS:  Natural atomic orbital occupancies

  NAO Atom No lang   Type(AO)    Occupancy     Spin
 -----------------------------------------------------
   1   Br  1  s      Cor( 3s)     2.00000     0.00000
   2   Br  1  s      Cor( 1s)     2.00000     0.00000
   3   Br  1  s      Cor( 2s)     1.99999     0.00000
   4   Br  1  s      Val( 4s)     1.86229     0.00028
   5   Br  1  s      Ryd( 5s)     0.00256     0.00010
   6   Br  1  px     Cor( 3p)     2.00000     0.00000
   7   Br  1  px     Cor( 2p)     1.99999     0.00000
   8   Br  1  px     Val( 4p)     1.27021    -0.01353
   9   Br  1  px     Ryd( 5p)     0.00284     0.00006
  10   Br  1  py     Cor( 3p)     2.00000     0.00000
  11   Br  1  py     Cor( 2p)     1.99999     0.00000
  12   Br  1  py     Val( 4p)     1.94494    -0.00079
  13   Br  1  py     Ryd( 5p)     0.00126     0.00001
  14   Br  1  pz     Cor( 3p)     2.00000     0.00000
  15   Br  1  pz     Cor( 2p)     2.00000     0.00000
  16   Br  1  pz     Val( 4p)     1.97310     0.01181
  17   Br  1  pz     Ryd( 5p)     0.00098     0.00041
  18   Br  1  dxy    Cor( 3d)     1.99964     0.00000
  19   Br  1  dxy    Ryd( 4d)     0.00133    -0.00003
  20   Br  1  dxz    Cor( 3d)     1.99989     0.00001
  21   Br  1  dxz    Ryd( 4d)     0.00438     0.00195
  22   Br  1  dyz    Cor( 3d)     1.99999     0.00000
  23   Br  1  dyz    Ryd( 4d)     0.00059     0.00039
  24   Br  1  dx2y2  Cor( 3d)     1.99948     0.00000
  25   Br  1  dx2y2  Ryd( 4d)     0.00366    -0.00004
  26   Br  1  dz2    Cor( 3d)     1.99980     0.00000
  27   Br  1  dz2    Ryd( 4d)     0.00147     0.00000

  28    C  2  s      Cor( 1s)     1.99988     0.00000
  29    C  2  s      Val( 2s)     0.89889     0.01101
  30    C  2  s      Ryd( 3s)     0.00050    -0.00001
  31    C  2  px     Val( 2p)     0.92675     0.00877
  32    C  2  px     Ryd( 3p)     0.00563     0.00001
  33    C  2  py     Val( 2p)     1.10438     0.00422
  34    C  2  py     Ryd( 3p)     0.00643     0.00002
  35    C  2  pz     Val( 2p)     1.28480     0.26409
  36    C  2  pz     Ryd( 3p)     0.00194     0.00145

  37    C  3  s      Cor( 1s)     1.99986     0.00000
  38    C  3  s      Val( 2s)     0.92749    -0.00655
  39    C  3  s      Ryd( 3s)     0.00069     0.00002
  40    C  3  px     Val( 2p)     1.14423    -0.00679
  41    C  3  px     Ryd( 3p)     0.00591     0.00005
  42    C  3  py     Val( 2p)     1.14044    -0.00692
  43    C  3  py     Ryd( 3p)     0.00479     0.00004
  44    C  3  pz     Val( 2p)     1.04362    -0.07479
  45    C  3  pz     Ryd( 3p)     0.00062    -0.00014

  46    C  4  s      Cor( 1s)     1.99985     0.00000
  47    C  4  s      Val( 2s)     0.90193     0.00953
  48    C  4  s      Ryd( 3s)     0.00074     0.00000
  49    C  4  px     Val( 2p)     1.07822     0.00413
  50    C  4  px     Ryd( 3p)     0.00526     0.00005
  51    C  4  py     Val( 2p)     1.16495     0.00457
  52    C  4  py     Ryd( 3p)     0.00455     0.00002
  53    C  4  pz     Val( 2p)     1.21564     0.27245
  54    C  4  pz     Ryd( 3p)     0.00382     0.00356

  55    C  5  s      Cor( 1s)     1.99990     0.00000
  56    C  5  s      Val( 2s)     0.82331     0.00898
  57    C  5  s      Ryd( 3s)     0.00097     0.00008
  58    C  5  px     Val( 2p)     1.05513     0.00437
  59    C  5  px     Ryd( 3p)     0.00345     0.00003
  60    C  5  py     Val( 2p)     1.10071     0.00392
  61    C  5  py     Ryd( 3p)     0.00460    -0.00001
  62    C  5  pz     Val( 2p)     1.26190     0.25207
  63    C  5  pz     Ryd( 3p)     0.00316     0.00151

  64    C  6  s      Cor( 1s)     1.99986     0.00000
  65    C  6  s      Val( 2s)     0.80900    -0.00648
  66    C  6  s      Ryd( 3s)     0.00120    -0.00002
  67    C  6  px     Val( 2p)     0.95848    -0.00586
  68    C  6  px     Ryd( 3p)     0.00476     0.00000
  69    C  6  py     Val( 2p)     0.90053    -0.00469
  70    C  6  py     Ryd( 3p)     0.00967     0.00001
  71    C  6  pz     Val( 2p)     0.99533    -0.05599
  72    C  6  pz     Ryd( 3p)     0.00083     0.00000

  73    C  7  s      Cor( 1s)     1.99985     0.00000
  74    C  7  s      Val( 2s)     0.91178     0.00951
  75    C  7  s      Ryd( 3s)     0.00111     0.00002
  76    C  7  px     Val( 2p)     1.07177     0.00385
  77    C  7  px     Ryd( 3p)     0.00669     0.00005
  78    C  7  py     Val( 2p)     1.19107     0.00451
  79    C  7  py     Ryd( 3p)     0.00399     0.00003
  80    C  7  pz     Val( 2p)     1.27070     0.27850
  81    C  7  pz     Ryd( 3p)     0.00478     0.00426

  82    O  8  s      Cor( 1s)     1.99985     0.00000
  83    O  8  s      Val( 2s)     1.57658    -0.00024
  84    O  8  s      Ryd( 3s)     0.00084     0.00004
  85    O  8  px     Val( 2p)     1.38150     0.00052
  86    O  8  px     Ryd( 3p)     0.00054     0.00001
  87    O  8  py     Val( 2p)     1.69183     0.00065
  88    O  8  py     Ryd( 3p)     0.00150     0.00000
  89    O  8  pz     Val( 2p)     1.84170    -0.00700
  90    O  8  pz     Ryd( 3p)     0.00100    -0.00003
  91    O  8  dxy    Ryd( 3d)     0.00383     0.00001
  92    O  8  dxz    Ryd( 3d)     0.00066    -0.00001
  93    O  8  dyz    Ryd( 3d)     0.00199     0.00003
  94    O  8  dx2y2  Ryd( 3d)     0.00246     0.00000
  95    O  8  dz2    Ryd( 3d)     0.00245     0.00000

  96    C  9  s      Cor( 1s)     1.99977     0.00000
  97    C  9  s      Val( 2s)     1.02122     0.00017
  98    C  9  s      Ryd( 3s)     0.00174     0.00008
  99    C  9  px     Val( 2p)     0.78956     0.00053
 100    C  9  px     Ryd( 3p)     0.00354     0.00016
 101    C  9  py     Val( 2p)     1.12740     0.00001
 102    C  9  py     Ryd( 3p)     0.00385     0.00011
 103    C  9  pz     Val( 2p)     1.18455    -0.00004
 104    C  9  pz     Ryd( 3p)     0.00147    -0.00001

 105    C 10  s      Cor( 1s)     1.99978     0.00000
 106    C 10  s      Val( 2s)     1.03280     0.00088
 107    C 10  s      Ryd( 3s)     0.00077     0.00007
 108    C 10  px     Val( 2p)     1.19679     0.00013
 109    C 10  px     Ryd( 3p)     0.00218     0.00023
 110    C 10  py     Val( 2p)     1.07771     0.00173
 111    C 10  py     Ryd( 3p)     0.00127     0.00005
 112    C 10  pz     Val( 2p)     1.21042     0.00042
 113    C 10  pz     Ryd( 3p)     0.00099     0.00008

 114    C 11  s      Cor( 1s)     1.99975     0.00000
 115    C 11  s      Val( 2s)     1.01122    -0.00274
 116    C 11  s      Ryd( 3s)     0.00088     0.00000
 117    C 11  px     Val( 2p)     1.09566    -0.00761
 118    C 11  px     Ryd( 3p)     0.00184     0.00004
 119    C 11  py     Val( 2p)     1.14480    -0.00160
 120    C 11  py     Ryd( 3p)     0.00302     0.00008
 121    C 11  pz     Val( 2p)     1.21776    -0.00333
 122    C 11  pz     Ryd( 3p)     0.00148     0.00001

 123    H 12  s      Val( 1s)     0.77963     0.00259
 124    H 12  s      Ryd( 2s)     0.00133    -0.00001

 125    H 13  s      Val( 1s)     0.79937    -0.00972
 126    H 13  s      Ryd( 2s)     0.00099     0.00001

 127    H 14  s      Val( 1s)     0.77390    -0.00961
 128    H 14  s      Ryd( 2s)     0.00192     0.00001

 129    H 15  s      Val( 1s)     0.78387     0.00088
 130    H 15  s      Ryd( 2s)     0.00141     0.00010

 131    H 16  s      Val( 1s)     0.79282    -0.00031
 132    H 16  s      Ryd( 2s)     0.00283     0.00006

 133    H 17  s      Val( 1s)     0.74870    -0.00040
 134    H 17  s      Ryd( 2s)     0.00292     0.00020

 135    H 18  s      Val( 1s)     0.77178     0.00140
 136    H 18  s      Ryd( 2s)     0.00243     0.00067

 137    H 19  s      Val( 1s)     0.78429     0.02420
 138    H 19  s      Ryd( 2s)     0.00536     0.00346

 139    H 20  s      Val( 1s)     0.76904     0.01280
 140    H 20  s      Ryd( 2s)     0.00375     0.00215


 Summary of Natural Population Analysis:

                                     Natural Population                 Natural
             Natural    ---------------------------------------------    Spin
  Atom No    Charge        Core      Valence    Rydberg      Total      Density
 -------------------------------------------------------------------------------
   Br  1   -0.06839     27.99878     7.05055    0.01907    35.06839     0.00065
    C  2   -0.22922      1.99988     4.21482    0.01451     6.22922     0.28957
    C  3   -0.26765      1.99986     4.25578    0.01201     6.26765    -0.09508
    C  4   -0.37495      1.99985     4.36074    0.01436     6.37495     0.29430
    C  5   -0.25311      1.99990     4.24104    0.01218     6.25311     0.27095
    C  6    0.32035      1.99986     3.66333    0.01646     5.67965    -0.07304
    C  7   -0.46174      1.99985     4.44532    0.01658     6.46174     0.30073
    O  8   -0.50673      1.99985     6.49161    0.01527     8.50673    -0.00601
    C  9   -0.13310      1.99977     4.12273    0.01060     6.13310     0.00099
    C 10   -0.52269      1.99978     4.51771    0.00521     6.52269     0.00359
    C 11   -0.47641      1.99975     4.46944    0.00722     6.47641    -0.01514
    H 12    0.21903      0.00000     0.77963    0.00133     0.78097     0.00258
    H 13    0.19964      0.00000     0.79937    0.00099     0.80036    -0.00971
    H 14    0.22419      0.00000     0.77390    0.00192     0.77581    -0.00960
    H 15    0.21472      0.00000     0.78387    0.00141     0.78528     0.00098
    H 16    0.20435      0.00000     0.79282    0.00283     0.79565    -0.00024
    H 17    0.24837      0.00000     0.74870    0.00292     0.75163    -0.00020
    H 18    0.22579      0.00000     0.77178    0.00243     0.77421     0.00207
    H 19    0.21035      0.00000     0.78429    0.00536     0.78965     0.02765
    H 20    0.22721      0.00000     0.76904    0.00375     0.77279     0.01495
 ===============================================================================
 * Total * -1.00000     47.99711    58.83649    0.16640   107.00000     1.00000

                                 Natural Population
 ---------------------------------------------------------
   Core                      47.99711 ( 99.9940% of   48)
   Valence                   58.83649 ( 99.7229% of   59)
   Natural Minimal Basis    106.83360 ( 99.8445% of  107)
   Natural Rydberg Basis      0.16640 (  0.1555% of  107)
 ---------------------------------------------------------

    Atom No         Natural Electron Configuration
 ----------------------------------------------------------------------------
     Br  1      [core]4s( 1.86)4p( 5.19)4d( 0.01)5p( 0.01)
      C  2      [core]2s( 0.90)2p( 3.32)3p( 0.01)
      C  3      [core]2s( 0.93)2p( 3.33)3p( 0.01)
      C  4      [core]2s( 0.90)2p( 3.46)3p( 0.01)
      C  5      [core]2s( 0.82)2p( 3.42)3p( 0.01)
      C  6      [core]2s( 0.81)2p( 2.85)3p( 0.02)
      C  7      [core]2s( 0.91)2p( 3.53)3p( 0.02)
      O  8      [core]2s( 1.58)2p( 4.92)3d( 0.01)
      C  9      [core]2s( 1.02)2p( 3.10)3p( 0.01)
      C 10      [core]2s( 1.03)2p( 3.48)
      C 11      [core]2s( 1.01)2p( 3.46)3p( 0.01)
      H 12            1s( 0.78)
      H 13            1s( 0.80)
      H 14            1s( 0.77)
      H 15            1s( 0.78)
      H 16            1s( 0.79)
      H 17            1s( 0.75)
      H 18            1s( 0.77)
      H 19            1s( 0.78)2s( 0.01)
      H 20            1s( 0.77)


 ***************************************************
 *******         Alpha spin orbitals         *******
 ***************************************************


 NATURAL POPULATIONS:  Natural atomic orbital occupancies

  NAO Atom No lang   Type(AO)    Occupancy      Energy
 -------------------------------------------------------
   1   Br  1  s      Cor( 3s)     1.00000     -21.38345
   2   Br  1  s      Cor( 1s)     1.00000    -449.93039
   3   Br  1  s      Cor( 2s)     1.00000     -79.76451
   4   Br  1  s      Val( 4s)     0.93129      -0.59284
   5   Br  1  s      Ryd( 5s)     0.00133       1.01479
   6   Br  1  px     Cor( 3p)     1.00000      -6.88689
   7   Br  1  px     Cor( 2p)     0.99999     -55.59498
   8   Br  1  px     Val( 4p)     0.62834      -0.07834
   9   Br  1  px     Ryd( 5p)     0.00145       0.90095
  10   Br  1  py     Cor( 3p)     1.00000      -6.87627
  11   Br  1  py     Cor( 2p)     1.00000     -55.59236
  12   Br  1  py     Val( 4p)     0.97208      -0.18512
  13   Br  1  py     Ryd( 5p)     0.00063       0.92841
  14   Br  1  pz     Cor( 3p)     1.00000      -6.87525
  15   Br  1  pz     Cor( 2p)     1.00000     -55.59209
  16   Br  1  pz     Val( 4p)     0.99246      -0.19059
  17   Br  1  pz     Ryd( 5p)     0.00069       0.89436
  18   Br  1  dxy    Cor( 3d)     0.99982      -2.59175
  19   Br  1  dxy    Ryd( 4d)     0.00065       1.11001
  20   Br  1  dxz    Cor( 3d)     0.99995      -2.59100
  21   Br  1  dxz    Ryd( 4d)     0.00317       0.89242
  22   Br  1  dyz    Cor( 3d)     1.00000      -2.58264
  23   Br  1  dyz    Ryd( 4d)     0.00049       0.82330
  24   Br  1  dx2y2  Cor( 3d)     0.99974      -2.59191
  25   Br  1  dx2y2  Ryd( 4d)     0.00181       1.16129
  26   Br  1  dz2    Cor( 3d)     0.99990      -2.58522
  27   Br  1  dz2    Ryd( 4d)     0.00074       0.93709

  28    C  2  s      Cor( 1s)     0.99994     -10.05948
  29    C  2  s      Val( 2s)     0.45495       0.09094
  30    C  2  s      Ryd( 3s)     0.00025       0.90827
  31    C  2  px     Val( 2p)     0.46776       0.10476
  32    C  2  px     Ryd( 3p)     0.00282       1.55627
  33    C  2  py     Val( 2p)     0.55430       0.15428
  34    C  2  py     Ryd( 3p)     0.00323       1.32045
  35    C  2  pz     Val( 2p)     0.77445      -0.00850
  36    C  2  pz     Ryd( 3p)     0.00170       1.15244

  37    C  3  s      Cor( 1s)     0.99993     -10.03696
  38    C  3  s      Val( 2s)     0.46047       0.14830
  39    C  3  s      Ryd( 3s)     0.00035       0.92113
  40    C  3  px     Val( 2p)     0.56872       0.16332
  41    C  3  px     Ryd( 3p)     0.00298       1.36497
  42    C  3  py     Val( 2p)     0.56676       0.15370
  43    C  3  py     Ryd( 3p)     0.00242       1.39074
  44    C  3  pz     Val( 2p)     0.48442       0.09223
  45    C  3  pz     Ryd( 3p)     0.00024       1.13234

  46    C  4  s      Cor( 1s)     0.99992     -10.01049
  47    C  4  s      Val( 2s)     0.45573       0.16106
  48    C  4  s      Ryd( 3s)     0.00037       0.92719
  49    C  4  px     Val( 2p)     0.54117       0.19399
  50    C  4  px     Ryd( 3p)     0.00265       1.27972
  51    C  4  py     Val( 2p)     0.58476       0.15175
  52    C  4  py     Ryd( 3p)     0.00228       1.56682
  53    C  4  pz     Val( 2p)     0.74405       0.02503
  54    C  4  pz     Ryd( 3p)     0.00369       1.14315

  55    C  5  s      Cor( 1s)     0.99995     -10.01620
  56    C  5  s      Val( 2s)     0.41615       0.18276
  57    C  5  s      Ryd( 3s)     0.00052       0.91845
  58    C  5  px     Val( 2p)     0.52975       0.17585
  59    C  5  px     Ryd( 3p)     0.00174       1.75506
  60    C  5  py     Val( 2p)     0.55231       0.17492
  61    C  5  py     Ryd( 3p)     0.00229       1.51611
  62    C  5  pz     Val( 2p)     0.75698       0.02419
  63    C  5  pz     Ryd( 3p)     0.00233       1.22284

  64    C  6  s      Cor( 1s)     0.99993     -10.09979
  65    C  6  s      Val( 2s)     0.40126       0.17055
  66    C  6  s      Ryd( 3s)     0.00059       0.97374
  67    C  6  px     Val( 2p)     0.47631       0.18785
  68    C  6  px     Ryd( 3p)     0.00238       1.54311
  69    C  6  py     Val( 2p)     0.44792       0.22136
  70    C  6  py     Ryd( 3p)     0.00484       1.47708
  71    C  6  pz     Val( 2p)     0.46967       0.08324
  72    C  6  pz     Ryd( 3p)     0.00042       1.16704

  73    C  7  s      Cor( 1s)     0.99992     -10.00624
  74    C  7  s      Val( 2s)     0.46064       0.15074
  75    C  7  s      Ryd( 3s)     0.00057       0.90106
  76    C  7  px     Val( 2p)     0.53781       0.17960
  77    C  7  px     Ryd( 3p)     0.00337       1.22668
  78    C  7  py     Val( 2p)     0.59779       0.13951
  79    C  7  py     Ryd( 3p)     0.00201       1.57922
  80    C  7  pz     Val( 2p)     0.77460       0.01624
  81    C  7  pz     Ryd( 3p)     0.00452       1.14326

  82    O  8  s      Cor( 1s)     0.99992     -19.01261
  83    O  8  s      Val( 2s)     0.78817      -0.58239
  84    O  8  s      Ryd( 3s)     0.00044       2.05663
  85    O  8  px     Val( 2p)     0.69101      -0.14130
  86    O  8  px     Ryd( 3p)     0.00028       2.34148
  87    O  8  py     Val( 2p)     0.84624      -0.20250
  88    O  8  py     Ryd( 3p)     0.00075       2.05513
  89    O  8  pz     Val( 2p)     0.91735      -0.20136
  90    O  8  pz     Ryd( 3p)     0.00048       1.89267
  91    O  8  dxy    Ryd( 3d)     0.00192       2.42951
  92    O  8  dxz    Ryd( 3d)     0.00033       2.13535
  93    O  8  dyz    Ryd( 3d)     0.00101       2.06286
  94    O  8  dx2y2  Ryd( 3d)     0.00123       2.39580
  95    O  8  dz2    Ryd( 3d)     0.00123       2.25621

  96    C  9  s      Cor( 1s)     0.99988     -10.14698
  97    C  9  s      Val( 2s)     0.51070      -0.04886
  98    C  9  s      Ryd( 3s)     0.00091       1.23787
  99    C  9  px     Val( 2p)     0.39504       0.09952
 100    C  9  px     Ryd( 3p)     0.00185       1.10669
 101    C  9  py     Val( 2p)     0.56370       0.04233
 102    C  9  py     Ryd( 3p)     0.00198       1.18287
 103    C  9  pz     Val( 2p)     0.59226       0.02683
 104    C  9  pz     Ryd( 3p)     0.00073       1.15499

 105    C 10  s      Cor( 1s)     0.99989     -10.09584
 106    C 10  s      Val( 2s)     0.51684      -0.03275
 107    C 10  s      Ryd( 3s)     0.00042       1.33556
 108    C 10  px     Val( 2p)     0.59846       0.03220
 109    C 10  px     Ryd( 3p)     0.00120       1.24767
 110    C 10  py     Val( 2p)     0.53972       0.05530
 111    C 10  py     Ryd( 3p)     0.00066       1.09174
 112    C 10  pz     Val( 2p)     0.60542       0.02758
 113    C 10  pz     Ryd( 3p)     0.00053       1.16699

 114    C 11  s      Cor( 1s)     0.99988     -10.07720
 115    C 11  s      Val( 2s)     0.50424       0.01864
 116    C 11  s      Ryd( 3s)     0.00044       1.39092
 117    C 11  px     Val( 2p)     0.54403       0.09181
 118    C 11  px     Ryd( 3p)     0.00094       1.11294
 119    C 11  py     Val( 2p)     0.57160       0.06807
 120    C 11  py     Ryd( 3p)     0.00155       1.21878
 121    C 11  pz     Val( 2p)     0.60722       0.05569
 122    C 11  pz     Ryd( 3p)     0.00075       1.26407

 123    H 12  s      Val( 1s)     0.39111       0.30209
 124    H 12  s      Ryd( 2s)     0.00066       0.78485

 125    H 13  s      Val( 1s)     0.39483       0.30020
 126    H 13  s      Ryd( 2s)     0.00050       0.81591

 127    H 14  s      Val( 1s)     0.38214       0.31872
 128    H 14  s      Ryd( 2s)     0.00096       0.81864

 129    H 15  s      Val( 1s)     0.39238       0.22962
 130    H 15  s      Ryd( 2s)     0.00076       0.71591

 131    H 16  s      Val( 1s)     0.39626       0.22369
 132    H 16  s      Ryd( 2s)     0.00145       0.75245

 133    H 17  s      Val( 1s)     0.37415       0.25605
 134    H 17  s      Ryd( 2s)     0.00156       0.76541

 135    H 18  s      Val( 1s)     0.38659       0.23406
 136    H 18  s      Ryd( 2s)     0.00155       0.73954

 137    H 19  s      Val( 1s)     0.40424       0.24823
 138    H 19  s      Ryd( 2s)     0.00441       0.78250

 139    H 20  s      Val( 1s)     0.39092       0.26020
 140    H 20  s      Ryd( 2s)     0.00295       0.77816


 Summary of Natural Population Analysis:

                                     Natural Population
             Natural    ---------------------------------------------
  Atom No    Charge        Core      Valence    Rydberg      Total
 --------------------------------------------------------------------
   Br  1   -0.03452     13.99940     3.52416    0.01096    17.53452
    C  2   -0.25939      0.99994     2.25146    0.00799     3.25939
    C  3   -0.08629      0.99993     2.08037    0.00599     3.08629
    C  4   -0.33463      0.99992     2.32571    0.00899     3.33463
    C  5   -0.26203      0.99995     2.25519    0.00689     3.26203
    C  6    0.19669      0.99993     1.79515    0.00823     2.80331
    C  7   -0.38124      0.99992     2.37085    0.01047     3.38124
    O  8   -0.25036      0.99992     3.24277    0.00766     4.25036
    C  9   -0.06704      0.99988     2.06170    0.00546     3.06704
    C 10   -0.26314      0.99989     2.26044    0.00282     3.26314
    C 11   -0.23063      0.99988     2.22708    0.00368     3.23063
    H 12    0.10823      0.00000     0.39111    0.00066     0.39177
    H 13    0.10467      0.00000     0.39483    0.00050     0.39533
    H 14    0.11689      0.00000     0.38214    0.00096     0.38311
    H 15    0.10687      0.00000     0.39238    0.00076     0.39313
    H 16    0.10230      0.00000     0.39626    0.00145     0.39770
    H 17    0.12428      0.00000     0.37415    0.00156     0.37572
    H 18    0.11186      0.00000     0.38659    0.00155     0.38814
    H 19    0.09135      0.00000     0.40424    0.00441     0.40865
    H 20    0.10613      0.00000     0.39092    0.00295     0.39387
 ====================================================================
 * Total * -1.00000     23.99856    29.90750    0.09394    54.00000

                                 Natural Population
 ---------------------------------------------------------
   Core                      23.99856 ( 99.9940% of   24)
   Valence                   29.90750 ( 99.6917% of   30)
   Natural Minimal Basis     53.90606 ( 99.8260% of   54)
   Natural Rydberg Basis      0.09394 (  0.1740% of   54)
 ---------------------------------------------------------

    Atom No         Natural Electron Configuration
 ----------------------------------------------------------------------------
     Br  1      [core]4s( 0.93)4p( 2.59)4d( 0.01)
      C  2      [core]2s( 0.45)2p( 1.80)3p( 0.01)
      C  3      [core]2s( 0.46)2p( 1.62)3p( 0.01)
      C  4      [core]2s( 0.46)2p( 1.87)3p( 0.01)
      C  5      [core]2s( 0.42)2p( 1.84)3p( 0.01)
      C  6      [core]2s( 0.40)2p( 1.39)3p( 0.01)
      C  7      [core]2s( 0.46)2p( 1.91)3p( 0.01)
      O  8      [core]2s( 0.79)2p( 2.45)3d( 0.01)
      C  9      [core]2s( 0.51)2p( 1.55)
      C 10      [core]2s( 0.52)2p( 1.74)
[...]
   40. BD ( 2) C  5- C  6      98. RY ( 4) C  4            0.51    1.27   0.032
   40. BD ( 2) C  5- C  6     110. RY ( 4) C  7            0.62    1.26   0.035
   40. BD ( 2) C  5- C  6     112. RY ( 2) O  8            0.26    1.99   0.029
   41. BD ( 1) C  5- C 11      58. BD*( 1) C  3- C  4      0.78    1.34   0.041
   41. BD ( 1) C  5- C 11      61. BD*( 1) C  4- C  5      1.61    1.35   0.059
   41. BD ( 1) C  5- C 11      63. BD*( 1) C  5- C  6      1.12    1.31   0.048
   41. BD ( 1) C  5- C 11      66. BD*( 1) C  6- C  7      0.85    1.32   0.042
   41. BD ( 1) C  5- C 11      67. BD*( 1) C  6- O  8      0.30    1.08   0.023
   41. BD ( 1) C  5- C 11      73. BD*( 1) C 10- C 11      0.58    1.05   0.031
   41. BD ( 1) C  5- C 11      75. BD*( 1) C 10- H 18      0.86    1.10   0.039
   41. BD ( 1) C  5- C 11      76. BD*( 1) C 11- H 19      0.54    1.11   0.031
   41. BD ( 1) C  5- C 11      77. BD*( 1) C 11- H 20      0.57    1.12   0.032
   41. BD ( 1) C  5- C 11      95. RY ( 1) C  4            1.05    2.03   0.058
   41. BD ( 1) C  5- C 11     103. RY ( 1) C  6            0.42    1.91   0.036
   41. BD ( 1) C  5- C 11     104. RY ( 2) C  6            0.35    1.95   0.033
   41. BD ( 1) C  5- C 11     124. RY ( 1) C 10            0.36    1.78   0.032
   41. BD ( 1) C  5- C 11     139. RY ( 1) H 19            0.33    1.21   0.025
   41. BD ( 1) C  5- C 11     140. RY ( 1) H 20            0.26    1.21   0.022
   42. BD ( 1) C  6- C  7      54. BD*( 1)Br  1- C  2      2.17    0.87   0.055
   42. BD ( 1) C  6- C  7      56. BD*( 1) C  2- C  7      1.97    1.39   0.066
   42. BD ( 1) C  6- C  7      63. BD*( 1) C  5- C  6      2.41    1.36   0.072
   42. BD ( 1) C  6- C  7      65. BD*( 1) C  5- C 11      1.25    1.20   0.049
   42. BD ( 1) C  6- C  7      68. BD*( 1) C  7- H 14      1.01    1.26   0.045
   42. BD ( 1) C  6- C  7      69. BD*( 1) O  8- C  9      1.04    1.01   0.041
   42. BD ( 1) C  6- C  7      87. RY ( 1) C  2            0.70    1.79   0.045
   42. BD ( 1) C  6- C  7      88. RY ( 2) C  2            0.58    2.06   0.044
   42. BD ( 1) C  6- C  7      99. RY ( 1) C  5            1.14    2.05   0.061
   42. BD ( 1) C  6- C  7     111. RY ( 1) O  8            0.40    2.28   0.038
   43. BD ( 1) C  6- O  8      56. BD*( 1) C  2- C  7      0.46    1.61   0.034
   43. BD ( 1) C  6- O  8      61. BD*( 1) C  4- C  5      0.43    1.62   0.033
   43. BD ( 1) C  6- O  8      66. BD*( 1) C  6- C  7      0.28    1.59   0.027
   43. BD ( 1) C  6- O  8      71. BD*( 1) C  9- H 15      0.44    1.37   0.031
   43. BD ( 1) C  6- O  8     120. RY ( 1) C  9            0.54    1.79   0.039
   44. BD ( 1) C  7- H 14      54. BD*( 1)Br  1- C  2      0.48    0.74   0.024
   44. BD ( 1) C  7- H 14      55. BD*( 1) C  2- C  3      1.27    1.25   0.050
   44. BD ( 1) C  7- H 14      56. BD*( 1) C  2- C  7      0.75    1.27   0.039
   44. BD ( 1) C  7- H 14      63. BD*( 1) C  5- C  6      1.38    1.24   0.052
   44. BD ( 1) C  7- H 14      66. BD*( 1) C  6- C  7      0.56    1.25   0.033
   44. BD ( 1) C  7- H 14      67. BD*( 1) C  6- O  8      1.06    1.01   0.041
   44. BD ( 1) C  7- H 14      88. RY ( 2) C  2            0.70    1.94   0.046
   44. BD ( 1) C  7- H 14     104. RY ( 2) C  6            0.54    1.88   0.040
   45. BD ( 1) O  8- C  9      66. BD*( 1) C  6- C  7      1.08    1.54   0.051
   45. BD ( 1) O  8- C  9      75. BD*( 1) C 10- H 18      0.56    1.32   0.034
   45. BD ( 1) O  8- C  9     103. RY ( 1) C  6            0.96    2.13   0.057
   46. BD ( 1) C  9- C 10      71. BD*( 1) C  9- H 15      0.32    1.17   0.025
   46. BD ( 1) C  9- C 10      73. BD*( 1) C 10- C 11      0.55    1.12   0.031
   46. BD ( 1) C  9- C 10      74. BD*( 1) C 10- H 17      0.27    1.17   0.022
   46. BD ( 1) C  9- C 10      75. BD*( 1) C 10- H 18      0.32    1.16   0.024
   46. BD ( 1) C  9- C 10      77. BD*( 1) C 11- H 20      0.77    1.19   0.038
   46. BD ( 1) C  9- C 10     104. RY ( 2) C  6            0.36    2.02   0.034
   46. BD ( 1) C  9- C 10     128. RY ( 1) C 11            0.30    1.80   0.029
   46. BD ( 1) C  9- C 10     129. RY ( 2) C 11            0.38    1.72   0.032
   47. BD ( 1) C  9- H 15      67. BD*( 1) C  6- O  8      0.86    1.09   0.039
   47. BD ( 1) C  9- H 15      73. BD*( 1) C 10- C 11      1.04    1.07   0.042
   47. BD ( 1) C  9- H 15     111. RY ( 1) O  8            0.30    2.25   0.033
   48. BD ( 1) C  9- H 16      74. BD*( 1) C 10- H 17      1.13    1.11   0.045
   48. BD ( 1) C  9- H 16     112. RY ( 2) O  8            0.30    2.33   0.033
   49. BD ( 1) C 10- C 11      61. BD*( 1) C  4- C  5      0.84    1.38   0.043
   49. BD ( 1) C 10- C 11      65. BD*( 1) C  5- C 11      0.71    1.18   0.036
   49. BD ( 1) C 10- C 11      69. BD*( 1) O  8- C  9      0.26    0.99   0.020
   49. BD ( 1) C 10- C 11      70. BD*( 1) C  9- C 10      0.45    1.06   0.028
   49. BD ( 1) C 10- C 11      71. BD*( 1) C  9- H 15      0.81    1.13   0.038
   49. BD ( 1) C 10- C 11      74. BD*( 1) C 10- H 17      0.40    1.14   0.027
   49. BD ( 1) C 10- C 11      75. BD*( 1) C 10- H 18      0.41    1.13   0.027
   49. BD ( 1) C 10- C 11      77. BD*( 1) C 11- H 20      0.32    1.16   0.024
   49. BD ( 1) C 10- C 11      99. RY ( 1) C  5            0.47    2.03   0.039
   49. BD ( 1) C 10- C 11     121. RY ( 2) C  9            0.46    1.78   0.036
   50. BD ( 1) C 10- H 17      69. BD*( 1) O  8- C  9      0.55    0.94   0.029
   50. BD ( 1) C 10- H 17      72. BD*( 1) C  9- H 16      1.21    1.07   0.045
   50. BD ( 1) C 10- H 17      73. BD*( 1) C 10- C 11      0.28    1.04   0.021
   50. BD ( 1) C 10- H 17      76. BD*( 1) C 11- H 19      1.09    1.10   0.044
   50. BD ( 1) C 10- H 17     128. RY ( 1) C 11            0.29    1.72   0.028
   51. BD ( 1) C 10- H 18      65. BD*( 1) C  5- C 11      0.87    1.14   0.040
   51. BD ( 1) C 10- H 18      69. BD*( 1) O  8- C  9      2.33    0.95   0.059
   51. BD ( 1) C 10- H 18     130. RY ( 3) C 11            0.28    1.60   0.027
   52. BD ( 1) C 11- H 19      64. BD*( 2) C  5- C  6      2.64    0.68   0.053
   52. BD ( 1) C 11- H 19      65. BD*( 1) C  5- C 11      0.42    1.11   0.027
   52. BD ( 1) C 11- H 19      74. BD*( 1) C 10- H 17      1.25    1.06   0.046
   52. BD ( 1) C 11- H 19     101. RY ( 3) C  5            0.54    1.64   0.038
   53. BD ( 1) C 11- H 20      63. BD*( 1) C  5- C  6      0.97    1.28   0.044
   53. BD ( 1) C 11- H 20      64. BD*( 2) C  5- C  6      1.14    0.68   0.035
   53. BD ( 1) C 11- H 20      65. BD*( 1) C  5- C 11      0.50    1.11   0.030
   53. BD ( 1) C 11- H 20      70. BD*( 1) C  9- C 10      1.25    0.99   0.044


 NATURAL BOND ORBITALS (Summary):

                                                     Principal Delocalizations
           NBO                 Occupancy    Energy   (geminal,vicinal,remote)
 ===============================================================================
 Molecular unit  1  (C9H9OBr)
 ------ Lewis --------------------------------------
    1. CR ( 1)Br  1             1.00000   -21.38344
    2. CR ( 2)Br  1             1.00000  -449.93040
    3. CR ( 3)Br  1             1.00000   -79.76451
    4. CR ( 4)Br  1             1.00000    -6.88700
    5. CR ( 5)Br  1             0.99999   -55.59504
    6. CR ( 6)Br  1             1.00000    -6.87628
    7. CR ( 7)Br  1             1.00000   -55.59237
    8. CR ( 8)Br  1             1.00000    -6.87512
    9. CR ( 9)Br  1             1.00000   -55.59200
   10. CR (10)Br  1             0.99982    -2.59181
   11. CR (11)Br  1             0.99994    -2.59092
   12. CR (12)Br  1             0.99999    -2.58258
   13. CR (13)Br  1             0.99974    -2.59196  80(g)
   14. CR (14)Br  1             0.99990    -2.58517
   15. CR ( 1) C  2             0.99994   -10.05530
   16. CR ( 1) C  3             0.99993   -10.03844
   17. CR ( 1) C  4             0.99992   -10.00670
   18. CR ( 1) C  5             0.99995   -10.01234
   19. CR ( 1) C  6             0.99993   -10.10110
   20. CR ( 1) C  7             0.99992   -10.00235
   21. CR ( 1) O  8             0.99992   -19.01282  114(g)
   22. CR ( 1) C  9             0.99988   -10.14699
   23. CR ( 1) C 10             0.99989   -10.09576
   24. CR ( 1) C 11             0.99988   -10.07757
   25. LP ( 1)Br  1             0.99886    -0.57779  88(v)
   26. LP ( 2)Br  1             0.99330    -0.19168  55(v),56(v),87(v)
   27. LP ( 3)Br  1             0.98112    -0.18689  57(v)
   28. LP ( 1) O  8             0.98260    -0.39603  63(v),70(v),71(v),103(v)
                                                     120(v),66(v),104(v)
   29. LP ( 2) O  8             0.93061    -0.20759  64(v),72(v),70(v),71(v)
   30. BD ( 1)Br  1- C  2       0.99445    -0.43591  108(v),66(v),91(v),58(v)
   31. BD ( 1) C  2- C  3       0.98860    -0.49754  56(g),58(g),60(g),96(v)
                                                     62(v),68(v),107(v),108(v)
                                                     95(v)
   32. BD ( 1) C  2- C  7       0.98676    -0.49205  55(g),66(g),67(v),103(v)
                                                     68(g),60(v),91(v)
   33. BD ( 2) C  2- C  7       0.83934    -0.09605  64(v),59(v),78(v),94(v)
   34. BD ( 1) C  3- C  4       0.98423    -0.47435  54(v),61(g),55(g),65(v)
                                                     87(v),100(v),62(g),60(g)
                                                     99(v),88(v)
   35. BD ( 2) C  3- C  4       0.85523    -0.10473  57(v),64(v),89(v),101(v)
   36. BD ( 1) C  3- H 12       0.99165    -0.39168  61(v),56(v),88(v),95(v)
                                                     58(g),55(g),54(v)
   37. BD ( 1) C  4- C  5       0.98309    -0.46294  63(g),67(v),58(g),65(g)
                                                     92(v),60(v),62(g),104(v)
                                                     128(v),73(v)
   38. BD ( 1) C  4- H 13       0.99071    -0.36783  63(v),55(v),61(g),91(v)
                                                     58(g),100(v),65(v),99(v)
   39. BD ( 1) C  5- C  6       0.98564    -0.49207  66(g),61(g),65(g),107(v)
                                                     62(v),68(v),95(v),108(v)
                                                     96(v),128(v),77(v)
   40. BD ( 2) C  5- C  6       0.83151    -0.10599  59(v),57(v),76(v),77(v)
                                                     64(g),110(v),98(v),112(v)
   41. BD ( 1) C  5- C 11       0.98679    -0.43390  61(g),63(g),95(v),75(v)
                                                     66(v),58(v),73(g),77(g)
                                                     76(g),103(v),124(v),104(v)
                                                     139(v),67(v),140(v)
   42. BD ( 1) C  6- C  7       0.98277    -0.48686  63(g),54(v),56(g),65(v)
                                                     99(v),69(v),68(g),87(v)
                                                     88(v),111(v)
   43. BD ( 1) C  6- O  8       0.99580    -0.70666  120(v),56(v),71(v),61(v)
                                                     66(g)
   44. BD ( 1) C  7- H 14       0.98922    -0.36420  63(v),55(v),67(v),56(g)
                                                     88(v),66(g),104(v),54(v)
   45. BD ( 1) O  8- C  9       0.99583    -0.65859  66(v),103(v),75(v)
   46. BD ( 1) C  9- C 10       0.99507    -0.50123  77(v),73(g),129(v),104(r)
                                                     71(g),75(g),128(v),74(g)
   47. BD ( 1) C  9- H 15       0.99459    -0.45165  73(v),67(v),111(v)
   48. BD ( 1) C  9- H 16       0.99532    -0.44518  74(v),112(v)
   49. BD ( 1) C 10- C 11       0.99199    -0.46752  61(v),71(v),65(g),99(v)
                                                     121(v),70(g),75(g),74(g)
                                                     77(g),69(v)
   50. BD ( 1) C 10- H 17       0.99175    -0.42145  72(v),76(v),69(v),128(v)
                                                     73(g)
   51. BD ( 1) C 10- H 18       0.99160    -0.43268  69(v),65(v),130(v)
   52. BD ( 1) C 11- H 19       0.98935    -0.39635  64(v),74(v),101(v),65(g)
   53. BD ( 1) C 11- H 20       0.99110    -0.40087  70(v),64(v),63(v),65(g)
 ------ non-Lewis ----------------------------------
   54. BD*( 1)Br  1- C  2       0.01473     0.37850
   55. BD*( 1) C  2- C  3       0.01138     0.88253
   56. BD*( 1) C  2- C  7       0.01039     0.90629
   57. BD*( 2) C  2- C  7       0.16697     0.29611
   58. BD*( 1) C  3- C  4       0.00840     0.90688
   59. BD*( 2) C  3- C  4       0.17578     0.28828
   60. BD*( 1) C  3- H 12       0.00615     0.75905
   61. BD*( 1) C  4- C  5       0.01122     0.91406
   62. BD*( 1) C  4- H 13       0.00626     0.76131
   63. BD*( 1) C  5- C  6       0.01608     0.87486
   64. BD*( 2) C  5- C  6       0.19910     0.28287
   65. BD*( 1) C  5- C 11       0.01087     0.70921
   66. BD*( 1) C  6- C  7       0.01132     0.88147
   67. BD*( 1) C  6- O  8       0.01193     0.64173
   68. BD*( 1) C  7- H 14       0.00611     0.77235
   69. BD*( 1) O  8- C  9       0.00934     0.52060
   70. BD*( 1) C  9- C 10       0.01372     0.59326
   71. BD*( 1) C  9- H 15       0.00675     0.66537
   72. BD*( 1) C  9- H 16       0.01414     0.64894
   73. BD*( 1) C 10- C 11       0.00657     0.61508
   74. BD*( 1) C 10- H 17       0.00637     0.66826
   75. BD*( 1) C 10- H 18       0.00568     0.66263
   76. BD*( 1) C 11- H 19       0.00747     0.67945
   77. BD*( 1) C 11- H 20       0.00529     0.68876
   78. RY ( 1)Br  1             0.00135     0.86594
   79. RY ( 2)Br  1             0.00052     0.92324
   80. RY ( 3)Br  1             0.00030     1.25722
   81. RY ( 4)Br  1             0.00019     1.03791
   82. RY ( 5)Br  1             0.00005     1.09832
   83. RY ( 6)Br  1             0.00004     0.82225
   84. RY ( 7)Br  1             0.00002     0.84757
   85. RY ( 8)Br  1             0.00001     0.92643
   86. RY ( 9)Br  1             0.00000     0.87586
   87. RY ( 1) C  2             0.00256     1.30612
   88. RY ( 2) C  2             0.00228     1.57471
   89. RY ( 3) C  2             0.00023     1.17188
   90. RY ( 4) C  2             0.00020     0.91413
   91. RY ( 1) C  3             0.00234     1.48721
   92. RY ( 2) C  3             0.00180     1.26523
   93. RY ( 3) C  3             0.00019     0.91741
   94. RY ( 4) C  3             0.00018     1.12470
   95. RY ( 1) C  4             0.00226     1.59683
   96. RY ( 2) C  4             0.00158     1.24324
   97. RY ( 3) C  4             0.00021     0.93520
   98. RY ( 4) C  4             0.00010     1.16132
   99. RY ( 1) C  5             0.00235     1.56161
  100. RY ( 2) C  5             0.00140     1.64097
  101. RY ( 3) C  5             0.00083     1.24610
  102. RY ( 4) C  5             0.00029     0.99505
  103. RY ( 1) C  6             0.00351     1.47368
  104. RY ( 2) C  6             0.00224     1.51554
  105. RY ( 3) C  6             0.00048     1.00289
  106. RY ( 4) C  6             0.00024     1.16497
  107. RY ( 1) C  7             0.00202     1.21034
  108. RY ( 2) C  7             0.00184     1.59279
  109. RY ( 3) C  7             0.00029     0.91200
  110. RY ( 4) C  7             0.00021     1.15379
  111. RY ( 1) O  8             0.00103     1.79563
  112. RY ( 2) O  8             0.00056     1.88248
  113. RY ( 3) O  8             0.00024     2.18924
  114. RY ( 4) O  8             0.00014     2.29248
  115. RY ( 5) O  8             0.00013     2.63658
  116. RY ( 6) O  8             0.00003     2.21525
  117. RY ( 7) O  8             0.00002     2.35582
  118. RY ( 8) O  8             0.00001     2.15078
  119. RY ( 9) O  8             0.00000     2.10789
  120. RY ( 1) C  9             0.00153     1.07889
  121. RY ( 2) C  9             0.00116     1.31107
  122. RY ( 3) C  9             0.00056     1.13373
  123. RY ( 4) C  9             0.00016     1.15169
  124. RY ( 1) C 10             0.00104     1.34787
  125. RY ( 2) C 10             0.00036     1.14577
  126. RY ( 3) C 10             0.00031     1.11340
  127. RY ( 4) C 10             0.00013     1.23261
  128. RY ( 1) C 11             0.00155     1.29456
  129. RY ( 2) C 11             0.00075     1.22008
  130. RY ( 3) C 11             0.00047     1.16695
  131. RY ( 4) C 11             0.00017     1.30153
  132. RY ( 1) H 12             0.00067     0.78341
  133. RY ( 1) H 13             0.00049     0.81587
  134. RY ( 1) H 14             0.00095     0.81811
  135. RY ( 1) H 15             0.00066     0.71476
  136. RY ( 1) H 16             0.00140     0.74865
  137. RY ( 1) H 17             0.00136     0.76342
  138. RY ( 1) H 18             0.00088     0.73766
  139. RY ( 1) H 19             0.00090     0.77562
  140. RY ( 1) H 20             0.00078     0.77368
          -------------------------------
                 Total Lewis   52.20743  ( 98.5046%)
           Valence non-Lewis    0.74201  (  1.4000%)
           Rydberg non-Lewis    0.05056  (  0.0954%)
          -------------------------------
               Total unit  1   53.00000  (100.0000%)
              Charge unit  1    0.00000

 $CHOOSE
  ALPHA
   LONE 1 3 2 1 5 1 8 2 END
   BOND S 1 2 S 2 3 S 2 7 D 3 4 S 3 12 S 4 5 S 4 13 S 5 6 S 5 11 D 6 7 S 6 8
        S 7 14 S 8 9 S 9 10 S 9 15 S 9 16 S 10 11 S 10 17 S 10 18 S 11 19
        S 11 20 END
  END
  BETA
   LONE 1 3 8 2 END
   BOND S 1 2 S 2 3 D 2 7 D 3 4 S 3 12 S 4 5 S 4 13 D 5 6 S 5 11 S 6 7 S 6 8
        S 7 14 S 8 9 S 9 10 S 9 15 S 9 16 S 10 11 S 10 17 S 10 18 S 11 19
        S 11 20 END
  END
 $END

 NBO analysis completed in 1.66 CPU seconds (2 wall seconds)
 Maximum scratch memory used by NBO was 623070 words (4.75 MB)
 Maximum scratch memory used by G16NBO was 48306 words (0.37 MB)

 Opening RunExU unformatted file "/home/rpaton/arbr500/xtb/fukui/Gau-2147933.EUF"
 Read unf file /home/rpaton/arbr500/xtb/fukui/Gau-2147933.EUF:
 Label Gaussian matrix elements                                         IVers= 2 NLab= 2 Version=ES64L-G16RevC.01
 Title energy: -32.024707278763 gnorm: 0.000396726366 xtb: 6.7.0 (08769
 NAtoms=    20 NBasis=   140 NBsUse=   140 ICharg=    -1 Multip=     2 NE=   107 Len12L=8 Len4L=8 IOpCl= 1 ICGU=112
 GAUSSIAN SCALARS                    NI= 1 NR= 1 NTot=       1 LenBuf=    2 NRI=1 N=    1000
 NPA CHARGES                         NI= 0 NR= 1 NTot=      20 LenBuf= 2048 NRI=1 N=      20
 Recovered energy= -2982.97990012     dipole=      0.703101711172     -0.333245588127      0.021053446062
 Unable to Open any file for archive entry.
 1\1\GINC-DYNAMO\SP\UwB97XD\MIDIx\C9H9Br1O1(1-,2)\RPATON\28-Sep-2024\0\
 \# wb97xd midix pop(nbo6,hirshfeld)\\energy: -32.024707278763 gnorm: 0
 .000396726366 xtb: 6.7.0 (08769fc)\\-1,2\Br,0,2.99342,-0.25958,-0.1000
 9\C,0,1.14493,0.19043,-0.01904\C,0,0.77157,1.52267,0.02996\C,0,-0.5758
 2,1.82671,0.07294\C,0,-1.54811,0.83663,0.08075\C,0,-1.14665,-0.50201,0
 .05256\C,0,0.20891,-0.82187,-0.00776\O,0,-2.00854,-1.55071,0.06264\C,0
 ,-3.3694,-1.25156,0.31039\C,0,-3.82063,0.00148,-0.42881\C,0,-3.01189,1
 .18433,0.09478\H,0,1.51618,2.30252,0.02672\H,0,-0.88513,2.86131,0.0973
 7\H,0,0.49778,-1.85993,-0.04322\H,0,-3.92136,-2.13547,-0.01777\H,0,-3.
 51964,-1.12209,1.39139\H,0,-3.63557,-0.13034,-1.49682\H,0,-4.88826,0.1
 5648,-0.27645\H,0,-3.32259,1.42203,1.11738\H,0,-3.1866,2.07262,-0.5153
 5\\Version=ES64L-G16RevC.01\State=2-A\HF=-2982.9799001\S2=0.763446\S2-
 1=0.\S2A=0.750104\RMSD=8.254e-09\Dipole=-0.7038871,-0.3321705,-0.00732
 11\Quadrupole=-5.0388273,1.4455699,3.5932574,1.7973984,-0.0629211,-0.2
 646021\PG=C01 [X(C9H9Br1O1)]\\@
 The archive entry for this job was punched.


 Experience is what you get when you don't get what you want.
 -- Dan Stanford
 Job cpu time:       0 days  0 hours 10 minutes  0.1 seconds.
 Elapsed time:       0 days  0 hours  0 minutes 25.3 seconds.
 File lengths (MBytes):  RWF=     21 Int=      0 D2E=      0 Chk=      3 Scr=      1
 Normal termination of Gaussian 16 at Sat Sep 28 19:29:40 2024.
