 Entering Gaussian System, Link 0=/usr/local/Gaussian/G16C/g16/g16
 Input=arbr47_xtbopt_oxd.com
 Output=arbr47_xtbopt_oxd.log
 Initial command:
 /usr/local/Gaussian/G16C/g16/l1.exe "/home/rpaton/arbr500/xtb/fukui/Gau-2150004.inp" -scrdir="/home/rpaton/arbr500/xtb/fukui/"
 Entering Link 1 = /usr/local/Gaussian/G16C/g16/l1.exe PID=   2150005.
  
 Copyright (c) 1988-2019, Gaussian, Inc.  All Rights Reserved.
  
 This is part of the Gaussian(R) 16 program.  It is based on
 the Gaussian(R) 09 system (copyright 2009, Gaussian, Inc.),
 the Gaussian(R) 03 system (copyright 2003, Gaussian, Inc.),
 the Gaussian(R) 98 system (copyright 1998, Gaussian, Inc.),
 the Gaussian(R) 94 system (copyright 1995, Gaussian, Inc.),
 the Gaussian 92(TM) system (copyright 1992, Gaussian, Inc.),
 the Gaussian 90(TM) system (copyright 1990, Gaussian, Inc.),
 the Gaussian 88(TM) system (copyright 1988, Gaussian, Inc.),
 the Gaussian 86(TM) system (copyright 1986, Carnegie Mellon
 University), and the Gaussian 82(TM) system (copyright 1983,
 Carnegie Mellon University). Gaussian is a federally registered
 trademark of Gaussian, Inc.
  
 This software contains proprietary and confidential information,
 including trade secrets, belonging to Gaussian, Inc.
  
 This software is provided under written license and may be
 used, copied, transmitted, or stored only in accord with that
 written license.
  
 The following legend is applicable only to US Government
 contracts under FAR:
  
                    RESTRICTED RIGHTS LEGEND
  
 Use, reproduction and disclosure by the US Government is
 subject to restrictions as set forth in subparagraphs (a)
 and (c) of the Commercial Computer Software - Restricted
 Rights clause in FAR 52.227-19.
  
 Gaussian, Inc.
 340 Quinnipiac St., Bldg. 40, Wallingford CT 06492
  
  
 ---------------------------------------------------------------
 Warning -- This program may not be used in any manner that
 competes with the business of Gaussian, Inc. or will provide
 assistance to any competitor of Gaussian, Inc.  The licensee
 of this program is prohibited from giving any competitor of
 Gaussian, Inc. access to this program.  By using this program,
 the user acknowledges that Gaussian, Inc. is engaged in the
 business of creating and licensing software in the field of
 computational chemistry and represents and warrants to the
 licensee that it is not a competitor of Gaussian, Inc. and that
 it will not use this program in any manner prohibited above.
 ---------------------------------------------------------------
  

 Cite this work as:
 Gaussian 16, Revision C.01,
 M. J. Frisch, G. W. Trucks, H. B. Schlegel, G. E. Scuseria, 
 M. A. Robb, J. R. Cheeseman, G. Scalmani, V. Barone, 
 G. A. Petersson, H. Nakatsuji, X. Li, M. Caricato, A. V. Marenich, 
 J. Bloino, B. G. Janesko, R. Gomperts, B. Mennucci, H. P. Hratchian, 
 J. V. Ortiz, A. F. Izmaylov, J. L. Sonnenberg, D. Williams-Young, 
 F. Ding, F. Lipparini, F. Egidi, J. Goings, B. Peng, A. Petrone, 
 T. Henderson, D. Ranasinghe, V. G. Zakrzewski, J. Gao, N. Rega, 
 G. Zheng, W. Liang, M. Hada, M. Ehara, K. Toyota, R. Fukuda, 
 J. Hasegawa, M. Ishida, T. Nakajima, Y. Honda, O. Kitao, H. Nakai, 
 T. Vreven, K. Throssell, J. A. Montgomery, Jr., J. E. Peralta, 
 F. Ogliaro, M. J. Bearpark, J. J. Heyd, E. N. Brothers, K. N. Kudin, 
 V. N. Staroverov, T. A. Keith, R. Kobayashi, J. Normand, 
 K. Raghavachari, A. P. Rendell, J. C. Burant, S. S. Iyengar, 
 J. Tomasi, M. Cossi, J. M. Millam, M. Klene, C. Adamo, R. Cammi, 
 J. W. Ochterski, R. L. Martin, K. Morokuma, O. Farkas, 
 J. B. Foresman, and D. J. Fox, Gaussian, Inc., Wallingford CT, 2019.
 
 ******************************************
 Gaussian 16:  ES64L-G16RevC.01  3-Jul-2019
                28-Sep-2024 
 ******************************************
 %nprocshared=24
 Will use up to   24 processors via shared memory.
 ----------------------------------
 # wb97xd midix pop(nbo6,hirshfeld)
 ----------------------------------
 1/38=1,172=1/1;
 2/12=2,17=6,18=5,40=1/2;
 3/5=20,11=2,25=1,30=1,74=-58/1,2,3;
 4//1;
 5/5=2,38=5/2;
 6/7=2,8=2,9=2,10=2,28=1,40=1,79=1,113=1,114=1,124=3103,126=1/1,12;
 99/5=1,9=1/99;
 -------------------------------------------------------------------
 energy: -35.049283102289 gnorm: 0.000814436820 xtb: 6.7.0 (08769fc)
 -------------------------------------------------------------------
 Symbolic Z-matrix:
 Charge =  1 Multiplicity = 2
 O                    -4.37067  -1.42627  -0.32442 
 C                    -3.39645  -0.79225  -0.01818 
 C                    -3.4856    0.6535    0.4392 
 O                    -2.47146   1.50177  -0.05241 
 C                    -1.20108   1.01455  -0.04507 
 C                    -0.16725   1.94568  -0.13737 
 C                     1.14868   1.53448  -0.13196 
 C                     1.43038   0.18157  -0.02682 
 Br                    3.24255  -0.40222   0.00838 
 C                     0.41604  -0.7538    0.04273 
 C                    -0.91127  -0.34723   0.02434 
 C                    -2.00758  -1.37557   0.02085 
 H                    -4.43357   1.09186   0.11894 
 H                    -3.45797   0.64059   1.54209 
 H                    -0.4211    2.99033  -0.21291 
 H                     1.94791   2.25521  -0.20058 
 H                     0.65043  -1.80604   0.10146 
 H                    -1.94462  -2.00077   0.91954 
 H                    -1.89093  -2.05426  -0.82963 
 
                          Input orientation:                          
 ---------------------------------------------------------------------
 Center     Atomic      Atomic             Coordinates (Angstroms)
 Number     Number       Type             X           Y           Z
 ---------------------------------------------------------------------
      1          8           0       -4.370670   -1.426270   -0.324420
      2          6           0       -3.396450   -0.792250   -0.018180
      3          6           0       -3.485600    0.653500    0.439200
      4          8           0       -2.471460    1.501770   -0.052410
      5          6           0       -1.201080    1.014550   -0.045070
      6          6           0       -0.167250    1.945680   -0.137370
      7          6           0        1.148680    1.534480   -0.131960
      8          6           0        1.430380    0.181570   -0.026820
      9         35           0        3.242550   -0.402220    0.008380
     10          6           0        0.416040   -0.753800    0.042730
     11          6           0       -0.911270   -0.347230    0.024340
     12          6           0       -2.007580   -1.375570    0.020850
     13          1           0       -4.433570    1.091860    0.118940
     14          1           0       -3.457970    0.640590    1.542090
     15          1           0       -0.421100    2.990330   -0.212910
     16          1           0        1.947910    2.255210   -0.200580
     17          1           0        0.650430   -1.806040    0.101460
     18          1           0       -1.944620   -2.000770    0.919540
     19          1           0       -1.890930   -2.054260   -0.829630
 ---------------------------------------------------------------------
                    Distance matrix (angstroms):
                    1          2          3          4          5
     1  O    0.000000
     2  C    1.202027   0.000000
     3  C    2.385772   1.518992   0.000000
     4  O    3.500629   2.473723   1.410575   0.000000
     5  C    4.010229   2.843396   2.363029   1.360626   0.000000
     6  C    5.392010   4.235351   3.607438   2.348118   1.394391
     7  C    6.266283   5.107331   4.751726   3.621162   2.408163
     8  C    6.027097   4.924093   4.960519   4.119216   2.760212
     9  Br   7.688989   6.650500   6.824086   6.023187   4.664327
    10  C    4.847639   3.813170   4.166591   3.665284   2.397884
    11  C    3.640523   2.525068   2.792981   2.420513   1.394006
    12  C    2.388719   1.506899   2.544933   2.915414   2.523383
    13  H    2.557636   2.155062   1.092416   2.011781   3.237571
    14  H    2.930664   2.119259   1.103312   2.063314   2.784327
    15  H    5.926035   4.816486   3.908604   2.538808   2.130785
    16  H    7.313897   6.154873   5.700686   4.485583   3.388150
    17  H    5.053419   4.173646   4.823914   4.550987   3.377172
    18  H    2.786253   2.108945   3.106525   3.672878   3.251996
    19  H    2.607435   2.125491   3.388933   3.685978   3.241762
                    6          7          8          9         10
     6  C    0.000000
     7  C    1.378690   0.000000
     8  C    2.382588   1.385920   0.000000
     9  Br   4.142537   2.855660   1.904208   0.000000
    10  C    2.767644   2.409046   1.381535   2.848499   0.000000
    11  C    2.416020   2.794397   2.401160   4.154215   1.388304
    12  C    3.800335   4.295779   3.774457   5.339610   2.502201
    13  H    4.358462   5.605388   5.935974   7.820954   5.189507
    14  H    3.918250   4.982239   5.154430   6.952459   4.381821
    15  H    1.077701   2.142490   3.369234   4.998069   3.845083
    16  H    2.138622   1.078392   2.144298   2.963392   3.385257
    17  H    3.847212   3.385530   2.139012   2.949315   1.079628
    18  H    4.455398   4.813746   4.129023   5.503845   2.810061
    19  H    4.410195   4.754474   4.083447   5.457482   2.788247
                   11         12         13         14         15
    11  C    0.000000
    12  C    1.503127   0.000000
    13  H    3.806117   3.461685   0.000000
    14  H    3.124905   2.912508   1.783479   0.000000
    15  H    3.381695   4.651091   4.451318   4.221834   0.000000
    16  H    3.872750   5.373779   6.494518   5.904865   2.480476
    17  H    2.138453   2.693848   5.851939   4.994033   4.924649
    18  H    2.145551   1.096578   4.049715   3.107182   5.339910
    19  H    2.145449   1.094323   4.154862   3.917000   5.290428
                   16         17         18         19
    16  H    0.000000
    17  H    4.274159   0.000000
    18  H    5.875357   2.727904   0.000000
    19  H    5.805508   2.717913   1.750811   0.000000
 Stoichiometry    C9H7BrO2(1+,2)
 Framework group  C1[X(C9H7BrO2)]
 Deg. of freedom    51
 Full point group                 C1      NOp   1
 Largest Abelian subgroup         C1      NOp   1
 Largest concise Abelian subgroup C1      NOp   1
                         Standard orientation:                         
 ---------------------------------------------------------------------
 Center     Atomic      Atomic             Coordinates (Angstroms)
 Number     Number       Type             X           Y           Z
 ---------------------------------------------------------------------
      1          8           0       -4.369152   -1.434315   -0.326245
      2          6           0       -3.396782   -0.796794   -0.021397
      3          6           0       -3.489313    0.652184    0.424965
      4          8           0       -2.474575    1.498098   -0.069460
      5          6           0       -1.203613    1.012581   -0.054198
      6          6           0       -0.170650    1.944332   -0.149873
      7          6           0        1.145771    1.534876   -0.136948
      8          6           0        1.428818    0.183145   -0.020841
      9         35           0        3.241592   -0.398037    0.024836
     10          6           0        0.415427   -0.752990    0.052182
     11          6           0       -0.912324   -0.348275    0.026273
     12          6           0       -2.007318   -1.378022    0.026669
     13          1           0       -4.436739    1.086943    0.098250
     14          1           0       -3.465425    0.647467    1.528008
     15          1           0       -0.425559    2.988067   -0.234004
     16          1           0        1.944321    2.256107   -0.208184
     17          1           0        0.650943   -1.804464    0.119494
     18          1           0       -1.946632   -1.996476    0.930170
     19          1           0       -1.886914   -2.062834   -0.818364
 ---------------------------------------------------------------------
 Rotational constants (GHZ):           2.0452583           0.3005593           0.2644002
 Standard basis: MIDIx (5D, 7F)
 There are   154 symmetry adapted cartesian basis functions of A   symmetry.
 There are   150 symmetry adapted basis functions of A   symmetry.
   150 basis functions,   261 primitive gaussians,   154 cartesian basis functions
    56 alpha electrons       55 beta electrons
       nuclear repulsion energy       905.4181507771 Hartrees.
 NAtoms=   19 NActive=   19 NUniq=   19 SFac= 1.00D+00 NAtFMM=   60 NAOKFM=F Big=F
 Integral buffers will be    131072 words long.
 Raffenetti 2 integral format.
 Two-electron integral symmetry is turned on.
 Nuclear repulsion after empirical dispersion term =      905.4071553359 Hartrees.
 One-electron integrals computed using PRISM.
 NBasis=   150 RedAO= T EigKep=  1.04D-03  NBF=   150
 NBsUse=   150 1.00D-06 EigRej= -1.00D+00 NBFU=   150
 ExpMin= 1.47D-01 ExpMax= 6.10D+03 ExpMxC= 6.10D+03 IAcc=3 IRadAn=         5 AccDes= 0.00D+00
 Harris functional with IExCor= 4639 and IRadAn=       5 diagonalized for initial guess.
 HarFok:  IExCor= 4639 AccDes= 0.00D+00 IRadAn=         5 IDoV= 1 UseB2=F ITyADJ=14
 ICtDFT=  3500011 ScaDFX=  1.000000  1.000000  1.000000  1.000000
 FoFCou: FMM=F IPFlag=           0 FMFlag=      100000 FMFlg1=           0
         NFxFlg=           0 DoJE=T BraDBF=F KetDBF=T FulRan=T
         wScrn=  0.000000 ICntrl=       500 IOpCl=  0 I1Cent=   200000004 NGrid=           0
         NMat0=    1 NMatS0=      1 NMatT0=    0 NMatD0=    1 NMtDS0=    0 NMtDT0=    0
 Petite list used in FoFCou.
 Initial guess <Sx>= 0.0000 <Sy>= 0.0000 <Sz>= 0.5000 <S**2>= 0.7500 S= 0.5000
 Requested convergence on RMS density matrix=1.00D-08 within 128 cycles.
 Requested convergence on MAX density matrix=1.00D-06.
 Requested convergence on             energy=1.00D-06.
 No special actions if energy rises.
 Integral accuracy reduced to 1.0D-05 until final iterations.
 Initial convergence to 1.0D-05 achieved.  Increase integral accuracy.
 SCF Done:  E(UwB97XD) =  -3056.30659340     A.U. after   26 cycles
            NFock= 26  Conv=0.53D-08     -V/T= 2.0024
 <Sx>= 0.0000 <Sy>= 0.0000 <Sz>= 0.5000 <S**2>= 0.7658 S= 0.5078
 <L.S>= 0.000000000000E+00
 Annihilation of the first spin contaminant:
 S**2 before annihilation     0.7658,   after     0.7501

 **********************************************************************

            Population analysis using the SCF Density.

 **********************************************************************

 Orbital symmetries:
 Alpha Orbitals:
       Occupied  (A) (A) (A) (A) (A) (A) (A) (A) (A) (A) (A) (A)
                 (A) (A) (A) (A) (A) (A) (A) (A) (A) (A) (A) (A)
                 (A) (A) (A) (A) (A) (A) (A) (A) (A) (A) (A) (A)
                 (A) (A) (A) (A) (A) (A) (A) (A) (A) (A) (A) (A)
                 (A) (A) (A) (A) (A) (A) (A) (A)
       Virtual   (A) (A) (A) (A) (A) (A) (A) (A) (A) (A) (A) (A)
                 (A) (A) (A) (A) (A) (A) (A) (A) (A) (A) (A) (A)
                 (A) (A) (A) (A) (A) (A) (A) (A) (A) (A) (A) (A)
                 (A) (A) (A) (A) (A) (A) (A) (A) (A) (A) (A) (A)
                 (A) (A) (A) (A) (A) (A) (A) (A) (A) (A) (A) (A)
                 (A) (A) (A) (A) (A) (A) (A) (A) (A) (A) (A) (A)
                 (A) (A) (A) (A) (A) (A) (A) (A) (A) (A) (A) (A)
                 (A) (A) (A) (A) (A) (A) (A) (A) (A) (A)
 Beta  Orbitals:
       Occupied  (A) (A) (A) (A) (A) (A) (A) (A) (A) (A) (A) (A)
                 (A) (A) (A) (A) (A) (A) (A) (A) (A) (A) (A) (A)
                 (A) (A) (A) (A) (A) (A) (A) (A) (A) (A) (A) (A)
                 (A) (A) (A) (A) (A) (A) (A) (A) (A) (A) (A) (A)
                 (A) (A) (A) (A) (A) (A) (A)
       Virtual   (A) (A) (A) (A) (A) (A) (A) (A) (A) (A) (A) (A)
                 (A) (A) (A) (A) (A) (A) (A) (A) (A) (A) (A) (A)
                 (A) (A) (A) (A) (A) (A) (A) (A) (A) (A) (A) (A)
                 (A) (A) (A) (A) (A) (A) (A) (A) (A) (A) (A) (A)
                 (A) (A) (A) (A) (A) (A) (A) (A) (A) (A) (A) (A)
                 (A) (A) (A) (A) (A) (A) (A) (A) (A) (A) (A) (A)
                 (A) (A) (A) (A) (A) (A) (A) (A) (A) (A) (A) (A)
                 (A) (A) (A) (A) (A) (A) (A) (A) (A) (A) (A)
 The electronic state is 2-A.
 Alpha  occ. eigenvalues -- -480.33306 -62.76620 -56.35524 -56.35165 -56.35049
 Alpha  occ. eigenvalues --  -19.43881 -19.31909 -10.53178 -10.50448 -10.49744
 Alpha  occ. eigenvalues --  -10.47123 -10.46814 -10.44561 -10.44475 -10.44361
 Alpha  occ. eigenvalues --  -10.42266  -9.07446  -6.85906  -6.84701  -6.84304
 Alpha  occ. eigenvalues --   -2.96232  -2.95847  -2.95584  -2.94536  -2.94524
 Alpha  occ. eigenvalues --   -1.41518  -1.32668  -1.20347  -1.11728  -1.10226
 Alpha  occ. eigenvalues --   -1.04782  -1.03110  -0.97893  -0.92450  -0.91080
 Alpha  occ. eigenvalues --   -0.83841  -0.81368  -0.79228  -0.77240  -0.74036
 Alpha  occ. eigenvalues --   -0.73151  -0.72250  -0.71555  -0.69827  -0.69084
 Alpha  occ. eigenvalues --   -0.67723  -0.65931  -0.64536  -0.62971  -0.61873
 Alpha  occ. eigenvalues --   -0.60003  -0.56603  -0.53667  -0.52981  -0.50534
 Alpha  occ. eigenvalues --   -0.48774
 Alpha virt. eigenvalues --   -0.13941  -0.13466  -0.10373  -0.09191   0.01411
 Alpha virt. eigenvalues --    0.02840   0.04210   0.06003   0.06303   0.07902
 Alpha virt. eigenvalues --    0.09248   0.10663   0.11370   0.12368   0.14900
 Alpha virt. eigenvalues --    0.17215   0.20496   0.20903   0.23110   0.23940
 Alpha virt. eigenvalues --    0.30035   0.32070   0.34824   0.37882   0.40404
 Alpha virt. eigenvalues --    0.41781   0.43557   0.46392   0.46652   0.47449
 Alpha virt. eigenvalues --    0.48505   0.50446   0.51996   0.54612   0.54782
 Alpha virt. eigenvalues --    0.56941   0.57426   0.59272   0.60937   0.64131
 Alpha virt. eigenvalues --    0.65265   0.67537   0.68419   0.71146   0.73657
 Alpha virt. eigenvalues --    0.74536   0.76058   0.76762   0.77502   0.79473
 Alpha virt. eigenvalues --    0.80593   0.81396   0.82702   0.84006   0.84603
 Alpha virt. eigenvalues --    0.85079   0.85706   0.86851   0.88169   0.88945
 Alpha virt. eigenvalues --    0.91510   0.93529   0.95524   0.97212   1.00954
 Alpha virt. eigenvalues --    1.05668   1.07208   1.13484   1.16801   1.22103
 Alpha virt. eigenvalues --    1.25830   1.30261   1.32229   1.38140   1.40927
 Alpha virt. eigenvalues --    1.48364   1.48840   1.52224   1.56191   1.56440
 Alpha virt. eigenvalues --    1.69320   1.69966   1.71420   1.73974   1.74945
 Alpha virt. eigenvalues --    1.79867   1.82694   1.87610   1.94565   2.03448
 Alpha virt. eigenvalues --    2.15304   2.31276   2.47224   2.89571
  Beta  occ. eigenvalues -- -480.33262 -62.76590 -56.35508 -56.35054 -56.35027
  Beta  occ. eigenvalues --  -19.43238 -19.31831 -10.52972 -10.50103 -10.49727
  Beta  occ. eigenvalues --  -10.47122 -10.46670 -10.44546 -10.44447 -10.44383
  Beta  occ. eigenvalues --  -10.42258  -9.07387  -6.85890  -6.84532  -6.84279
  Beta  occ. eigenvalues --   -2.96199  -2.95775  -2.95576  -2.94462  -2.94455
  Beta  occ. eigenvalues --   -1.40062  -1.32483  -1.19668  -1.11010  -1.09786
  Beta  occ. eigenvalues --   -1.04497  -1.02688  -0.97308  -0.92020  -0.90558
  Beta  occ. eigenvalues --   -0.83543  -0.80940  -0.78243  -0.76526  -0.73675
  Beta  occ. eigenvalues --   -0.72866  -0.71966  -0.70948  -0.68852  -0.68571
  Beta  occ. eigenvalues --   -0.67128  -0.65320  -0.63520  -0.62031  -0.60835
  Beta  occ. eigenvalues --   -0.59561  -0.53422  -0.52923  -0.52471  -0.48126
  Beta virt. eigenvalues --   -0.30604  -0.12358  -0.11208  -0.10018  -0.08614
  Beta virt. eigenvalues --    0.01877   0.03522   0.04367   0.06164   0.06778
  Beta virt. eigenvalues --    0.07983   0.09415   0.10820   0.11556   0.12624
  Beta virt. eigenvalues --    0.15092   0.17553   0.20870   0.21189   0.23450
  Beta virt. eigenvalues --    0.24200   0.30316   0.32200   0.34976   0.38177
  Beta virt. eigenvalues --    0.40573   0.41979   0.43757   0.47452   0.47465
  Beta virt. eigenvalues --    0.47922   0.48766   0.50637   0.52245   0.54906
  Beta virt. eigenvalues --    0.55232   0.57063   0.57831   0.59442   0.61226
  Beta virt. eigenvalues --    0.64327   0.65640   0.67872   0.68768   0.71351
  Beta virt. eigenvalues --    0.73895   0.74684   0.76185   0.76938   0.77822
  Beta virt. eigenvalues --    0.79660   0.80909   0.81531   0.82917   0.84193
  Beta virt. eigenvalues --    0.84678   0.85191   0.85924   0.86970   0.88324
  Beta virt. eigenvalues --    0.89060   0.92146   0.93712   0.95781   0.97612
  Beta virt. eigenvalues --    1.01089   1.05851   1.07403   1.13671   1.16955
  Beta virt. eigenvalues --    1.22269   1.25979   1.30435   1.32643   1.38748
  Beta virt. eigenvalues --    1.41111   1.48723   1.49954   1.53132   1.56580
  Beta virt. eigenvalues --    1.56782   1.70450   1.70542   1.71702   1.74518
  Beta virt. eigenvalues --    1.75525   1.80074   1.83157   1.87961   1.95147
  Beta virt. eigenvalues --    2.03893   2.15635   2.32200   2.47748   2.89667
          Condensed to atoms (all electrons):
               1          2          3          4          5          6
     1  O    8.043311   0.540665  -0.070731   0.000551   0.000089   0.000000
     2  C    0.540665   4.588859   0.276064  -0.000298  -0.017489   0.000176
     3  C   -0.070731   0.276064   5.268145   0.099836  -0.049462   0.001173
     4  O    0.000551  -0.000298   0.099836   8.299470   0.279273  -0.042849
     5  C    0.000089  -0.017489  -0.049462   0.279273   4.646692   0.450457
     6  C    0.000000   0.000176   0.001173  -0.042849   0.450457   4.948692
     7  C    0.000000  -0.000007  -0.000084   0.002575  -0.027733   0.499510
     8  C   -0.000000  -0.000043   0.000008  -0.000098  -0.035345  -0.039889
     9  Br  -0.000000   0.000000  -0.000000   0.000000   0.000374   0.001295
    10  C   -0.000005   0.002071  -0.000339   0.001857  -0.014665  -0.013898
    11  C    0.003567  -0.016079   0.027063  -0.037579   0.389889  -0.044986
    12  C   -0.087894   0.243924  -0.194139  -0.009619  -0.002104   0.000593
    13  H    0.006039  -0.018838   0.354087  -0.014302   0.003447   0.000096
    14  H    0.001976  -0.034629   0.357874  -0.013359  -0.003792   0.000085
    15  H   -0.000000   0.000008   0.000035   0.000458  -0.021057   0.384184
    16  H    0.000000  -0.000000   0.000001  -0.000016   0.001891  -0.008559
    17  H    0.000000   0.000119   0.000008  -0.000010   0.001194   0.000066
    18  H    0.001867  -0.019445   0.004724   0.000051   0.000592  -0.000026
    19  H    0.005768  -0.017358   0.006654  -0.000023  -0.000028  -0.000090
               7          8          9         10         11         12
     1  O    0.000000  -0.000000  -0.000000  -0.000005   0.003567  -0.087894
     2  C   -0.000007  -0.000043   0.000000   0.002071  -0.016079   0.243924
     3  C   -0.000084   0.000008  -0.000000  -0.000339   0.027063  -0.194139
     4  O    0.002575  -0.000098   0.000000   0.001857  -0.037579  -0.009619
     5  C   -0.027733  -0.035345   0.000374  -0.014665   0.389889  -0.002104
     6  C    0.499510  -0.039889   0.001295  -0.013898  -0.044986   0.000593
     7  C    4.991560   0.405064  -0.034135  -0.050047  -0.031860   0.000206
     8  C    0.405064   5.083091   0.245676   0.442758  -0.016833   0.000569
     9  Br  -0.034135   0.245676  34.656254  -0.036944   0.001699  -0.000019
    10  C   -0.050047   0.442758  -0.036944   4.952500   0.448689  -0.022078
    11  C   -0.031860  -0.016833   0.001699   0.448689   5.325707   0.104611
    12  C    0.000206   0.000569  -0.000019  -0.022078   0.104611   5.675844
    13  H   -0.000001   0.000000   0.000000   0.000014  -0.000894   0.006893
    14  H   -0.000000   0.000001  -0.000000  -0.000038  -0.000066   0.003454
    15  H   -0.012860   0.002528  -0.000033  -0.000466   0.003829   0.000001
    16  H    0.379846  -0.015051   0.000820   0.002064  -0.000013   0.000002
    17  H    0.002017  -0.011662   0.001031   0.378091  -0.008953  -0.003529
    18  H    0.000002   0.000094  -0.000001  -0.006215  -0.014689   0.353482
    19  H    0.000023   0.000094  -0.000003  -0.005268  -0.012599   0.346987
              13         14         15         16         17         18
     1  O    0.006039   0.001976  -0.000000   0.000000   0.000000   0.001867
     2  C   -0.018838  -0.034629   0.000008  -0.000000   0.000119  -0.019445
     3  C    0.354087   0.357874   0.000035   0.000001   0.000008   0.004724
     4  O   -0.014302  -0.013359   0.000458  -0.000016  -0.000010   0.000051
     5  C    0.003447  -0.003792  -0.021057   0.001891   0.001194   0.000592
     6  C    0.000096   0.000085   0.384184  -0.008559   0.000066  -0.000026
     7  C   -0.000001  -0.000000  -0.012860   0.379846   0.002017   0.000002
     8  C    0.000000   0.000001   0.002528  -0.015051  -0.011662   0.000094
     9  Br   0.000000  -0.000000  -0.000033   0.000820   0.001031  -0.000001
    10  C    0.000014  -0.000038  -0.000466   0.002064   0.378091  -0.006215
    11  C   -0.000894  -0.000066   0.003829  -0.000013  -0.008953  -0.014689
    12  C    0.006893   0.003454   0.000001   0.000002  -0.003529   0.353482
    13  H    0.392475  -0.015792  -0.000023  -0.000000  -0.000000  -0.000127
    14  H   -0.015792   0.423619   0.000001   0.000000  -0.000001  -0.000055
    15  H   -0.000023   0.000001   0.365970  -0.003134   0.000004   0.000001
    16  H   -0.000000   0.000000  -0.003134   0.360338  -0.000039  -0.000000
    17  H   -0.000000  -0.000001   0.000004  -0.000039   0.371433   0.000888
    18  H   -0.000127  -0.000055   0.000001  -0.000000   0.000888   0.389339
    19  H   -0.000177  -0.000085   0.000001  -0.000000   0.000918  -0.010767
              19
     1  O    0.005768
     2  C   -0.017358
     3  C    0.006654
     4  O   -0.000023
     5  C   -0.000028
     6  C   -0.000090
     7  C    0.000023
     8  C    0.000094
     9  Br  -0.000003
    10  C   -0.005268
    11  C   -0.012599
    12  C    0.346987
    13  H   -0.000177
    14  H   -0.000085
    15  H    0.000001
    16  H   -0.000000
    17  H    0.000918
    18  H   -0.010767
    19  H    0.390154
          Atomic-Atomic Spin Densities.
               1          2          3          4          5          6
     1  O    0.045795  -0.012394   0.000576   0.000043  -0.000007   0.000000
     2  C   -0.012394   0.009079   0.013975  -0.002322  -0.000099  -0.000008
     3  C    0.000576   0.013975  -0.020248  -0.013626   0.000801  -0.000157
     4  O    0.000043  -0.002322  -0.013626   0.343252  -0.061276  -0.003428
     5  C   -0.000007  -0.000099   0.000801  -0.061276   0.149775   0.036681
     6  C    0.000000  -0.000008  -0.000157  -0.003428   0.036681   0.085366
     7  C   -0.000000   0.000002   0.000005   0.000132  -0.004685  -0.023308
     8  C    0.000000  -0.000001   0.000004   0.000020  -0.003925  -0.007826
     9  Br   0.000000  -0.000000  -0.000000  -0.000000   0.000025   0.000241
    10  C   -0.000001   0.000025   0.000007   0.000085  -0.005149  -0.000765
    11  C    0.000020  -0.000413  -0.000958  -0.004224   0.044033  -0.000669
    12  C    0.000945   0.004457   0.004228   0.001402  -0.003982   0.000059
    13  H   -0.000025  -0.000600   0.001197   0.000293  -0.000043   0.000001
    14  H    0.000490  -0.004073   0.002469  -0.004114   0.003086   0.000149
    15  H   -0.000000   0.000001   0.000001  -0.000019  -0.000553  -0.000366
    16  H    0.000000  -0.000000  -0.000000  -0.000000   0.000025   0.000002
    17  H    0.000000  -0.000001   0.000001  -0.000000   0.000040  -0.000011
    18  H    0.000243  -0.000712   0.000134  -0.000013  -0.000212  -0.000018
    19  H   -0.000444  -0.000189  -0.000317   0.000032  -0.000044   0.000005
               7          8          9         10         11         12
     1  O   -0.000000   0.000000   0.000000  -0.000001   0.000020   0.000945
     2  C    0.000002  -0.000001  -0.000000   0.000025  -0.000413   0.004457
     3  C    0.000005   0.000004  -0.000000   0.000007  -0.000958   0.004228
     4  O    0.000132   0.000020  -0.000000   0.000085  -0.004224   0.001402
     5  C   -0.004685  -0.003925   0.000025  -0.005149   0.044033  -0.003982
     6  C   -0.023308  -0.007826   0.000241  -0.000765  -0.000669   0.000059
     7  C   -0.030026   0.026547  -0.002155  -0.001198  -0.001283  -0.000020
     8  C    0.026547   0.288693  -0.044172   0.026631  -0.008474   0.000151
     9  Br  -0.002155  -0.044172   0.186958  -0.001755   0.000264  -0.000001
    10  C   -0.001198   0.026631  -0.001755  -0.062277  -0.024033   0.001266
    11  C   -0.001283  -0.008474   0.000264  -0.024033   0.136619  -0.009881
    12  C   -0.000020   0.000151  -0.000001   0.001266  -0.009881  -0.010840
    13  H    0.000000  -0.000000  -0.000000   0.000000   0.000015  -0.000126
    14  H   -0.000010  -0.000005   0.000000  -0.000032   0.000658   0.000618
    15  H   -0.000112   0.000032   0.000000  -0.000012  -0.000008  -0.000002
    16  H    0.000601  -0.000336  -0.000029   0.000002  -0.000008   0.000000
    17  H    0.000009  -0.000302  -0.000053   0.000915  -0.000046   0.000058
    18  H    0.000006   0.000027  -0.000001   0.000342  -0.002160   0.003420
    19  H   -0.000000   0.000012  -0.000001   0.000240  -0.001994   0.004290
              13         14         15         16         17         18
     1  O   -0.000025   0.000490  -0.000000   0.000000   0.000000   0.000243
     2  C   -0.000600  -0.004073   0.000001  -0.000000  -0.000001  -0.000712
     3  C    0.001197   0.002469   0.000001  -0.000000   0.000001   0.000134
     4  O    0.000293  -0.004114  -0.000019  -0.000000  -0.000000  -0.000013
     5  C   -0.000043   0.003086  -0.000553   0.000025   0.000040  -0.000212
     6  C    0.000001   0.000149  -0.000366   0.000002  -0.000011  -0.000018
     7  C    0.000000  -0.000010  -0.000112   0.000601   0.000009   0.000006
     8  C   -0.000000  -0.000005   0.000032  -0.000336  -0.000302   0.000027
     9  Br  -0.000000   0.000000   0.000000  -0.000029  -0.000053  -0.000001
    10  C    0.000000  -0.000032  -0.000012   0.000002   0.000915   0.000342
    11  C    0.000015   0.000658  -0.000008  -0.000008  -0.000046  -0.002160
    12  C   -0.000126   0.000618  -0.000002   0.000000   0.000058   0.003420
    13  H   -0.000958   0.000103   0.000000   0.000000  -0.000000  -0.000000
    14  H    0.000103   0.025304  -0.000003   0.000000  -0.000001  -0.000345
    15  H    0.000000  -0.000003  -0.004137   0.000047  -0.000000   0.000000
    16  H    0.000000   0.000000   0.000047   0.000042  -0.000000  -0.000000
    17  H   -0.000000  -0.000001  -0.000000  -0.000000   0.000972   0.000034
    18  H   -0.000000  -0.000345   0.000000  -0.000000   0.000034   0.011034
    19  H    0.000005   0.000025  -0.000000   0.000000  -0.000034  -0.001051
              19
     1  O   -0.000444
     2  C   -0.000189
     3  C   -0.000317
     4  O    0.000032
     5  C   -0.000044
     6  C    0.000005
     7  C   -0.000000
     8  C    0.000012
     9  Br  -0.000001
    10  C    0.000240
    11  C   -0.001994
    12  C    0.004290
    13  H    0.000005
    14  H    0.000025
    15  H   -0.000000
    16  H    0.000000
    17  H   -0.000034
    18  H   -0.001051
    19  H    0.002346
 Mulliken charges and spin densities:
               1          2
     1  O   -0.445204   0.035241
     2  C    0.472298   0.006725
     3  C   -0.080918  -0.011908
     4  O   -0.565921   0.256236
     5  C    0.397778   0.154490
     6  C   -0.136032   0.085949
     7  C   -0.124077  -0.035496
     8  C   -0.060962   0.277074
     9  Br   0.163985   0.139319
    10  C   -0.078079  -0.065711
    11  C   -0.120503   0.127457
    12  C   -0.417188  -0.003958
    13  H    0.287104  -0.000140
    14  H    0.280807   0.024320
    15  H    0.280553  -0.005131
    16  H    0.281848   0.000346
    17  H    0.268427   0.001581
    18  H    0.300285   0.010727
    19  H    0.295799   0.002880
 Sum of Mulliken charges =   1.00000   1.00000
 Mulliken charges and spin densities with hydrogens summed into heavy atoms:
               1          2
     1  O   -0.445204   0.035241
     2  C    0.472298   0.006725
     3  C    0.486992   0.012271
     4  O   -0.565921   0.256236
     5  C    0.397778   0.154490
     6  C    0.144521   0.080818
     7  C    0.157771  -0.035150
     8  C   -0.060962   0.277074
     9  Br   0.163985   0.139319
    10  C    0.190348  -0.064130
    11  C   -0.120503   0.127457
    12  C    0.178896   0.009649
 Electronic spatial extent (au):  <R**2>=           3547.4328
 Charge=              1.0000 electrons
 Dipole moment (field-independent basis, Debye):
    X=             -1.5086    Y=              1.7302    Z=              1.2150  Tot=              2.5973
 Quadrupole moment (field-independent basis, Debye-Ang):
   XX=            -52.2858   YY=            -65.5937   ZZ=            -77.0433
   XY=             -4.8983   XZ=             -5.4433   YZ=             -1.1177
 Traceless Quadrupole moment (field-independent basis, Debye-Ang):
   XX=             12.6885   YY=             -0.6195   ZZ=            -12.0690
   XY=             -4.8983   XZ=             -5.4433   YZ=             -1.1177
 Octapole moment (field-independent basis, Debye-Ang**2):
  XXX=             99.3353  YYY=              1.0415  ZZZ=              2.5912  XYY=             31.9595
  XXY=             22.9293  XXZ=             20.2514  XZZ=             16.5776  YZZ=             -7.2379
  YYZ=             -0.5608  XYZ=              0.5052
 Hexadecapole moment (field-independent basis, Debye-Ang**3):
 XXXX=          -2833.2484 YYYY=           -560.4681 ZZZZ=            -95.1218 XXXY=           -229.9475
 XXXZ=            -68.1973 YYYX=            -25.5781 YYYZ=             -8.6821 ZZZX=             -1.0001
 ZZZY=              3.1411 XXYY=           -624.5876 XXZZ=           -511.7736 YYZZ=           -122.9744
 XXYZ=             -8.7045 YYXZ=             -4.7335 ZZXY=             -9.6855
 N-N= 9.054071553359D+02 E-N=-9.065222376640D+03  KE= 3.049005077192D+03
 There are a total of      433164 grid points.
 ElSum from          density=      110.9999905375
 ElSum from atomic densities=      111.9999909991
 Hirshfeld populations at iteration   1 (CA, CB, DipXYZ):
               1          2          3          4          5
     1  O    4.095666   4.064807   0.019929   0.009020   0.006211
     2  C    2.914332   2.904896   0.017263   0.023905   0.018936
     3  C    2.977753   2.963178   0.019906   0.024399  -0.013182
     4  O    4.129314   3.896472  -0.012355  -0.075109   0.026320
     5  C    3.001093   2.857350  -0.074490   0.033972  -0.005799
     6  C    3.031429   2.956437  -0.034139   0.038837  -0.003743
     7  C    3.004738   2.987849   0.033323   0.031102  -0.003762
     8  C    3.053497   2.870926   0.031947  -0.003116   0.000156
     9  Br  17.501282  17.345548   0.182055  -0.054522   0.002425
    10  C    3.003918   3.002833   0.010844  -0.041860  -0.001396
    11  C    3.030972   2.937181  -0.045119  -0.007979  -0.006390
    12  C    3.021392   3.008645  -0.011646  -0.005550   0.002577
    13  H    0.458001   0.457515  -0.156448   0.069628  -0.043819
    14  H    0.468302   0.451515  -0.016074  -0.003526   0.167852
    15  H    0.458666   0.455678  -0.036280   0.180688  -0.015552
    16  H    0.459323   0.459565   0.121626   0.135803  -0.013731
    17  H    0.461751   0.462686   0.026762  -0.175173   0.011269
    18  H    0.464959   0.456401   0.004546  -0.109735   0.136607
    19  H    0.463607   0.460512   0.014065  -0.118357  -0.128550
       Tot  55.999995  54.999995   0.095715  -0.047572   0.136431

 Dip from Atomic Chgs             -0.689286   0.728293   0.341579
         Total Dipole             -0.593571   0.680721   0.478010

 Hirshfeld charges, spin densities, dipoles, and CM5 charges using IRadAn=      5:
              Q-H        S-H        Dx         Dy         Dz        Q-CM5   
     1  O   -0.160473   0.030859   0.019929   0.009020   0.006211  -0.210981
     2  C    0.180772   0.009436   0.017263   0.023905   0.018936   0.204903
     3  C    0.059069   0.014576   0.019906   0.024399  -0.013182  -0.010958
     4  O   -0.025786   0.232843  -0.012355  -0.075109   0.026320  -0.106650
     5  C    0.141557   0.143743  -0.074490   0.033972  -0.005799   0.161356
     6  C    0.012134   0.074991  -0.034139   0.038837  -0.003743  -0.038689
     7  C    0.007412   0.016889   0.033323   0.031102  -0.003762  -0.046689
     8  C    0.075577   0.182570   0.031947  -0.003116   0.000156   0.054463
     9  Br   0.153170   0.155734   0.182055  -0.054522   0.002425   0.167806
    10  C   -0.006750   0.001085   0.010844  -0.041860  -0.001396  -0.058642
    11  C    0.031847   0.093791  -0.045119  -0.007979  -0.006390   0.022541
    12  C   -0.030037   0.012747  -0.011646  -0.005550   0.002577  -0.123372
    13  H    0.084484   0.000486  -0.156448   0.069628  -0.043819   0.151442
    14  H    0.080183   0.016787  -0.016074  -0.003526   0.167852   0.143955
    15  H    0.085657   0.002988  -0.036280   0.180688  -0.015552   0.145896
    16  H    0.081112  -0.000242   0.121626   0.135803  -0.013731   0.138736
    17  H    0.075563  -0.000935   0.026762  -0.175173   0.011269   0.134058
    18  H    0.078640   0.008558   0.004546  -0.109735   0.136607   0.136295
    19  H    0.075881   0.003095   0.014065  -0.118357  -0.128550   0.134539
       Tot   1.000009   1.000000   0.095715  -0.047572   0.136431   1.000009
 Hirshfeld charges and spin densities with hydrogens summed into heavy atoms:
              Q-H        S-H       Q-CM5   
     1  O   -0.160473   0.030859  -0.210981
     2  C    0.180772   0.009436   0.204903
     3  C    0.223735   0.031848   0.284440
     4  O   -0.025786   0.232843  -0.106650
     5  C    0.141557   0.143743   0.161356
     6  C    0.097791   0.077979   0.107207
     7  C    0.088524   0.016647   0.092047
     8  C    0.075577   0.182570   0.054463
     9  Br   0.153170   0.155734   0.167806
    10  C    0.068813   0.000150   0.075416
    11  C    0.031847   0.093791   0.022541
    12  C    0.124484   0.024399   0.147462
 
 EQQ= 0.851292816630E-01 EQD=-0.358704561442E-01 EDD= 0.324766565083E-02
 EQQ+QD+DD= 0.525064911696E-01
 
                          Isotropic Fermi Contact Couplings
        Atom                 a.u.       MegaHertz       Gauss      10(-4) cm-1
     1  O(17)              0.00544      -3.29821      -1.17688      -1.10016
     2  C(13)              0.00109       1.22983       0.43883       0.41023
     3  C(13)             -0.00076      -0.85397      -0.30472      -0.28485
     4  O(17)              0.05809     -35.21181     -12.56445     -11.74539
     5  C(13)              0.00775       8.70688       3.10683       2.90430
     6  C(13)              0.00549       6.17035       2.20173       2.05821
     7  C(13)             -0.00699      -7.85905      -2.80430      -2.62150
     8  C(13)              0.02814      31.63385      11.28774      10.55192
     9  Br(79)             0.01602      17.99956       6.42269       6.00401
    10  C(13)             -0.01010     -11.35814      -4.05287      -3.78867
    11  C(13)              0.00910      10.22659       3.64910       3.41122
    12  C(13)             -0.00017      -0.18989      -0.06776      -0.06334
    13  H(1)               0.00000       0.01052       0.00375       0.00351
    14  H(1)               0.00910      40.66410      14.50996      13.56408
    15  H(1)              -0.00134      -5.97264      -2.13119      -1.99226
    16  H(1)               0.00003       0.13895       0.04958       0.04635
    17  H(1)               0.00033       1.48907       0.53134       0.49670
    18  H(1)               0.00474      21.18581       7.55962       7.06683
    19  H(1)               0.00171       7.64417       2.72763       2.54982
 --------------------------------------------------------
       Center         ----  Spin Dipole Couplings  ----
                      3XX-RR        3YY-RR        3ZZ-RR
 --------------------------------------------------------
     1   Atom       -0.022659      0.084550     -0.061891
     2   Atom       -0.004561      0.019382     -0.014821
     3   Atom       -0.003143     -0.002676      0.005819
     4   Atom       -0.475064     -0.387649      0.862713
     5   Atom       -0.092234     -0.093019      0.185253
     6   Atom       -0.043233     -0.044034      0.087267
     7   Atom        0.000964      0.005207     -0.006171
     8   Atom       -0.136067     -0.142610      0.278677
     9   Atom       -0.989356     -0.829985      1.819341
    10   Atom        0.019158      0.013815     -0.032973
    11   Atom       -0.065726     -0.056928      0.122654
    12   Atom        0.001278     -0.000261     -0.001017
    13   Atom        0.009323     -0.004094     -0.005229
    14   Atom        0.001247     -0.003712      0.002464
    15   Atom       -0.006244      0.011570     -0.005327
    16   Atom       -0.000779      0.005125     -0.004346
    17   Atom        0.001267      0.003090     -0.004357
    18   Atom       -0.001892      0.003000     -0.001108
    19   Atom       -0.001404      0.004350     -0.002946
 --------------------------------------------------------
                        XY            XZ            YZ
 --------------------------------------------------------
     1   Atom       -0.079622     -0.016230      0.027897
     2   Atom       -0.001691     -0.000586      0.006245
     3   Atom        0.006756     -0.007923      0.008026
     4   Atom        0.071146      0.212253      0.424250
     5   Atom       -0.001577      0.019025      0.044506
     6   Atom        0.003802     -0.013161      0.002597
     7   Atom       -0.002375     -0.006604     -0.001030
     8   Atom       -0.004013     -0.002719      0.035706
     9   Atom        0.048837     -0.057086      0.189366
    10   Atom        0.003230      0.007732     -0.006243
    11   Atom       -0.001021      0.011178     -0.007934
    12   Atom       -0.003750      0.011136     -0.005759
    13   Atom        0.000863     -0.001421      0.000097
    14   Atom        0.002097     -0.005269     -0.003692
    15   Atom        0.001820     -0.000419     -0.002126
    16   Atom        0.002239     -0.000287     -0.000569
    17   Atom        0.002463     -0.000038     -0.000532
    18   Atom        0.001844     -0.001180     -0.003033
    19   Atom        0.000319     -0.000365      0.002920
 --------------------------------------------------------


 ---------------------------------------------------------------------------------
              Anisotropic Spin Dipole Couplings in Principal Axis System
 ---------------------------------------------------------------------------------

       Atom             a.u.   MegaHertz   Gauss  10(-4) cm-1        Axes

              Baa    -0.0678     4.904     1.750     1.636  0.4255  0.0570  0.9032
     1 O(17)  Bbb    -0.0645     4.668     1.666     1.557  0.7767  0.4892 -0.3968
              Bcc     0.1323    -9.572    -3.416    -3.193 -0.4644  0.8703  0.1639
 
              Baa    -0.0159    -2.138    -0.763    -0.713  0.0250 -0.1729  0.9846
     2 C(13)  Bbb    -0.0047    -0.628    -0.224    -0.209  0.9972  0.0733 -0.0125
              Bcc     0.0206     2.766     0.987     0.923 -0.0700  0.9822  0.1743
 
              Baa    -0.0156    -2.094    -0.747    -0.698  0.6320 -0.6194  0.4658
     3 C(13)  Bbb     0.0038     0.516     0.184     0.172  0.7086  0.7052 -0.0235
              Bcc     0.0118     1.578     0.563     0.526 -0.3139  0.3449  0.8846
 
              Baa    -0.5206    37.669    13.441    12.565 -0.4138  0.8862 -0.2083
     4 O(17)  Bbb    -0.5058    36.602    13.061    12.209  0.8984  0.3604 -0.2511
              Bcc     1.0264   -74.271   -26.502   -24.774  0.1474  0.2910  0.9453
 
              Baa    -0.1022   -13.720    -4.896    -4.577  0.4527  0.8761 -0.1656
     5 C(13)  Bbb    -0.0912   -12.233    -4.365    -4.080  0.8893 -0.4572  0.0124
              Bcc     0.1934    25.953     9.261     8.657  0.0648  0.1529  0.9861
 
              Baa    -0.0484    -6.489    -2.315    -2.164  0.7229 -0.6859  0.0833
     6 C(13)  Bbb    -0.0403    -5.403    -1.928    -1.802  0.6838  0.7275  0.0558
              Bcc     0.0886    11.892     4.243     3.967 -0.0988  0.0166  0.9950
 
              Baa    -0.0104    -1.395    -0.498    -0.465  0.5189  0.1347  0.8441
     7 C(13)  Bbb     0.0037     0.493     0.176     0.164  0.6137  0.6287 -0.4776
              Bcc     0.0067     0.902     0.322     0.301 -0.5950  0.7659  0.2436
 
              Baa    -0.1469   -19.716    -7.035    -6.577  0.3286  0.9414 -0.0769
     8 C(13)  Bbb    -0.1348   -18.086    -6.453    -6.033  0.9445 -0.3268  0.0344
              Bcc     0.2817    37.802    13.489    12.609 -0.0073  0.0839  0.9964
 
              Baa    -1.0073  -135.123   -48.215   -45.072  0.9517 -0.3043  0.0396
     9 Br(79) Bbb    -0.8265  -110.861   -39.558   -36.979  0.3063  0.9499 -0.0614
              Bcc     1.8338   245.984    87.773    82.051 -0.0189  0.0706  0.9973
 
              Baa    -0.0350    -4.697    -1.676    -1.567 -0.1479  0.1351  0.9797
    10 C(13)  Bbb     0.0139     1.866     0.666     0.622 -0.3144  0.9328 -0.1761
              Bcc     0.0211     2.831     1.010     0.944  0.9377  0.3340  0.0955
 
              Baa    -0.0664    -8.913    -3.180    -2.973  0.9966  0.0600 -0.0564
    11 C(13)  Bbb    -0.0572    -7.682    -2.741    -2.562 -0.0574  0.9972  0.0475
              Bcc     0.1237    16.595     5.922     5.536  0.0591 -0.0441  0.9973
 
              Baa    -0.0114    -1.530    -0.546    -0.510 -0.6161  0.1881  0.7649
    12 C(13)  Bbb    -0.0030    -0.398    -0.142    -0.133  0.4368  0.8896  0.1331
              Bcc     0.0144     1.928     0.688     0.643  0.6554 -0.4161  0.6303
 
              Baa    -0.0054    -2.877    -1.027    -0.960  0.1034 -0.1419  0.9845
    13 H(1)   Bbb    -0.0041    -2.199    -0.785    -0.733 -0.0478  0.9879  0.1474
              Bcc     0.0095     5.076     1.811     1.693  0.9935  0.0623 -0.0954
 
              Baa    -0.0055    -2.918    -1.041    -0.973  0.0967  0.8763  0.4720
    14 H(1)   Bbb    -0.0031    -1.655    -0.590    -0.552  0.7850 -0.3587  0.5051
              Bcc     0.0086     4.573     1.632     1.525 -0.6119 -0.3217  0.7225
 
              Baa    -0.0065    -3.454    -1.233    -1.152  0.9724 -0.0719  0.2222
    15 H(1)   Bbb    -0.0055    -2.961    -1.056    -0.988 -0.2104  0.1425  0.9672
              Bcc     0.0120     6.415     2.289     2.140  0.1012  0.9872 -0.1234
 
              Baa    -0.0044    -2.341    -0.835    -0.781  0.0496  0.0480  0.9976
    16 H(1)   Bbb    -0.0015    -0.816    -0.291    -0.272  0.9465 -0.3212 -0.0316
              Bcc     0.0059     3.157     1.126     1.053  0.3189  0.9458 -0.0614
 
              Baa    -0.0044    -2.347    -0.837    -0.783 -0.0280  0.0800  0.9964
    17 H(1)   Bbb    -0.0004    -0.229    -0.082    -0.076  0.8222 -0.5650  0.0685
              Bcc     0.0048     2.576     0.919     0.859  0.5685  0.8212 -0.0499
 
              Baa    -0.0028    -1.508    -0.538    -0.503  0.5143  0.2622  0.8165
    18 H(1)   Bbb    -0.0024    -1.306    -0.466    -0.436  0.8066 -0.4715 -0.3566
              Bcc     0.0053     2.814     1.004     0.939  0.2915  0.8420 -0.4540
 
              Baa    -0.0040    -2.160    -0.771    -0.720  0.1680 -0.3295  0.9291
    19 H(1)   Bbb    -0.0013    -0.711    -0.254    -0.237  0.9854  0.0306 -0.1673
              Bcc     0.0054     2.870     1.024     0.957  0.0267  0.9437  0.3298
 

 ---------------------------------------------------------------------------------

 Running external command "gaunbo6 R"
         input file       "/home/rpaton/arbr500/xtb/fukui/Gau-2150005.EIn"
         output file      "/home/rpaton/arbr500/xtb/fukui/Gau-2150005.EOu"
         message file     "/home/rpaton/arbr500/xtb/fukui/Gau-2150005.EMs"
         fchk file        "/home/rpaton/arbr500/xtb/fukui/Gau-2150005.EFC"
         mat. el file     "/home/rpaton/arbr500/xtb/fukui/Gau-2150005.EUF"

 Writing WrtUnf unformatted file "/home/rpaton/arbr500/xtb/fukui/Gau-2150005.EUF"
 Gaussian matrix elements                                         Version   2 NLab=11 Len12L=8 Len4L=8
 Write SHELL TO ATOM MAP                   from file      0 offset           0 length                  82 to matrix element file.
 Write SHELL TYPES                         from file      0 offset           0 length                  82 to matrix element file.
 Write NUMBER OF PRIMITIVES PER SHELL      from file      0 offset           0 length                  82 to matrix element file.
 Write PRIMITIVE EXPONENTS                 from file      0 offset           0 length                 147 to matrix element file.
 Write CONTRACTION COEFFICIENTS            from file      0 offset           0 length                 147 to matrix element file.
 Write P(S=P) CONTRACTION COEFFICIENTS     from file      0 offset           0 length                 147 to matrix element file.
 Write COORDINATES OF EACH SHELL           from file      0 offset           0 length                 246 to matrix element file.
 Write BONDS PER ATOM                      from file      0 offset           0 length                  19 to matrix element file.
 Write BONDED ATOMS                        from file      0 offset           0 length                  40 to matrix element file.
 Write BOND TYPES                          from file      0 offset           0 length                  40 to matrix element file.
 Write ONIOM CHARGE/MULT                   from file      0 offset           0 length                  32 to matrix element file.
 Write ONIOM ATOM LAYERS                   from file      0 offset           0 length                  19 to matrix element file.
 Write ONIOM ATOM MODIFIERS                from file      0 offset           0 length                  19 to matrix element file.
 Write ONIOM ATOM TYPES                    from file      0 offset           0 length                  19 to matrix element file.
 Write ONIOM LINK ATOMS                    from file      0 offset           0 length                  19 to matrix element file.
 Write ONIOM LINK CHARGES                  from file      0 offset           0 length                  19 to matrix element file.
 Write ONIOM LINK DISTANCES                from file      0 offset           0 length                  76 to matrix element file.
 Write SYMINF INTS                         from file      0 offset           0 length                  26 to matrix element file.
 Write ROTTR TO SO                         from file      0 offset           0 length                  12 to matrix element file.
 Write GAUSSIAN SCALARS                    from file    501 offset           0 to matrix element file.
 Write OPTIMIZATION FLAGS                  from file      0 offset           0 length                  19 to matrix element file.
 Write INTEGER ISO                         from file      0 offset           0 length                  19 to matrix element file.
 Write INTEGER SPIN                        from file      0 offset           0 length                  19 to matrix element file.
 Write REAL ZEFFECTIVE                     from file      0 offset           0 length                  19 to matrix element file.
 Write REAL QUADRUPOLEMOMENT               from file      0 offset           0 length                  19 to matrix element file.
 Write REAL GFACTOR                        from file      0 offset           0 length                  19 to matrix element file.
 Write REAL ZNUCLEAR                       from file      0 offset           0 length                  19 to matrix element file.
 Write MULLIKEN CHARGES                    from file      0 offset           0 length                  19 to matrix element file.
 Write TYPE 6 CHARGES                      from file      0 offset           0 length                  19 to matrix element file.
 Write TYPE 7 CHARGES                      from file      0 offset           0 length                  19 to matrix element file.
 Write NUCLEAR GRADIENT                    from file  10584 offset           0 length                  57 to matrix element file.
 Array NUCLEAR FORCE CONSTANTS              on  file  10585 does not exist.
 Write ELECTRIC DIPOLE MOMENT              from file      0 offset           0 length                   3 to matrix element file.
 Write NON-ADIABATIC COUPLING              from file  10810 offset           0 length                  57 to matrix element file.
 Write FINITE EM FIELD                     from file  10521 offset           0 length                  35 to matrix element file.
 Write OVERLAP                             from file  10514 offset           0 length               11325 to matrix element file.
 Write CORE HAMILTONIAN ALPHA              from file  10515 offset           0 length               11325 to matrix element file.
 Write CORE HAMILTONIAN BETA               from file  10515 offset       11325 length               11325 to matrix element file.
 Write KINETIC ENERGY                      from file  10516 offset           0 length               11325 to matrix element file.
 Write ORTHOGONAL BASIS                    from file  10685 offset           0 length               22500 to matrix element file.
 Write DIPOLE INTEGRALS                    from file  10518 offset           0 length               33975 to matrix element file.
 Array DIP VEL INTEGRALS                    on  file  10572 does not exist.
 Array R X DEL INTEGRALS                    on  file  10572 does not exist.
 Write ALPHA ORBITAL ENERGIES              from file      0 offset           0 length                 150 to matrix element file.
 Write BETA ORBITAL ENERGIES               from file      0 offset           0 length                 150 to matrix element file.
 Write ALPHA MO COEFFICIENTS               from file  10524 offset           0 length               22500 to matrix element file.
 Write BETA MO COEFFICIENTS                from file  10526 offset           0 length               22500 to matrix element file.
 Write ALPHA DENSITY MATRIX                from file      0 offset           0 length               11325 to matrix element file.
 Write BETA DENSITY MATRIX                 from file      0 offset           0 length               11325 to matrix element file.
 Write ALPHA FOCK MATRIX                   from file  10536 offset           0 length               11325 to matrix element file.
 Write BETA FOCK MATRIX                    from file  10538 offset           0 length               11325 to matrix element file.
 Write ENERGY-WEIGHTED DENSITY             from file  10571 offset           0 length               11325 to matrix element file.
 Write ALPHA SCF DENSITY MATRIX            from file      0 offset           0 length               11325 to matrix element file.
 Write BETA SCF DENSITY MATRIX             from file      0 offset           0 length               11325 to matrix element file.
 No 2e integrals to process.
 Perform NBO analysis...

 *********************************** NBO 7.0 ***********************************
             N A T U R A L   A T O M I C   O R B I T A L   A N D
          N A T U R A L   B O N D   O R B I T A L   A N A L Y S I S
 **************************** Robert Paton (I101709) ***************************
  (c) Copyright 1996-2019 Board of Regents of the University of Wisconsin System
      on behalf of the Theoretical Chemistry Institute.  All rights reserved.

          Cite this program [NBO 7.0.5 (4-Jun-2019)] as:

          NBO 7.0.  E. D. Glendening, J. K. Badenhoop, A. E. Reed,
          J. E. Carpenter, J. A. Bohmann, C. M. Morales, P. Karafiloglou,
          C. R. Landis, and F. Weinhold, Theoretical Chemistry Institute,
          University of Wisconsin, Madison, WI (2018)

 Filename set to /home/rpaton/arbr500/xtb/fukui/Gau-2150005

 Job title:  energy: -35.049283102289 gnorm: 0.000814436820 xtb: 6.7.0 (08769fc)


 NATURAL POPULATIONS:  Natural atomic orbital occupancies

  NAO Atom No lang   Type(AO)    Occupancy     Spin
 -----------------------------------------------------
   1    O  1  s      Cor( 1s)     1.99990     0.00000
   2    O  1  s      Val( 2s)     1.69356     0.00052
   3    O  1  s      Ryd( 3s)     0.00085    -0.00001
   4    O  1  px     Val( 2p)     1.67535     0.00786
   5    O  1  px     Ryd( 3p)     0.00078     0.00001
   6    O  1  py     Val( 2p)     1.73087     0.02455
   7    O  1  py     Ryd( 3p)     0.00143     0.00003
   8    O  1  pz     Val( 2p)     1.28171     0.00127
   9    O  1  pz     Ryd( 3p)     0.00029     0.00000
  10    O  1  dxy    Ryd( 3d)     0.00487     0.00001
  11    O  1  dxz    Ryd( 3d)     0.00347     0.00000
  12    O  1  dyz    Ryd( 3d)     0.00168     0.00001
  13    O  1  dx2y2  Ryd( 3d)     0.00403     0.00001
  14    O  1  dz2    Ryd( 3d)     0.00206     0.00000

  15    C  2  s      Cor( 1s)     1.99990     0.00000
  16    C  2  s      Val( 2s)     0.83641     0.00047
  17    C  2  s      Ryd( 3s)     0.00435    -0.00002
  18    C  2  px     Val( 2p)     0.87509     0.00017
  19    C  2  px     Ryd( 3p)     0.01398    -0.00006
  20    C  2  py     Val( 2p)     0.93116     0.00592
  21    C  2  py     Ryd( 3p)     0.00826    -0.00002
  22    C  2  pz     Val( 2p)     0.79869    -0.00096
  23    C  2  pz     Ryd( 3p)     0.00334    -0.00001

  24    C  3  s      Cor( 1s)     1.99976     0.00000
  25    C  3  s      Val( 2s)     1.07220    -0.00142
  26    C  3  s      Ryd( 3s)     0.00195    -0.00003
  27    C  3  px     Val( 2p)     0.99576    -0.00416
  28    C  3  px     Ryd( 3p)     0.00423     0.00001
  29    C  3  py     Val( 2p)     0.98382    -0.00249
  30    C  3  py     Ryd( 3p)     0.00392     0.00004
  31    C  3  pz     Val( 2p)     1.19355     0.00348
  32    C  3  pz     Ryd( 3p)     0.00101     0.00001

  33    O  4  s      Cor( 1s)     1.99985     0.00000
  34    O  4  s      Val( 2s)     1.59321     0.00673
  35    O  4  s      Ryd( 3s)     0.00081     0.00001
  36    O  4  px     Val( 2p)     1.38488     0.01012
  37    O  4  px     Ryd( 3p)     0.00032     0.00001
  38    O  4  py     Val( 2p)     1.72312     0.02277
  39    O  4  py     Ryd( 3p)     0.00200     0.00001
  40    O  4  pz     Val( 2p)     1.61109     0.22292
  41    O  4  pz     Ryd( 3p)     0.00092     0.00023
  42    O  4  dxy    Ryd( 3d)     0.00412     0.00000
  43    O  4  dxz    Ryd( 3d)     0.00137    -0.00018
  44    O  4  dyz    Ryd( 3d)     0.00267     0.00004
  45    O  4  dx2y2  Ryd( 3d)     0.00251     0.00001
  46    O  4  dz2    Ryd( 3d)     0.00224    -0.00004

  47    C  5  s      Cor( 1s)     1.99986     0.00000
  48    C  5  s      Val( 2s)     0.82755     0.00290
  49    C  5  s      Ryd( 3s)     0.00098     0.00003
  50    C  5  px     Val( 2p)     0.80793    -0.00334
  51    C  5  px     Ryd( 3p)     0.00609     0.00009
  52    C  5  py     Val( 2p)     1.05236     0.00118
  53    C  5  py     Ryd( 3p)     0.00702    -0.00002
  54    C  5  pz     Val( 2p)     0.90922     0.14616
  55    C  5  pz     Ryd( 3p)     0.00105    -0.00032

  56    C  6  s      Cor( 1s)     1.99985     0.00000
  57    C  6  s      Val( 2s)     0.96496     0.00223
  58    C  6  s      Ryd( 3s)     0.00094     0.00000
  59    C  6  px     Val( 2p)     1.06732     0.00017
  60    C  6  px     Ryd( 3p)     0.00604     0.00001
  61    C  6  py     Val( 2p)     1.22529     0.00075
  62    C  6  py     Ryd( 3p)     0.00480     0.00002
  63    C  6  pz     Val( 2p)     0.95106     0.07795
  64    C  6  pz     Ryd( 3p)     0.00044    -0.00003

  65    C  7  s      Cor( 1s)     1.99986     0.00000
  66    C  7  s      Val( 2s)     0.95914    -0.00206
  67    C  7  s      Ryd( 3s)     0.00105     0.00002
  68    C  7  px     Val( 2p)     1.16674    -0.00165
  69    C  7  px     Ryd( 3p)     0.00716     0.00006
  70    C  7  py     Val( 2p)     1.13542    -0.00461
  71    C  7  py     Ryd( 3p)     0.00546     0.00002
  72    C  7  pz     Val( 2p)     0.94441    -0.00472
  73    C  7  pz     Ryd( 3p)     0.00046    -0.00005

  74    C  8  s      Cor( 1s)     1.99989     0.00000
  75    C  8  s      Val( 2s)     0.95291     0.00970
  76    C  8  s      Ryd( 3s)     0.00052    -0.00003
  77    C  8  px     Val( 2p)     1.04298     0.00617
  78    C  8  px     Ryd( 3p)     0.00717    -0.00012
  79    C  8  py     Val( 2p)     1.09980     0.00608
  80    C  8  py     Ryd( 3p)     0.00883    -0.00007
  81    C  8  pz     Val( 2p)     0.93686     0.21126
  82    C  8  pz     Ryd( 3p)     0.00118    -0.00026

  83   Br  9  s      Cor( 3s)     2.00000     0.00000
  84   Br  9  s      Cor( 1s)     2.00000     0.00000
  85   Br  9  s      Cor( 2s)     1.99999     0.00000
  86   Br  9  s      Val( 4s)     1.88119     0.00134
  87   Br  9  s      Ryd( 5s)     0.00297     0.00010
  88   Br  9  px     Cor( 3p)     2.00000     0.00000
  89   Br  9  px     Cor( 2p)     1.99999     0.00000
  90   Br  9  px     Val( 4p)     1.14075    -0.00861
  91   Br  9  px     Ryd( 5p)     0.00335     0.00009
  92   Br  9  py     Cor( 3p)     2.00000     0.00000
  93   Br  9  py     Cor( 2p)     1.99999     0.00000
  94   Br  9  py     Val( 4p)     1.89140     0.00025
  95   Br  9  py     Ryd( 5p)     0.00165    -0.00001
  96   Br  9  pz     Cor( 3p)     2.00000     0.00000
  97   Br  9  pz     Cor( 2p)     2.00000     0.00000
  98   Br  9  pz     Val( 4p)     1.78895     0.15635
  99   Br  9  pz     Ryd( 5p)     0.00066     0.00011
 100   Br  9  dxy    Cor( 3d)     1.99960     0.00000
 101   Br  9  dxy    Ryd( 4d)     0.00233    -0.00006
 102   Br  9  dxz    Cor( 3d)     1.99987     0.00001
 103   Br  9  dxz    Ryd( 4d)     0.00238    -0.00050
 104   Br  9  dyz    Cor( 3d)     1.99998     0.00000
 105   Br  9  dyz    Ryd( 4d)     0.00026    -0.00005
 106   Br  9  dx2y2  Cor( 3d)     1.99951     0.00000
 107   Br  9  dx2y2  Ryd( 4d)     0.00370    -0.00008
 108   Br  9  dz2    Cor( 3d)     1.99980     0.00000
 109   Br  9  dz2    Ryd( 4d)     0.00162     0.00005

 110    C 10  s      Cor( 1s)     1.99985     0.00000
 111    C 10  s      Val( 2s)     0.94385    -0.00311
 112    C 10  s      Ryd( 3s)     0.00142     0.00001
 113    C 10  px     Val( 2p)     1.05836    -0.00478
 114    C 10  px     Ryd( 3p)     0.00587     0.00004
 115    C 10  py     Val( 2p)     1.23640    -0.00304
 116    C 10  py     Ryd( 3p)     0.00705     0.00004
 117    C 10  pz     Val( 2p)     0.96253    -0.02585
 118    C 10  pz     Ryd( 3p)     0.00038    -0.00004

 119    C 11  s      Cor( 1s)     1.99989     0.00000
 120    C 11  s      Val( 2s)     0.86856     0.00324
 121    C 11  s      Ryd( 3s)     0.00097     0.00000
 122    C 11  px     Val( 2p)     1.10891     0.00271
 123    C 11  px     Ryd( 3p)     0.00503     0.00002
 124    C 11  py     Val( 2p)     1.08788    -0.00061
 125    C 11  py     Ryd( 3p)     0.00346     0.00001
 126    C 11  pz     Val( 2p)     0.95793     0.10576
 127    C 11  pz     Ryd( 3p)     0.00114     0.00003

 128    C 12  s      Cor( 1s)     1.99975     0.00000
 129    C 12  s      Val( 2s)     1.05154    -0.00049
 130    C 12  s      Ryd( 3s)     0.00156    -0.00001
 131    C 12  px     Val( 2p)     1.06213     0.00164
 132    C 12  px     Ryd( 3p)     0.00327     0.00005
 133    C 12  py     Val( 2p)     1.18862    -0.00021
 134    C 12  py     Ryd( 3p)     0.00341     0.00006
 135    C 12  pz     Val( 2p)     1.31062     0.00261
 136    C 12  pz     Ryd( 3p)     0.00114     0.00002

 137    H 13  s      Val( 1s)     0.69574    -0.00024
 138    H 13  s      Ryd( 2s)     0.00199     0.00001

 139    H 14  s      Val( 1s)     0.70942     0.01803
 140    H 14  s      Ryd( 2s)     0.00118     0.00020

 141    H 15  s      Val( 1s)     0.69629    -0.00282
 142    H 15  s      Ryd( 2s)     0.00126    -0.00003

 143    H 16  s      Val( 1s)     0.69539     0.00017
 144    H 16  s      Ryd( 2s)     0.00109    -0.00001

 145    H 17  s      Val( 1s)     0.70181     0.00087
 146    H 17  s      Ryd( 2s)     0.00115    -0.00001

 147    H 18  s      Val( 1s)     0.66974     0.00877
 148    H 18  s      Ryd( 2s)     0.00095     0.00011

 149    H 19  s      Val( 1s)     0.67063     0.00263
 150    H 19  s      Ryd( 2s)     0.00192    -0.00005


 Summary of Natural Population Analysis:

                                     Natural Population                 Natural
             Natural    ---------------------------------------------    Spin
  Atom No    Charge        Core      Valence    Rydberg      Total      Density
 -------------------------------------------------------------------------------
    O  1   -0.40085      1.99990     6.38150    0.01946     8.40085     0.03426
    C  2    0.52882      1.99990     3.44135    0.02993     5.47118     0.00549
    C  3   -0.25621      1.99976     4.24534    0.01111     6.25621    -0.00457
    O  4   -0.32910      1.99985     6.31230    0.01695     8.32910     0.26262
    C  5    0.38794      1.99986     3.59706    0.01514     5.61206     0.14666
    C  6   -0.22071      1.99985     4.20863    0.01223     6.22071     0.08112
    C  7   -0.21971      1.99986     4.20572    0.01414     6.21971    -0.01300
    C  8   -0.05014      1.99989     4.03255    0.01770     6.05014     0.23272
   Br  9    0.28004     27.99875     6.70229    0.01892    34.71996     0.14898
    C 10   -0.21571      1.99985     4.20113    0.01473     6.21571    -0.03672
    C 11   -0.03377      1.99989     4.02328    0.01060     6.03377     0.11117
    C 12   -0.62205      1.99975     4.61292    0.00938     6.62205     0.00365
    H 13    0.30227      0.00000     0.69574    0.00199     0.69773    -0.00023
    H 14    0.28941      0.00000     0.70942    0.00118     0.71059     0.01823
    H 15    0.30245      0.00000     0.69629    0.00126     0.69755    -0.00284
    H 16    0.30352      0.00000     0.69539    0.00109     0.69648     0.00016
    H 17    0.29704      0.00000     0.70181    0.00115     0.70296     0.00086
    H 18    0.32931      0.00000     0.66974    0.00095     0.67069     0.00888
    H 19    0.32745      0.00000     0.67063    0.00192     0.67255     0.00257
 ===============================================================================
 * Total *  1.00000     49.99710    60.80307    0.19982   111.00000     1.00000

                                 Natural Population
 ---------------------------------------------------------
   Core                      49.99710 ( 99.9942% of   50)
   Valence                   60.80307 ( 99.6772% of   61)
   Natural Minimal Basis    110.80018 ( 99.8200% of  111)
   Natural Rydberg Basis      0.19982 (  0.1800% of  111)
 ---------------------------------------------------------

    Atom No         Natural Electron Configuration
 ----------------------------------------------------------------------------
      O  1      [core]2s( 1.69)2p( 4.69)3d( 0.02)
      C  2      [core]2s( 0.84)2p( 2.60)3p( 0.03)
      C  3      [core]2s( 1.07)2p( 3.17)3p( 0.01)
      O  4      [core]2s( 1.59)2p( 4.72)3d( 0.01)
      C  5      [core]2s( 0.83)2p( 2.77)3p( 0.01)
      C  6      [core]2s( 0.96)2p( 3.24)3p( 0.01)
      C  7      [core]2s( 0.96)2p( 3.25)3p( 0.01)
      C  8      [core]2s( 0.95)2p( 3.08)3p( 0.02)
     Br  9      [core]4s( 1.88)4p( 4.82)4d( 0.01)5p( 0.01)
      C 10      [core]2s( 0.94)2p( 3.26)3p( 0.01)
      C 11      [core]2s( 0.87)2p( 3.15)3p( 0.01)
      C 12      [core]2s( 1.05)2p( 3.56)3p( 0.01)
      H 13            1s( 0.70)
      H 14            1s( 0.71)
      H 15            1s( 0.70)
      H 16            1s( 0.70)
      H 17            1s( 0.70)
      H 18            1s( 0.67)
      H 19            1s( 0.67)


 ***************************************************
 *******         Alpha spin orbitals         *******
 ***************************************************


 NATURAL POPULATIONS:  Natural atomic orbital occupancies

  NAO Atom No lang   Type(AO)    Occupancy      Energy
 -------------------------------------------------------
   1    O  1  s      Cor( 1s)     0.99995     -19.31163
   2    O  1  s      Val( 2s)     0.84704      -0.90680
   3    O  1  s      Ryd( 3s)     0.00042       1.51571
   4    O  1  px     Val( 2p)     0.84160      -0.49522
   5    O  1  px     Ryd( 3p)     0.00040       1.71959
   6    O  1  py     Val( 2p)     0.87771      -0.48983
   7    O  1  py     Ryd( 3p)     0.00073       1.68269
   8    O  1  pz     Val( 2p)     0.64149      -0.42315
   9    O  1  pz     Ryd( 3p)     0.00015       1.53798
  10    O  1  dxy    Ryd( 3d)     0.00244       2.17629
  11    O  1  dxz    Ryd( 3d)     0.00173       1.85061
  12    O  1  dyz    Ryd( 3d)     0.00084       1.79685
  13    O  1  dx2y2  Ryd( 3d)     0.00202       1.98432
  14    O  1  dz2    Ryd( 3d)     0.00103       1.88124

  15    C  2  s      Cor( 1s)     0.99995     -10.49448
  16    C  2  s      Val( 2s)     0.41844      -0.27361
  17    C  2  s      Ryd( 3s)     0.00216       0.58572
  18    C  2  px     Val( 2p)     0.43763      -0.14367
  19    C  2  px     Ryd( 3p)     0.00696       0.92917
  20    C  2  py     Val( 2p)     0.46854      -0.19439
  21    C  2  py     Ryd( 3p)     0.00412       0.98260
  22    C  2  pz     Val( 2p)     0.39886      -0.27159
  23    C  2  pz     Ryd( 3p)     0.00167       0.77388

  24    C  3  s      Cor( 1s)     0.99988     -10.46732
  25    C  3  s      Val( 2s)     0.53539      -0.39724
  26    C  3  s      Ryd( 3s)     0.00096       0.92509
  27    C  3  px     Val( 2p)     0.49580      -0.26985
  28    C  3  px     Ryd( 3p)     0.00212       0.89566
  29    C  3  py     Val( 2p)     0.49067      -0.25500
  30    C  3  py     Ryd( 3p)     0.00198       0.75193
  31    C  3  pz     Val( 2p)     0.59852      -0.30866
  32    C  3  pz     Ryd( 3p)     0.00051       0.83423

  33    O  4  s      Cor( 1s)     0.99992     -19.43661
  34    O  4  s      Val( 2s)     0.79997      -1.00228
  35    O  4  s      Ryd( 3s)     0.00041       1.68536
  36    O  4  px     Val( 2p)     0.69750      -0.54512
  37    O  4  px     Ryd( 3p)     0.00016       1.93137
  38    O  4  py     Val( 2p)     0.87294      -0.60648
  39    O  4  py     Ryd( 3p)     0.00100       1.65390
  40    O  4  pz     Val( 2p)     0.91700      -0.61981
  41    O  4  pz     Ryd( 3p)     0.00058       1.52904
  42    O  4  dxy    Ryd( 3d)     0.00206       2.07596
  43    O  4  dxz    Ryd( 3d)     0.00059       1.76437
  44    O  4  dyz    Ryd( 3d)     0.00136       1.72729
  45    O  4  dx2y2  Ryd( 3d)     0.00126       1.92801
  46    O  4  dz2    Ryd( 3d)     0.00110       1.83338

  47    C  5  s      Cor( 1s)     0.99993     -10.52821
  48    C  5  s      Val( 2s)     0.41522      -0.27638
  49    C  5  s      Ryd( 3s)     0.00050       0.58712
  50    C  5  px     Val( 2p)     0.40229      -0.20373
  51    C  5  px     Ryd( 3p)     0.00309       1.11547
  52    C  5  py     Val( 2p)     0.52677      -0.23505
  53    C  5  py     Ryd( 3p)     0.00350       1.08522
  54    C  5  pz     Val( 2p)     0.52769      -0.36383
  55    C  5  pz     Ryd( 3p)     0.00036       0.75727

  56    C  6  s      Cor( 1s)     0.99993     -10.44202
  57    C  6  s      Val( 2s)     0.48360      -0.28605
  58    C  6  s      Ryd( 3s)     0.00047       0.54791
  59    C  6  px     Val( 2p)     0.53375      -0.21526
  60    C  6  px     Ryd( 3p)     0.00302       0.87144
  61    C  6  py     Val( 2p)     0.61302      -0.27448
  62    C  6  py     Ryd( 3p)     0.00241       1.18538
  63    C  6  pz     Val( 2p)     0.51451      -0.32284
  64    C  6  pz     Ryd( 3p)     0.00021       0.74927

  65    C  7  s      Cor( 1s)     0.99993     -10.44020
  66    C  7  s      Val( 2s)     0.47854      -0.27393
  67    C  7  s      Ryd( 3s)     0.00053       0.55368
  68    C  7  px     Val( 2p)     0.58254      -0.24260
  69    C  7  px     Ryd( 3p)     0.00361       1.01571
  70    C  7  py     Val( 2p)     0.56541      -0.24222
  71    C  7  py     Ryd( 3p)     0.00274       0.99520
  72    C  7  pz     Val( 2p)     0.46984      -0.30331
  73    C  7  pz     Ryd( 3p)     0.00021       0.75043

  74    C  8  s      Cor( 1s)     0.99994     -10.50265
  75    C  8  s      Val( 2s)     0.48130      -0.35447
  76    C  8  s      Ryd( 3s)     0.00025       0.53140
  77    C  8  px     Val( 2p)     0.52457      -0.32600
  78    C  8  px     Ryd( 3p)     0.00352       1.14238
  79    C  8  py     Val( 2p)     0.55294      -0.26411
  80    C  8  py     Ryd( 3p)     0.00438       0.93531
  81    C  8  pz     Val( 2p)     0.57406      -0.37713
  82    C  8  pz     Ryd( 3p)     0.00046       0.74901

  83   Br  9  s      Cor( 3s)     1.00000     -19.86016
  84   Br  9  s      Cor( 1s)     1.00000    -452.04787
  85   Br  9  s      Cor( 2s)     1.00000     -80.26509
  86   Br  9  s      Val( 4s)     0.94126      -0.95188
  87   Br  9  s      Ryd( 5s)     0.00154       0.69331
  88   Br  9  px     Cor( 3p)     1.00000      -7.41256
  89   Br  9  px     Cor( 2p)     0.99999     -55.79927
  90   Br  9  px     Val( 4p)     0.56607      -0.40658
  91   Br  9  px     Ryd( 5p)     0.00172       0.57688
  92   Br  9  py     Cor( 3p)     1.00000      -7.39926
  93   Br  9  py     Cor( 2p)     1.00000     -55.79595
  94   Br  9  py     Val( 4p)     0.94582      -0.51976
  95   Br  9  py     Ryd( 5p)     0.00082       0.60118
  96   Br  9  pz     Cor( 3p)     1.00000      -7.40172
  97   Br  9  pz     Cor( 2p)     1.00000     -55.79680
  98   Br  9  pz     Val( 4p)     0.97265      -0.53604
  99   Br  9  pz     Ryd( 5p)     0.00039       0.56443
 100   Br  9  dxy    Cor( 3d)     0.99980      -2.95531
 101   Br  9  dxy    Ryd( 4d)     0.00113       0.77057
 102   Br  9  dxz    Cor( 3d)     0.99994      -2.95700
 103   Br  9  dxz    Ryd( 4d)     0.00094       0.53681
 104   Br  9  dyz    Cor( 3d)     0.99999      -2.94656
 105   Br  9  dyz    Ryd( 4d)     0.00011       0.47932
 106   Br  9  dx2y2  Cor( 3d)     0.99976      -2.95538
 107   Br  9  dx2y2  Ryd( 4d)     0.00181       0.79499
 108   Br  9  dz2    Cor( 3d)     0.99990      -2.95067
 109   Br  9  dz2    Ryd( 4d)     0.00083       0.58346

 110    C 10  s      Cor( 1s)     0.99992     -10.44134
 111    C 10  s      Val( 2s)     0.47037      -0.26350
 112    C 10  s      Ryd( 3s)     0.00072       0.54746
 113    C 10  px     Val( 2p)     0.52679      -0.21307
 114    C 10  px     Ryd( 3p)     0.00296       0.84782
 115    C 10  py     Val( 2p)     0.61668      -0.27750
 116    C 10  py     Ryd( 3p)     0.00355       1.17617
 117    C 10  pz     Val( 2p)     0.46834      -0.30500
 118    C 10  pz     Ryd( 3p)     0.00017       0.75321

 119    C 11  s      Cor( 1s)     0.99995     -10.46523
 120    C 11  s      Val( 2s)     0.43590      -0.25689
 121    C 11  s      Ryd( 3s)     0.00049       0.54112
 122    C 11  px     Val( 2p)     0.55581      -0.25073
 123    C 11  px     Ryd( 3p)     0.00253       1.23194
 124    C 11  py     Val( 2p)     0.54363      -0.24571
 125    C 11  py     Ryd( 3p)     0.00174       1.21174
 126    C 11  pz     Val( 2p)     0.53184      -0.33732
 127    C 11  pz     Ryd( 3p)     0.00058       0.81507

 128    C 12  s      Cor( 1s)     0.99988     -10.41826
 129    C 12  s      Val( 2s)     0.52552      -0.34926
 130    C 12  s      Ryd( 3s)     0.00077       1.02901
 131    C 12  px     Val( 2p)     0.53189      -0.25894
 132    C 12  px     Ryd( 3p)     0.00166       0.84412
 133    C 12  py     Val( 2p)     0.59420      -0.28861
 134    C 12  py     Ryd( 3p)     0.00174       0.82574
 135    C 12  pz     Val( 2p)     0.65661      -0.32011
 136    C 12  pz     Ryd( 3p)     0.00058       0.92203

 137    H 13  s      Val( 1s)     0.34775      -0.01156
 138    H 13  s      Ryd( 2s)     0.00100       0.45017

 139    H 14  s      Val( 1s)     0.36372      -0.06126
 140    H 14  s      Ryd( 2s)     0.00069       0.45087

 141    H 15  s      Val( 1s)     0.34674       0.00198
 142    H 15  s      Ryd( 2s)     0.00062       0.45249

 143    H 16  s      Val( 1s)     0.34778       0.00591
 144    H 16  s      Ryd( 2s)     0.00054       0.45086

 145    H 17  s      Val( 1s)     0.35134      -0.00993
 146    H 17  s      Ryd( 2s)     0.00057       0.46216

 147    H 18  s      Val( 1s)     0.33925      -0.02752
 148    H 18  s      Ryd( 2s)     0.00053       0.46595

 149    H 19  s      Val( 1s)     0.33663      -0.01193
 150    H 19  s      Ryd( 2s)     0.00093       0.47301


 Summary of Natural Population Analysis:

                                     Natural Population
             Natural    ---------------------------------------------
  Atom No    Charge        Core      Valence    Rydberg      Total
 --------------------------------------------------------------------
    O  1   -0.21755      0.99995     3.20784    0.00976     4.21755
    C  2    0.26167      0.99995     1.72347    0.01491     2.73833
    C  3   -0.12582      0.99988     2.12037    0.00557     3.12582
    O  4   -0.29586      0.99992     3.28742    0.00852     4.29586
    C  5    0.12064      0.99993     1.87198    0.00745     2.87936
    C  6   -0.15091      0.99993     2.14487    0.00611     3.15091
    C  7   -0.10336      0.99993     2.09634    0.00709     3.10336
    C  8   -0.14143      0.99994     2.13288    0.00861     3.14143
   Br  9    0.06553     13.99938     3.42581    0.00928    17.43447
    C 10   -0.08949      0.99992     2.08217    0.00739     3.08949
    C 11   -0.07247      0.99995     2.06719    0.00533     3.07247
    C 12   -0.31285      0.99988     2.30823    0.00475     3.31285
    H 13    0.15125      0.00000     0.34775    0.00100     0.34875
    H 14    0.13559      0.00000     0.36372    0.00069     0.36441
    H 15    0.15264      0.00000     0.34674    0.00062     0.34736
    H 16    0.15168      0.00000     0.34778    0.00054     0.34832
    H 17    0.14809      0.00000     0.35134    0.00057     0.35191
    H 18    0.16021      0.00000     0.33925    0.00053     0.33979
    H 19    0.16244      0.00000     0.33663    0.00093     0.33756
 ====================================================================
 * Total *  0.00000     24.99856    30.90178    0.09966    56.00000

                                 Natural Population
 ---------------------------------------------------------
   Core                      24.99856 ( 99.9942% of   25)
   Valence                   30.90178 ( 99.6832% of   31)
   Natural Minimal Basis     55.90034 ( 99.8220% of   56)
   Natural Rydberg Basis      0.09966 (  0.1780% of   56)
 ---------------------------------------------------------

    Atom No         Natural Electron Configuration
 ----------------------------------------------------------------------------
      O  1      [core]2s( 0.85)2p( 2.36)3d( 0.01)
      C  2      [core]2s( 0.42)2p( 1.31)3p( 0.01)
      C  3      [core]2s( 0.54)2p( 1.58)
      O  4      [core]2s( 0.80)2p( 2.49)3d( 0.01)
      C  5      [core]2s( 0.42)2p( 1.46)3p( 0.01)
      C  6      [core]2s( 0.48)2p( 1.66)3p( 0.01)
      C  7      [core]2s( 0.48)2p( 1.62)3p( 0.01)
      C  8      [core]2s( 0.48)2p( 1.65)3p( 0.01)
     Br  9      [core]4s( 0.94)4p( 2.48)
      C 10      [core]2s( 0.47)2p( 1.61)3p( 0.01)
      C 11      [core]2s( 0.44)2p( 1.63)
      C 12      [core]2s( 0.53)2p( 1.78)
      H 13            1s( 0.35)
      H 14            1s( 0.36)
      H 15            1s( 0.35)
      H 16            1s( 0.35)
      H 17            1s( 0.35)
      H 18            1s( 0.34)
      H 19            1s( 0.34)


 NATURAL BOND ORBITAL ANALYSIS, alpha spin orbitals:

                            Occupancies       Lewis Structure    Low   High
         Max    Occ     -------------------  -----------------   occ   occ
  Cycle  Ctr   Thresh    Lewis   non-Lewis     CR  BD  nC  LP    (L)   (NL)
 ============================================================================
[...]
   46. BD ( 1) C  7- H 16     120. RY ( 2) C  8            0.80    1.94   0.050
   47. BD ( 1) C  8-Br  9      67. BD*( 1) C  6- C  7      1.19    1.31   0.050
   47. BD ( 1) C  8-Br  9      75. BD*( 1) C 10- C 11      1.33    1.29   0.052
   47. BD ( 1) C  8-Br  9     115. RY ( 1) C  7            1.28    1.97   0.063
   47. BD ( 1) C  8-Br  9     132. RY ( 1) C 10            1.30    1.99   0.064
   48. BD ( 2) C  8-Br  9      68. BD*( 2) C  6- C  7      4.09    0.46   0.055
   48. BD ( 2) C  8-Br  9      76. BD*( 2) C 10- C 11      4.15    0.45   0.055
   49. BD ( 1) C  8- C 10      70. BD*( 1) C  7- C  8      1.63    1.39   0.060
   49. BD ( 1) C  8- C 10      71. BD*( 1) C  7- H 16      0.78    1.35   0.041
   49. BD ( 1) C  8- C 10      75. BD*( 1) C 10- C 11      1.30    1.40   0.054
   49. BD ( 1) C  8- C 10      77. BD*( 1) C 10- H 17      1.11    1.34   0.049
   49. BD ( 1) C  8- C 10      78. BD*( 1) C 11- C 12      0.99    1.25   0.044
   49. BD ( 1) C  8- C 10     115. RY ( 1) C  7            0.74    2.08   0.050
   49. BD ( 1) C  8- C 10     116. RY ( 2) C  7            0.42    1.77   0.034
   49. BD ( 1) C  8- C 10     137. RY ( 2) C 11            1.32    2.15   0.067
   50. BD ( 1) C 10- C 11      59. BD*( 1) C  2- C 12      0.36    1.21   0.026
   50. BD ( 1) C 10- C 11      63. BD*( 1) O  4- C  5      2.10    1.13   0.062
   50. BD ( 1) C 10- C 11      66. BD*( 1) C  5- C 11      1.76    1.35   0.062
   50. BD ( 1) C 10- C 11      72. BD*( 1) C  8-Br  9      1.66    0.90   0.049
   50. BD ( 1) C 10- C 11      74. BD*( 1) C  8- C 10      1.43    1.37   0.056
   50. BD ( 1) C 10- C 11      77. BD*( 1) C 10- H 17      0.91    1.31   0.044
   50. BD ( 1) C 10- C 11      78. BD*( 1) C 11- C 12      1.44    1.22   0.053
   50. BD ( 1) C 10- C 11     108. RY ( 2) C  5            0.95    2.02   0.055
   50. BD ( 1) C 10- C 11     119. RY ( 1) C  8            1.03    1.80   0.054
   50. BD ( 1) C 10- C 11     120. RY ( 2) C  8            0.43    2.07   0.038
   50. BD ( 1) C 10- C 11     140. RY ( 1) C 12            0.36    1.74   0.032
   50. BD ( 1) C 10- C 11     141. RY ( 2) C 12            0.36    1.74   0.031
   51. BD ( 2) C 10- C 11      64. BD*( 2) O  4- C  5     18.99    0.32   0.099
   51. BD ( 2) C 10- C 11      73. BD*( 2) C  8-Br  9     36.66    0.28   0.127
   51. BD ( 2) C 10- C 11      79. BD*( 1) C 12- H 18      0.89    0.88   0.035
   51. BD ( 2) C 10- C 11      80. BD*( 1) C 12- H 19      0.79    0.89   0.033
   51. BD ( 2) C 10- C 11     110. RY ( 4) C  5            0.26    1.24   0.023
   51. BD ( 2) C 10- C 11     121. RY ( 3) C  8            0.50    1.28   0.032
   52. BD ( 1) C 10- H 17      66. BD*( 1) C  5- C 11      1.71    1.22   0.058
   52. BD ( 1) C 10- H 17      70. BD*( 1) C  7- C  8      1.40    1.23   0.052
   52. BD ( 1) C 10- H 17      72. BD*( 1) C  8-Br  9      0.48    0.76   0.024
   52. BD ( 1) C 10- H 17      74. BD*( 1) C  8- C 10      0.57    1.24   0.033
   52. BD ( 1) C 10- H 17      75. BD*( 1) C 10- C 11      0.71    1.24   0.037
   52. BD ( 1) C 10- H 17      78. BD*( 1) C 11- C 12      0.34    1.09   0.024
   52. BD ( 1) C 10- H 17     120. RY ( 2) C  8            0.86    1.94   0.052
   52. BD ( 1) C 10- H 17     136. RY ( 1) C 11            0.52    1.93   0.040
   52. BD ( 1) C 10- H 17     137. RY ( 2) C 11            0.32    1.99   0.032
   53. BD ( 1) C 11- C 12      56. BD*( 1) O  1- C  2      1.07    1.35   0.048
   53. BD ( 1) C 11- C 12      57. BD*( 2) O  1- C  2      0.47    0.78   0.024
   53. BD ( 1) C 11- C 12      59. BD*( 1) C  2- C 12      0.26    1.14   0.022
   53. BD ( 1) C 11- C 12      63. BD*( 1) O  4- C  5      0.54    1.07   0.030
   53. BD ( 1) C 11- C 12      65. BD*( 1) C  5- C  6      1.06    1.29   0.047
   53. BD ( 1) C 11- C 12      66. BD*( 1) C  5- C 11      0.96    1.29   0.044
   53. BD ( 1) C 11- C 12      74. BD*( 1) C  8- C 10      0.93    1.31   0.044
   53. BD ( 1) C 11- C 12      75. BD*( 1) C 10- C 11      1.45    1.32   0.055
   53. BD ( 1) C 11- C 12      79. BD*( 1) C 12- H 18      0.45    1.20   0.029
   53. BD ( 1) C 11- C 12      80. BD*( 1) C 12- H 19      0.42    1.21   0.028
   53. BD ( 1) C 11- C 12      91. RY ( 2) C  2            0.55    1.84   0.040
   53. BD ( 1) C 11- C 12     107. RY ( 1) C  5            0.49    1.91   0.039
   53. BD ( 1) C 11- C 12     108. RY ( 2) C  5            0.36    1.96   0.033
   53. BD ( 1) C 11- C 12     132. RY ( 1) C 10            1.09    2.02   0.059
   54. BD ( 1) C 12- H 18      57. BD*( 2) O  1- C  2      4.35    0.68   0.069
   54. BD ( 1) C 12- H 18      59. BD*( 1) C  2- C 12      0.34    1.04   0.024
   54. BD ( 1) C 12- H 18      66. BD*( 1) C  5- C 11      0.65    1.18   0.035
   54. BD ( 1) C 12- H 18      76. BD*( 2) C 10- C 11      3.17    0.63   0.057
   54. BD ( 1) C 12- H 18      80. BD*( 1) C 12- H 19      0.29    1.11   0.023
   54. BD ( 1) C 12- H 18      92. RY ( 3) C  2            0.43    1.51   0.032
   54. BD ( 1) C 12- H 18     138. RY ( 3) C 11            0.42    1.55   0.032
   55. BD ( 1) C 12- H 19      56. BD*( 1) O  1- C  2      0.56    1.24   0.033
   55. BD ( 1) C 12- H 19      57. BD*( 2) O  1- C  2      1.35    0.68   0.038
   55. BD ( 1) C 12- H 19      58. BD*( 1) C  2- C  3      1.11    1.01   0.042
   55. BD ( 1) C 12- H 19      59. BD*( 1) C  2- C 12      0.34    1.04   0.024
   55. BD ( 1) C 12- H 19      66. BD*( 1) C  5- C 11      0.70    1.18   0.036
   55. BD ( 1) C 12- H 19      76. BD*( 2) C 10- C 11      2.85    0.63   0.053
   55. BD ( 1) C 12- H 19      78. BD*( 1) C 11- C 12      0.37    1.05   0.025
   55. BD ( 1) C 12- H 19      79. BD*( 1) C 12- H 18      0.34    1.09   0.024
   55. BD ( 1) C 12- H 19      90. RY ( 1) C  2            0.30    1.50   0.027
   55. BD ( 1) C 12- H 19     138. RY ( 3) C 11            0.31    1.55   0.027


 NATURAL BOND ORBITALS (Summary):

                                                     Principal Delocalizations
           NBO                 Occupancy    Energy   (geminal,vicinal,remote)
 ===============================================================================
 Molecular unit  1  (C9H7O2Br)
 ------ Lewis --------------------------------------
    1. CR ( 1) O  1             0.99995   -19.31082  82(g)
    2. CR ( 1) C  2             0.99995   -10.49431
    3. CR ( 1) C  3             0.99988   -10.46731
    4. CR ( 1) O  4             0.99992   -19.43023  100(g)
    5. CR ( 1) C  5             0.99993   -10.52610
    6. CR ( 1) C  6             0.99993   -10.44097
    7. CR ( 1) C  7             0.99993   -10.44043
    8. CR ( 1) C  8             0.99994   -10.49915
    9. CR ( 1)Br  9             1.00000   -19.85952
   10. CR ( 2)Br  9             1.00000  -452.04738
   11. CR ( 3)Br  9             1.00000   -80.26489
   12. CR ( 4)Br  9             1.00000    -7.41240
   13. CR ( 5)Br  9             0.99999   -55.79911
   14. CR ( 6)Br  9             1.00000    -7.39901
   15. CR ( 7)Br  9             1.00000   -55.79574
   16. CR ( 8)Br  9             1.00000    -7.40008
   17. CR ( 9)Br  9             1.00000   -55.79565
   18. CR (10)Br  9             0.99980    -2.95523
   19. CR (11)Br  9             0.99993    -2.95628
   20. CR (12)Br  9             0.99999    -2.94582
   21. CR (13)Br  9             0.99976    -2.95530  125(g)
   22. CR (14)Br  9             0.99990    -2.94973
   23. CR ( 1) C 10             0.99992   -10.44192
   24. CR ( 1) C 11             0.99995   -10.46375
   25. CR ( 1) C 12             0.99987   -10.41817
   26. LP ( 1) O  1             0.98988    -0.79758  90(v),59(v),58(v)
   27. LP ( 2) O  1             0.90611    -0.48238  58(v),59(v),60(r),64(r)
                                                     78(r)
   28. LP ( 1) O  4             0.98276    -0.77803  66(v),58(v),107(v),61(v)
                                                     65(v),94(v),57(r)
   29. LP ( 1)Br  9             0.99863    -0.93256  120(v)
   30. LP ( 2)Br  9             0.98990    -0.53009  70(v),74(v),119(v)
   31. BD ( 1) O  1- C  2       0.99830    -1.17068  59(g)
   32. BD ( 2) O  1- C  2       0.99239    -0.65268  60(v),79(v),62(v),78(v)
   33. BD ( 1) C  2- C  3       0.98388    -0.85351  64(v),81(v),140(v),80(v)
                                                     61(g),141(v)
   34. BD ( 1) C  2- C 12       0.98860    -0.84303  75(v),81(v),94(v),80(g)
                                                     78(g),79(g),61(v),136(v)
                                                     60(v)
   35. BD ( 1) C  3- O  4       0.99485    -1.04542  65(v),107(v),57(v),56(v)
   36. BD ( 1) C  3- H 13       0.99093    -0.75458  59(v),63(v),56(v),90(v)
                                                     58(g),98(v)
   37. BD ( 1) C  3- H 14       0.97106    -0.75846  57(v),64(v),56(v),99(v)
   38. BD ( 1) O  4- C  5       0.99618    -1.10279  95(v),75(v),67(v),61(v)
   39. BD ( 2) O  4- C  5       0.93692    -0.63719  76(v),68(v),62(v),58(v)
                                                     64(g),61(v)
   40. BD ( 1) C  5- C  6       0.98888    -0.92020  66(g),136(v),116(v),78(v)
                                                     67(g),71(v),69(g),60(v)
                                                     98(v)
   41. BD ( 1) C  5- C 11       0.98821    -0.92983  65(g),75(g),111(v),78(g)
                                                     133(v),77(v),69(v),141(v)
                                                     132(v),98(v)
   42. BD ( 1) C  6- C  7       0.98602    -0.89899  63(v),72(v),107(v),70(g)
                                                     65(g),69(g),119(v),71(g)
                                                     120(v)
   43. BD ( 2) C  6- C  7       0.86800    -0.51415  73(v),64(v),121(v)
   44. BD ( 1) C  6- H 15       0.98911    -0.75995  66(v),70(v),63(v),115(v)
                                                     67(g),108(v),65(g)
   45. BD ( 1) C  7- C  8       0.99094    -0.92066  74(g),112(v),67(g),71(g)
                                                     77(v),69(v),133(v),132(v)
   46. BD ( 1) C  7- H 16       0.98974    -0.75836  65(v),74(v),120(v),67(g)
                                                     111(v),70(g),72(v),112(v)
   47. BD ( 1) C  8-Br  9       0.99305    -0.80768  75(v),132(v),115(v),67(v)
   48. BD ( 2) C  8-Br  9       0.96038    -0.54930  76(v),68(v)
   49. BD ( 1) C  8- C 10       0.99072    -0.92335  70(g),137(v),75(g),77(g)
                                                     78(v),71(v),115(v),116(v)
   50. BD ( 1) C 10- C 11       0.98285    -0.89746  63(v),66(g),72(v),78(g)
                                                     74(g),119(v),108(v),77(g)
                                                     120(v),59(v),140(v),141(v)
   51. BD ( 2) C 10- C 11       0.85459    -0.51552  73(v),64(v),79(v),80(v)
                                                     121(v),110(v)
   52. BD ( 1) C 10- H 17       0.98936    -0.76204  66(v),70(v),120(v),75(g)
                                                     74(g),136(v),72(v),78(v)
                                                     137(v)
   53. BD ( 1) C 11- C 12       0.98650    -0.83476  75(g),132(v),56(v),65(v)
                                                     66(g),74(v),91(v),63(v)
                                                     107(v),57(v),79(g),80(g)
                                                     108(v),59(g)
   54. BD ( 1) C 12- H 18       0.96708    -0.72989  57(v),76(v),66(v),92(v)
                                                     138(v),59(g),80(g)
   55. BD ( 1) C 12- H 19       0.97944    -0.72901  76(v),57(v),58(v),66(v)
                                                     56(v),78(g),79(g),59(g)
                                                     138(v),90(v)
 ------ non-Lewis ----------------------------------
   56. BD*( 1) O  1- C  2       0.00692     0.51341
   57. BD*( 2) O  1- C  2       0.03201    -0.05191
   58. BD*( 1) C  2- C  3       0.04035     0.27968
   59. BD*( 1) C  2- C 12       0.03043     0.30951
   60. BD*( 1) C  3- O  4       0.00906     0.17368
   61. BD*( 1) C  3- H 13       0.00483     0.39231
   62. BD*( 1) C  3- H 14       0.00678     0.34805
   63. BD*( 1) O  4- C  5       0.01365     0.23226
   64. BD*( 2) O  4- C  5       0.13307    -0.19214
   65. BD*( 1) C  5- C  6       0.01061     0.45679
   66. BD*( 1) C  5- C 11       0.01621     0.45329
   67. BD*( 1) C  6- C  7       0.00727     0.49950
   68. BD*( 2) C  6- C  7       0.04166    -0.08865
   69. BD*( 1) C  6- H 15       0.00498     0.42649
   70. BD*( 1) C  7- C  8       0.01094     0.46832
   71. BD*( 1) C  7- H 16       0.00547     0.42916
   72. BD*( 1) C  8-Br  9       0.01212    -0.00164
   73. BD*( 2) C  8-Br  9       0.21762    -0.23812
   74. BD*( 1) C  8- C 10       0.01060     0.47543
   75. BD*( 1) C 10- C 11       0.01130     0.48111
   76. BD*( 2) C 10- C 11       0.06537    -0.09841
   77. BD*( 1) C 10- H 17       0.00585     0.41357
   78. BD*( 1) C 11- C 12       0.01063     0.32514
   79. BD*( 1) C 12- H 18       0.00445     0.36425
   80. BD*( 1) C 12- H 19       0.00424     0.37745
   81. RY ( 1) O  1             0.00103     1.61722
   82. RY ( 2) O  1             0.00026     1.73287
   83. RY ( 3) O  1             0.00002     1.53733
   84. RY ( 4) O  1             0.00002     2.40446
   85. RY ( 5) O  1             0.00001     1.59451
   86. RY ( 6) O  1             0.00000     1.88942
   87. RY ( 7) O  1             0.00000     1.90502
   88. RY ( 8) O  1             0.00000     1.72866
   89. RY ( 9) O  1             0.00000     1.75236
   90. RY ( 1) C  2             0.00770     0.77266
   91. RY ( 2) C  2             0.00172     1.00302
   92. RY ( 3) C  2             0.00084     0.78054
   93. RY ( 4) C  2             0.00029     0.70563
   94. RY ( 1) C  3             0.00179     0.83935
   95. RY ( 2) C  3             0.00103     0.83466
   96. RY ( 3) C  3             0.00029     0.89527
   97. RY ( 4) C  3             0.00009     0.82893
   98. RY ( 1) O  4             0.00108     1.43675
   99. RY ( 2) O  4             0.00049     1.62525
  100. RY ( 3) O  4             0.00022     1.91376
  101. RY ( 4) O  4             0.00016     2.04528
  102. RY ( 5) O  4             0.00011     1.86974
  103. RY ( 6) O  4             0.00004     1.79943
  104. RY ( 7) O  4             0.00002     2.00085
  105. RY ( 8) O  4             0.00001     1.78898
  106. RY ( 9) O  4             0.00000     1.75141
  107. RY ( 1) C  5             0.00322     1.07570
  108. RY ( 2) C  5             0.00184     1.12454
  109. RY ( 3) C  5             0.00046     0.63903
  110. RY ( 4) C  5             0.00033     0.72197
  111. RY ( 1) C  6             0.00224     1.06327
  112. RY ( 2) C  6             0.00161     0.98931
  113. RY ( 3) C  6             0.00019     0.65299
  114. RY ( 4) C  6             0.00015     0.64654
  115. RY ( 1) C  7             0.00283     1.15760
  116. RY ( 2) C  7             0.00172     0.85078
  117. RY ( 3) C  7             0.00023     0.54910
  118. RY ( 4) C  7             0.00017     0.74829
  119. RY ( 1) C  8             0.00379     0.90611
  120. RY ( 2) C  8             0.00254     1.17702
  121. RY ( 3) C  8             0.00120     0.76427
  122. RY ( 4) C  8             0.00014     0.53098
  123. RY ( 1)Br  9             0.00047     0.58312
  124. RY ( 2)Br  9             0.00036     0.50936
  125. RY ( 3)Br  9             0.00032     0.96086
  126. RY ( 4)Br  9             0.00011     0.64380
  127. RY ( 5)Br  9             0.00005     0.76824
  128. RY ( 6)Br  9             0.00002     0.48105
  129. RY ( 7)Br  9             0.00001     0.56917
  130. RY ( 8)Br  9             0.00001     0.54708
  131. RY ( 9)Br  9             0.00001     0.55788
  132. RY ( 1) C 10             0.00306     1.18341
  133. RY ( 2) C 10             0.00193     0.82919
  134. RY ( 3) C 10             0.00036     0.54862
  135. RY ( 4) C 10             0.00017     0.75125
  136. RY ( 1) C 11             0.00224     1.16682
  137. RY ( 2) C 11             0.00159     1.22752
  138. RY ( 3) C 11             0.00055     0.81990
  139. RY ( 4) C 11             0.00027     0.59863
  140. RY ( 1) C 12             0.00167     0.84225
  141. RY ( 2) C 12             0.00143     0.84748
  142. RY ( 3) C 12             0.00037     1.00824
  143. RY ( 4) C 12             0.00021     0.91548
  144. RY ( 1) H 13             0.00099     0.44933
  145. RY ( 1) H 14             0.00049     0.44893
  146. RY ( 1) H 15             0.00065     0.45105
  147. RY ( 1) H 16             0.00055     0.44913
  148. RY ( 1) H 17             0.00059     0.46041
  149. RY ( 1) H 18             0.00042     0.46549
  150. RY ( 1) H 19             0.00099     0.47254
          -------------------------------
                 Total Lewis   54.22380  ( 98.5887%)
           Valence non-Lewis    0.71643  (  1.3026%)
           Rydberg non-Lewis    0.05977  (  0.1087%)
          -------------------------------
               Total unit  1   55.00000  (100.0000%)
              Charge unit  1    1.00000

 $CHOOSE
  ALPHA
   LONE 1 2 4 2 9 3 END
   BOND D 1 2 S 2 3 S 2 12 S 3 4 S 3 13 S 3 14 S 4 5 S 5 6 D 5 11 D 6 7 S 6 15
        S 7 8 S 7 16 S 8 9 D 8 10 S 10 11 S 10 17 S 11 12 S 12 18 S 12 19 END
  END
  BETA
   LONE 1 2 4 1 9 2 END
   BOND D 1 2 S 2 3 S 2 12 S 3 4 S 3 13 S 3 14 D 4 5 S 5 6 S 5 11 D 6 7 S 6 15
        S 7 8 S 7 16 D 8 9 S 8 10 D 10 11 S 10 17 S 11 12 S 12 18 S 12 19 END
  END
 $END

 NBO analysis completed in 1.44 CPU seconds (2 wall seconds)
 Maximum scratch memory used by NBO was 644591 words (4.92 MB)
 Maximum scratch memory used by G16NBO was 54153 words (0.41 MB)

 Opening RunExU unformatted file "/home/rpaton/arbr500/xtb/fukui/Gau-2150005.EUF"
 Read unf file /home/rpaton/arbr500/xtb/fukui/Gau-2150005.EUF:
 Label Gaussian matrix elements                                         IVers= 2 NLab= 2 Version=ES64L-G16RevC.01
 Title energy: -35.049283102289 gnorm: 0.000814436820 xtb: 6.7.0 (08769
 NAtoms=    19 NBasis=   150 NBsUse=   150 ICharg=     1 Multip=     2 NE=   111 Len12L=8 Len4L=8 IOpCl= 1 ICGU=112
 GAUSSIAN SCALARS                    NI= 1 NR= 1 NTot=       1 LenBuf=    2 NRI=1 N=    1000
 NPA CHARGES                         NI= 0 NR= 1 NTot=      19 LenBuf= 2048 NRI=1 N=      19
 Recovered energy= -3056.30659340     dipole=     -0.593546809107      0.680719439227      0.478008229283
 Unable to Open any file for archive entry.
 1\1\GINC-DYNAMO\SP\UwB97XD\MIDIx\C9H7Br1O2(1+,2)\RPATON\28-Sep-2024\0\
 \# wb97xd midix pop(nbo6,hirshfeld)\\energy: -35.049283102289 gnorm: 0
 .000814436820 xtb: 6.7.0 (08769fc)\\1,2\O,0,-4.37067,-1.42627,-0.32442
 \C,0,-3.39645,-0.79225,-0.01818\C,0,-3.4856,0.6535,0.4392\O,0,-2.47146
 ,1.50177,-0.05241\C,0,-1.20108,1.01455,-0.04507\C,0,-0.16725,1.94568,-
 0.13737\C,0,1.14868,1.53448,-0.13196\C,0,1.43038,0.18157,-0.02682\Br,0
 ,3.24255,-0.40222,0.00838\C,0,0.41604,-0.7538,0.04273\C,0,-0.91127,-0.
 34723,0.02434\C,0,-2.00758,-1.37557,0.02085\H,0,-4.43357,1.09186,0.118
 94\H,0,-3.45797,0.64059,1.54209\H,0,-0.4211,2.99033,-0.21291\H,0,1.947
 91,2.25521,-0.20058\H,0,0.65043,-1.80604,0.10146\H,0,-1.94462,-2.00077
 ,0.91954\H,0,-1.89093,-2.05426,-0.82963\\Version=ES64L-G16RevC.01\Stat
 e=2-A\HF=-3056.3065934\S2=0.765755\S2-1=0.\S2A=0.750098\RMSD=5.319e-09
 \Dipole=-0.5910427,0.6779112,0.48505\Quadrupole=9.3964553,-0.4395869,-
 8.9568683,-3.6267365,-4.1373942,-0.7503956\PG=C01 [X(C9H7Br1O2)]\\@
 The archive entry for this job was punched.


 The impersonal hand of government can
 never replace the helping hand of a neighbor.
                        -- Hubert H. Humphrey
 Job cpu time:       0 days  0 hours  8 minutes 28.6 seconds.
 Elapsed time:       0 days  0 hours  0 minutes 21.5 seconds.
 File lengths (MBytes):  RWF=     27 Int=      0 D2E=      0 Chk=      3 Scr=      1
 Normal termination of Gaussian 16 at Sat Sep 28 19:31:59 2024.
