 Entering Gaussian System, Link 0=/usr/local/Gaussian/G16C/g16/g16
 Input=nmr/arbr35_xtbopt_nmr.com
 Output=nmr/arbr35_xtbopt_nmr.log
 Initial command:
 /usr/local/Gaussian/G16C/g16/l1.exe "/home/rpaton/opt/xtb/Gau-1307833.inp" -scrdir="/home/rpaton/opt/xtb/"
 Entering Link 1 = /usr/local/Gaussian/G16C/g16/l1.exe PID=   1307834.
  
 Copyright (c) 1988-2019, Gaussian, Inc.  All Rights Reserved.
  
 This is part of the Gaussian(R) 16 program.  It is based on
 the Gaussian(R) 09 system (copyright 2009, Gaussian, Inc.),
 the Gaussian(R) 03 system (copyright 2003, Gaussian, Inc.),
 the Gaussian(R) 98 system (copyright 1998, Gaussian, Inc.),
 the Gaussian(R) 94 system (copyright 1995, Gaussian, Inc.),
 the Gaussian 92(TM) system (copyright 1992, Gaussian, Inc.),
 the Gaussian 90(TM) system (copyright 1990, Gaussian, Inc.),
 the Gaussian 88(TM) system (copyright 1988, Gaussian, Inc.),
 the Gaussian 86(TM) system (copyright 1986, Carnegie Mellon
 University), and the Gaussian 82(TM) system (copyright 1983,
 Carnegie Mellon University). Gaussian is a federally registered
 trademark of Gaussian, Inc.
  
 This software contains proprietary and confidential information,
 including trade secrets, belonging to Gaussian, Inc.
  
 This software is provided under written license and may be
 used, copied, transmitted, or stored only in accord with that
 written license.
  
 The following legend is applicable only to US Government
 contracts under FAR:
  
                    RESTRICTED RIGHTS LEGEND
  
 Use, reproduction and disclosure by the US Government is
 subject to restrictions as set forth in subparagraphs (a)
 and (c) of the Commercial Computer Software - Restricted
 Rights clause in FAR 52.227-19.
  
 Gaussian, Inc.
 340 Quinnipiac St., Bldg. 40, Wallingford CT 06492
  
  
 ---------------------------------------------------------------
 Warning -- This program may not be used in any manner that
 competes with the business of Gaussian, Inc. or will provide
 assistance to any competitor of Gaussian, Inc.  The licensee
 of this program is prohibited from giving any competitor of
 Gaussian, Inc. access to this program.  By using this program,
 the user acknowledges that Gaussian, Inc. is engaged in the
 business of creating and licensing software in the field of
 computational chemistry and represents and warrants to the
 licensee that it is not a competitor of Gaussian, Inc. and that
 it will not use this program in any manner prohibited above.
 ---------------------------------------------------------------
  

 Cite this work as:
 Gaussian 16, Revision C.01,
 M. J. Frisch, G. W. Trucks, H. B. Schlegel, G. E. Scuseria, 
 M. A. Robb, J. R. Cheeseman, G. Scalmani, V. Barone, 
 G. A. Petersson, H. Nakatsuji, X. Li, M. Caricato, A. V. Marenich, 
 J. Bloino, B. G. Janesko, R. Gomperts, B. Mennucci, H. P. Hratchian, 
 J. V. Ortiz, A. F. Izmaylov, J. L. Sonnenberg, D. Williams-Young, 
 F. Ding, F. Lipparini, F. Egidi, J. Goings, B. Peng, A. Petrone, 
 T. Henderson, D. Ranasinghe, V. G. Zakrzewski, J. Gao, N. Rega, 
 G. Zheng, W. Liang, M. Hada, M. Ehara, K. Toyota, R. Fukuda, 
 J. Hasegawa, M. Ishida, T. Nakajima, Y. Honda, O. Kitao, H. Nakai, 
 T. Vreven, K. Throssell, J. A. Montgomery, Jr., J. E. Peralta, 
 F. Ogliaro, M. J. Bearpark, J. J. Heyd, E. N. Brothers, K. N. Kudin, 
 V. N. Staroverov, T. A. Keith, R. Kobayashi, J. Normand, 
 K. Raghavachari, A. P. Rendell, J. C. Burant, S. S. Iyengar, 
 J. Tomasi, M. Cossi, J. M. Millam, M. Klene, C. Adamo, R. Cammi, 
 J. W. Ochterski, R. L. Martin, K. Morokuma, O. Farkas, 
 J. B. Foresman, and D. J. Fox, Gaussian, Inc., Wallingford CT, 2019.
 
 ******************************************
 Gaussian 16:  ES64L-G16RevC.01  3-Jul-2019
                26-Sep-2024 
 ******************************************
 %nprocshared=24
 Will use up to   24 processors via shared memory.
 -----------------------
 # wb97xd midix nmr=giao
 -----------------------
 1/38=1,172=1/1;
 2/12=2,17=6,18=5,40=1/2;
 3/5=20,11=2,25=1,30=1,74=-58/1,2,3,8;
 4//1;
 5/5=2,38=5/2;
 8/6=1,10=90,11=11/1;
 10/13=100,45=16/2;
 6/7=2,8=2,9=2,10=2,28=1/1;
 99/9=1/99;
 -------------------------------------------------------------------
 energy: -39.823789709276 gnorm: 0.000181017279 xtb: 6.7.0 (08769fc)
 -------------------------------------------------------------------
 Symbolic Z-matrix:
 Charge =  0 Multiplicity = 1
 Br                    5.88606  -0.30481  -0.00001 
 C                     4.02111   0.09351   0.00001 
 C                     3.61829   1.42065   0. 
 C                     2.2694    1.73034   0. 
 C                     1.34512   0.69696   0.00001 
 C                     1.77031  -0.64201   0.00001 
 C                     3.11223  -0.95571   0.00001 
 C                     0.58844  -1.56599   0.00002 
 C                    -0.56795  -0.61006   0.00002 
 C                    -1.91821  -0.88745   0.00002 
 C                    -2.80081   0.18231   0. 
 I                    -4.88315  -0.20732   0.00001 
 C                    -2.36107   1.49641   0. 
 C                    -1.00438   1.7722    0.00001 
 C                    -0.10656   0.71629   0.00001 
 H                     4.35944   2.20495  -0.00001 
 H                     1.95033   2.76111   0. 
 H                     3.45367  -1.97967   0.00001 
 H                     0.57984  -2.21281   0.88056 
 H                     0.57984  -2.21283  -0.88049 
 H                    -2.27875  -1.90489   0.00002 
 H                    -3.07569   2.30493   0. 
 H                    -0.65996   2.79492   0. 
 
                          Input orientation:                          
 ---------------------------------------------------------------------
 Center     Atomic      Atomic             Coordinates (Angstroms)
 Number     Number       Type             X           Y           Z
 ---------------------------------------------------------------------
      1         35           0        5.886060   -0.304810   -0.000010
      2          6           0        4.021110    0.093510    0.000010
      3          6           0        3.618290    1.420650    0.000000
      4          6           0        2.269400    1.730340    0.000000
      5          6           0        1.345120    0.696960    0.000010
      6          6           0        1.770310   -0.642010    0.000010
      7          6           0        3.112230   -0.955710    0.000010
      8          6           0        0.588440   -1.565990    0.000020
      9          6           0       -0.567950   -0.610060    0.000020
     10          6           0       -1.918210   -0.887450    0.000020
     11          6           0       -2.800810    0.182310    0.000000
     12         53           0       -4.883150   -0.207320    0.000010
     13          6           0       -2.361070    1.496410    0.000000
     14          6           0       -1.004380    1.772200    0.000010
     15          6           0       -0.106560    0.716290    0.000010
     16          1           0        4.359440    2.204950   -0.000010
     17          1           0        1.950330    2.761110    0.000000
     18          1           0        3.453670   -1.979670    0.000010
     19          1           0        0.579840   -2.212810    0.880560
     20          1           0        0.579840   -2.212830   -0.880490
     21          1           0       -2.278750   -1.904890    0.000020
     22          1           0       -3.075690    2.304930    0.000000
     23          1           0       -0.659960    2.794920    0.000000
 ---------------------------------------------------------------------
                    Distance matrix (angstroms):
                    1          2          3          4          5
     1  Br   0.000000
     2  C    1.907013   0.000000
     3  C    2.849560   1.386926   0.000000
     4  C    4.149948   2.397436   1.383984   0.000000
     5  C    4.650127   2.743187   2.385588   1.386423   0.000000
     6  C    4.129540   2.367930   2.769404   2.424280   1.404858
     7  C    2.849176   1.388137   2.429647   2.815178   2.419503
     8  C    5.445673   3.812763   4.254411   3.700192   2.386107
     9  C    6.461225   4.642681   4.652783   3.678047   2.316924
    10  C    7.825989   6.019784   5.998346   4.938512   3.627627
    11  C    8.700517   6.822498   6.537456   5.301266   4.177751
    12  I   10.769651   8.909340   8.655909   7.410364   6.293574
    13  C    8.441537   6.534550   5.979840   4.636375   3.791433
    14  C    7.196675   5.298448   4.636018   3.274048   2.583852
    15  C    6.078992   4.174388   3.790861   2.583309   1.451809
    16  H    2.937595   2.138375   1.079087   2.143250   3.370483
    17  H    4.988971   3.377013   2.139842   1.079024   2.151045
    18  H    2.953249   2.149433   3.404303   3.894441   3.407394
    19  H    5.707174   4.235188   4.817634   4.379319   3.134930
    20  H    5.707167   4.235189   4.817636   4.379322   3.134934
    21  H    8.320119   6.609224   6.770103   5.822419   4.461172
    22  H    9.334008   7.433367   6.752134   5.375885   4.704161
    23  H    7.242838   5.404631   4.493556   3.116806   2.902031
                    6          7          8          9         10
     6  C    0.000000
     7  C    1.378099   0.000000
     8  C    1.500185   2.596528   0.000000
     9  C    2.338478   3.696376   1.500347   0.000000
    10  C    3.696677   5.030903   2.596866   1.378458   0.000000
    11  C    4.644851   6.021556   3.813603   2.369286   1.386856
    12  I    6.667645   8.030329   5.637755   4.333953   3.041948
    13  C    4.652004   5.997492   4.251812   2.766314   2.424647
    14  C    3.677950   4.938418   3.698728   2.421907   2.812263
    15  C    2.316812   3.627147   2.385755   1.404309   2.419516
    16  H    3.848217   3.397838   5.332957   5.674809   6.997987
    17  H    3.407878   3.894196   4.536357   4.207912   5.317668
    18  H    2.150124   1.079387   2.894939   4.248442   5.481792
    19  H    2.158703   2.961194   1.092612   2.159069   2.961787
    20  H    2.158697   2.961187   1.092600   2.159072   2.961787
    21  H    4.241433   5.473902   2.887149   2.145559   1.079432
    22  H    5.671699   6.994435   5.330091   3.845247   3.395740
    23  H    4.209359   5.319459   4.536082   3.406223   3.891406
                   11         12         13         14         15
    11  C    0.000000
    12  I    2.118479   0.000000
    13  C    1.385724   3.043614   0.000000
    14  C    2.398940   4.354694   1.384438   0.000000
    15  C    2.746656   4.865066   2.385666   1.386011   0.000000
    16  H    7.440447   9.552200   6.757757   5.381249   4.707575
    17  H    5.405880   7.450371   4.493065   3.115807   2.900360
    18  H    6.617604   8.523133   6.774536   5.826726   4.465808
    19  H    4.235656   5.885713   4.814837   4.377833   3.134667
    20  H    4.235653   5.885712   4.814839   4.377842   3.134672
    21  H    2.151500   3.108801   3.402296   3.891659   3.404261
    22  H    2.140345   3.094885   1.079067   2.138721   3.367419
    23  H    3.377717   5.181581   2.140071   1.079158   2.151036
                   16         17         18         19         20
    16  H    0.000000
    17  H    2.472473   0.000000
    18  H    4.281526   4.973432   0.000000
    19  H    5.880254   5.233881   3.014734   0.000000
    20  H    5.880255   5.233888   3.014721   1.761050   0.000000
    21  H    7.807455   6.297354   5.732908   3.006942   3.006936
    22  H    7.435802   5.046680   7.809631   5.877777   5.877782
    23  H    5.053953   2.610509   6.302274   5.233531   5.233539
                   21         22         23
    21  H    0.000000
    22  H    4.284588   0.000000
    23  H    4.970784   2.464922   0.000000
 Stoichiometry    C13H8BrI
 Framework group  C1[X(C13H8BrI)]
 Deg. of freedom    63
 Full point group                 C1      NOp   1
 Largest Abelian subgroup         C1      NOp   1
 Largest concise Abelian subgroup C1      NOp   1
                         Standard orientation:                         
 ---------------------------------------------------------------------
 Center     Atomic      Atomic             Coordinates (Angstroms)
 Number     Number       Type             X           Y           Z
 ---------------------------------------------------------------------
      1         35           0        5.886487   -0.311101   -0.000016
      2          6           0        4.021658    0.087785    0.000004
      3          6           0        3.619240    1.415047   -0.000006
      4          6           0        2.270444    1.725146   -0.000006
      5          6           0        1.345851    0.692046    0.000004
      6          6           0        1.770635   -0.647053    0.000004
      7          6           0        3.112460   -0.961160    0.000004
      8          6           0        0.588485   -1.570675    0.000014
      9          6           0       -0.567616   -0.614394    0.000014
     10          6           0       -1.917960   -0.891375    0.000014
     11          6           0       -2.800235    0.178652   -0.000006
     12         53           0       -4.882693   -0.210346    0.000004
     13          6           0       -2.360097    1.492619   -0.000006
     14          6           0       -1.003323    1.767998    0.000004
     15          6           0       -0.105824    0.711816    0.000004
     16          1           0        4.360628    2.199122   -0.000016
     17          1           0        1.951686    2.756012   -0.000006
     18          1           0        3.453589   -1.985223    0.000004
     19          1           0        0.579689   -2.217492    0.880554
     20          1           0        0.579689   -2.217512   -0.880496
     21          1           0       -2.278808   -1.908706    0.000014
     22          1           0       -3.074472    2.301356   -0.000006
     23          1           0       -0.658593    2.790613   -0.000006
 ---------------------------------------------------------------------
 Rotational constants (GHZ):           1.9901539           0.0763588           0.0735708
 Standard basis: MIDIx (5D, 7F)
 There are   201 symmetry adapted cartesian basis functions of A   symmetry.
 There are   196 symmetry adapted basis functions of A   symmetry.
   196 basis functions,   375 primitive gaussians,   201 cartesian basis functions
    87 alpha electrons       87 beta electrons
       nuclear repulsion energy      1629.0657348933 Hartrees.
 NAtoms=   23 NActive=   23 NUniq=   23 SFac= 1.00D+00 NAtFMM=   60 NAOKFM=F Big=F
 Integral buffers will be    131072 words long.
 Raffenetti 2 integral format.
 Two-electron integral symmetry is turned on.
 Nuclear repulsion after empirical dispersion term =     1629.0497447173 Hartrees.
 One-electron integrals computed using PRISM.
 NBasis=   196 RedAO= T EigKep=  9.90D-04  NBF=   196
 NBsUse=   196 1.00D-06 EigRej= -1.00D+00 NBFU=   196
 Defaulting to unpruned grid for atomic number  53.
 ExpMin= 1.15D-01 ExpMax= 1.44D+04 ExpMxC= 1.44D+04 IAcc=3 IRadAn=         5 AccDes= 0.00D+00
 Harris functional with IExCor= 4639 and IRadAn=       5 diagonalized for initial guess.
 HarFok:  IExCor= 4639 AccDes= 0.00D+00 IRadAn=         5 IDoV= 1 UseB2=F ITyADJ=14
 ICtDFT=  3500011 ScaDFX=  1.000000  1.000000  1.000000  1.000000
 Defaulting to unpruned grid for atomic number  53.
 FoFCou: FMM=F IPFlag=           0 FMFlag=      100000 FMFlg1=           0
         NFxFlg=           0 DoJE=T BraDBF=F KetDBF=T FulRan=T
         wScrn=  0.000000 ICntrl=       500 IOpCl=  0 I1Cent=   200000004 NGrid=           0
         NMat0=    1 NMatS0=      1 NMatT0=    0 NMatD0=    1 NMtDS0=    0 NMtDT0=    0
 Petite list used in FoFCou.
 Requested convergence on RMS density matrix=1.00D-08 within 128 cycles.
 Requested convergence on MAX density matrix=1.00D-06.
 Requested convergence on             energy=1.00D-06.
 No special actions if energy rises.
 Integral accuracy reduced to 1.0D-05 until final iterations.
 Defaulting to unpruned grid for atomic number  53.
 Defaulting to unpruned grid for atomic number  53.
 Defaulting to unpruned grid for atomic number  53.
 Defaulting to unpruned grid for atomic number  53.
 Defaulting to unpruned grid for atomic number  53.
 Defaulting to unpruned grid for atomic number  53.
 Defaulting to unpruned grid for atomic number  53.
 Defaulting to unpruned grid for atomic number  53.
 Defaulting to unpruned grid for atomic number  53.
 Defaulting to unpruned grid for atomic number  53.
 Defaulting to unpruned grid for atomic number  53.
 Defaulting to unpruned grid for atomic number  53.
 Defaulting to unpruned grid for atomic number  53.
 Defaulting to unpruned grid for atomic number  53.
 Defaulting to unpruned grid for atomic number  53.
 Defaulting to unpruned grid for atomic number  53.
 Defaulting to unpruned grid for atomic number  53.
 Defaulting to unpruned grid for atomic number  53.
 Defaulting to unpruned grid for atomic number  53.
 Defaulting to unpruned grid for atomic number  53.
 Defaulting to unpruned grid for atomic number  53.
 Defaulting to unpruned grid for atomic number  53.
 Defaulting to unpruned grid for atomic number  53.
 Defaulting to unpruned grid for atomic number  53.
 Initial convergence to 1.0D-05 achieved.  Increase integral accuracy.
 SCF Done:  E(RwB97XD) =  -9949.43316853     A.U. after   16 cycles
            NFock= 16  Conv=0.61D-08     -V/T= 1.9997
 DoSCS=F DFT=T ScalE2(SS,OS)=  1.000000  1.000000
 Range of M.O.s used for correlation:     1   196
 NBasis=   196 NAE=    87 NBE=    87 NFC=     0 NFV=     0
 NROrb=    196 NOA=    87 NOB=    87 NVA=   109 NVB=   109
          Differentiating once with respect to magnetic field using GIAOs.
          Electric field/nuclear overlap derivatives assumed to be zero.
 Defaulting to unpruned grid for atomic number  53.
 FoFCou: FMM=F IPFlag=           0 FMFlag=      100000 FMFlg1=           0
         NFxFlg=           0 DoJE=F BraDBF=F KetDBF=T FulRan=T
         wScrn=  0.000000 ICntrl=      6100 IOpCl=  0 I1Cent=           7 NGrid=          23
         NMat0=    1 NMatS0=      1 NMatT0=    0 NMatD0=    1 NMtDS0=    0 NMtDT0=    0
 Symmetry not used in FoFCou.
 FoFJK:  IHMeth= 1 ICntrl=    6127 DoSepK=T KAlg= 0 I1Cent=           0 FoldK=F
 IRaf=         1 NMat=       1 IRICut=       1 DoRegI=T DoRafI=F ISym2E= 0 IDoP0=0 IntGTp=1.
 Defaulting to unpruned grid for atomic number  53.
 Defaulting to unpruned grid for atomic number  53.
 Defaulting to unpruned grid for atomic number  53.
 Defaulting to unpruned grid for atomic number  53.
 Defaulting to unpruned grid for atomic number  53.
 Defaulting to unpruned grid for atomic number  53.
 Defaulting to unpruned grid for atomic number  53.
 Defaulting to unpruned grid for atomic number  53.
 Defaulting to unpruned grid for atomic number  53.
 Defaulting to unpruned grid for atomic number  53.
 Defaulting to unpruned grid for atomic number  53.
 Defaulting to unpruned grid for atomic number  53.
 Defaulting to unpruned grid for atomic number  53.
 Defaulting to unpruned grid for atomic number  53.
 Defaulting to unpruned grid for atomic number  53.
 Defaulting to unpruned grid for atomic number  53.
 Defaulting to unpruned grid for atomic number  53.
 Defaulting to unpruned grid for atomic number  53.
 Defaulting to unpruned grid for atomic number  53.
 Defaulting to unpruned grid for atomic number  53.
 Defaulting to unpruned grid for atomic number  53.
 Defaulting to unpruned grid for atomic number  53.
 Defaulting to unpruned grid for atomic number  53.
 Defaulting to unpruned grid for atomic number  53.
          There are     3 degrees of freedom in the 1st order CPHF.  IDoFFX=0 NUNeed=     3.
      3 vectors produced by pass  0 Test12= 3.16D-13 3.33D-08 XBig12= 2.36D+01 1.02D+00.
 AX will form     3 AO Fock derivatives at one time.
      3 vectors produced by pass  1 Test12= 3.16D-13 3.33D-08 XBig12= 3.61D-01 2.42D-01.
      3 vectors produced by pass  2 Test12= 3.16D-13 3.33D-08 XBig12= 5.99D-03 2.10D-02.
      3 vectors produced by pass  3 Test12= 3.16D-13 3.33D-08 XBig12= 6.07D-05 2.33D-03.
      3 vectors produced by pass  4 Test12= 3.16D-13 3.33D-08 XBig12= 1.34D-06 6.08D-04.
      3 vectors produced by pass  5 Test12= 3.16D-13 3.33D-08 XBig12= 2.95D-08 9.06D-05.
      3 vectors produced by pass  6 Test12= 3.16D-13 3.33D-08 XBig12= 5.24D-10 8.21D-06.
      3 vectors produced by pass  7 Test12= 3.16D-13 3.33D-08 XBig12= 7.76D-12 6.65D-07.
      1 vectors produced by pass  8 Test12= 3.16D-13 3.33D-08 XBig12= 1.18D-13 1.17D-07.
 InvSVY:  IOpt=1 It=  1 EMax= 8.88D-16
 Solved reduced A of dimension    25 with     3 vectors.
 Calculating GIAO nuclear magnetic shielding tensors.
 SCF GIAO Magnetic shielding tensor (ppm):
      1  Br   Isotropic =  2177.1093   Anisotropy =  1193.7179
   XX=  2921.6742   YX=  -239.1466   ZX=    -0.0182
   XY=  -234.7389   YY=  1877.4080   ZY=     0.0033
   XZ=    -0.0105   YZ=     0.0016   ZZ=  1732.2458
   Eigenvalues:  1732.2458  1826.1609  2972.9213
      2  C    Isotropic =    80.2994   Anisotropy =   108.6937
   XX=     5.3033   YX=    17.3063   ZX=     0.0008
   XY=    19.5068   YY=    82.8329   ZY=     0.0001
   XZ=     0.0005   YZ=     0.0002   ZZ=   152.7618
   Eigenvalues:     1.1553    86.9810   152.7618
      3  C    Isotropic =    84.6740   Anisotropy =   139.7119
   XX=    44.6717   YX=   -37.3258   ZX=     0.0006
   XY=   -42.9704   YY=    31.5349   ZY=     0.0013
   XZ=     0.0013   YZ=     0.0013   ZZ=   177.8152
   Eigenvalues:    -2.5785    78.7852   177.8152
      4  C    Isotropic =    93.4033   Anisotropy =   151.9017
   XX=    72.0954   YX=    18.3985   ZX=     0.0003
   XY=    17.0477   YY=    13.4435   ZY=     0.0007
   XZ=     0.0000   YZ=     0.0015   ZZ=   194.6712
   Eigenvalues:     8.5040    77.0349   194.6712
      5  C    Isotropic =    77.7412   Anisotropy =   141.5401
   XX=     2.3286   YX=     8.9787   ZX=     0.0004
   XY=    20.7088   YY=    58.7937   ZY=     0.0004
   XZ=     0.0006   YZ=     0.0006   ZZ=   172.1013
   Eigenvalues:    -1.3358    62.4581   172.1013
      6  C    Isotropic =    74.0106   Anisotropy =   145.4606
   XX=    29.0217   YX=   -23.4984   ZX=     0.0004
   XY=   -33.1134   YY=    22.0258   ZY=     0.0004
   XZ=     0.0004   YZ=    -0.0002   ZZ=   170.9844
   Eigenvalues:    -2.9974    54.0449   170.9844
      7  C    Isotropic =    85.9799   Anisotropy =   129.9750
   XX=    76.0731   YX=    18.8430   ZX=    -0.0000
   XY=    20.9627   YY=     9.2367   ZY=     0.0001
   XZ=     0.0006   YZ=    -0.0003   ZZ=   172.6299
   Eigenvalues:     3.7589    81.5509   172.6299
      8  C    Isotropic =   169.8158   Anisotropy =    30.0314
   XX=   189.8341   YX=    -0.2838   ZX=     0.0001
   XY=    -0.1837   YY=   169.2676   ZY=    -0.0004
   XZ=     0.0001   YZ=    -0.0005   ZZ=   150.3458
   Eigenvalues:   150.3458   169.2650   189.8368
      9  C    Isotropic =    74.0116   Anisotropy =   144.4743
   XX=    30.8010   YX=    24.9442   ZX=     0.0001
   XY=    32.4369   YY=    20.9060   ZY=     0.0006
   XZ=    -0.0009   YZ=    -0.0003   ZZ=   170.3278
   Eigenvalues:    -3.2605    54.9675   170.3278
     10  C    Isotropic =    82.2359   Anisotropy =   128.8421
   XX=    76.0545   YX=   -19.9820   ZX=    -0.0005
   XY=   -27.4373   YY=     2.5226   ZY=     0.0010
   XZ=     0.0004   YZ=     0.0011   ZZ=   168.1307
   Eigenvalues:    -4.4593    83.0365   168.1307
     11  C    Isotropic =    92.0004   Anisotropy =   109.2941
   XX=    12.5962   YX=   -16.6423   ZX=    -0.0004
   XY=   -18.5303   YY=    98.5419   ZY=     0.0003
   XZ=    -0.0011   YZ=     0.0001   ZZ=   164.8631
   Eigenvalues:     9.1369   102.0012   164.8631
     12  I    Isotropic =  3775.4569   Anisotropy =  2443.9378
   XX=  5326.9137   YX=   413.5273   ZX=    -0.0194
   XY=   407.0410   YY=  3242.0579   ZY=    -0.0046
   XZ=    -0.0109   YZ=    -0.0055   ZZ=  2757.3991
   Eigenvalues:  2757.3991  3164.2229  5404.7488
     13  C    Isotropic =    80.9963   Anisotropy =   138.7838
   XX=    45.1461   YX=    38.8153   ZX=    -0.0008
   XY=    49.8574   YY=    24.3239   ZY=     0.0003
   XZ=    -0.0005   YZ=     0.0008   ZZ=   173.5188
   Eigenvalues:   -10.8073    80.2773   173.5188
     14  C    Isotropic =    93.4792   Anisotropy =   150.3286
   XX=    72.1255   YX=   -21.3979   ZX=    -0.0002
   XY=   -17.8971   YY=    14.6139   ZY=     0.0007
   XZ=    -0.0006   YZ=     0.0002   ZZ=   193.6983
   Eigenvalues:     8.5427    78.1967   193.6983
     15  C    Isotropic =    76.9263   Anisotropy =   143.8653
   XX=     0.3327   YX=    -7.0378   ZX=     0.0002
   XY=   -18.7682   YY=    57.6097   ZY=     0.0006
   XZ=     0.0008   YZ=     0.0009   ZZ=   172.8365
   Eigenvalues:    -2.4398    60.3822   172.8365
     16  H    Isotropic =    25.6614   Anisotropy =     7.2246
   XX=    27.7734   YX=    -2.3233   ZX=    -0.0000
   XY=    -2.1058   YY=    28.6643   ZY=    -0.0000
   XZ=     0.0000   YZ=    -0.0001   ZZ=    20.5464
   Eigenvalues:    20.5464    25.9599    30.4778
     17  H    Isotropic =    25.2607   Anisotropy =     6.0153
   XX=    29.1521   YX=     0.6124   ZX=     0.0000
   XY=     0.5018   YY=    26.6601   ZY=    -0.0000
   XZ=    -0.0001   YZ=     0.0000   ZZ=    19.9701
   Eigenvalues:    19.9701    26.5412    29.2709
     18  H    Isotropic =    25.6388   Anisotropy =     9.1017
   XX=    31.0382   YX=     2.0218   ZX=    -0.0000
   XY=     1.8986   YY=    25.9582   ZY=    -0.0000
   XZ=     0.0000   YZ=    -0.0000   ZZ=    19.9201
   Eigenvalues:    19.9201    25.2898    31.7066
     19  H    Isotropic =    29.2480   Anisotropy =     8.8326
   XX=    30.3098   YX=    -0.0929   ZX=    -0.0183
   XY=    -0.0498   YY=    30.4027   ZY=    -4.1399
   XZ=    -0.0912   YZ=    -8.2479   ZZ=    27.0316
   Eigenvalues:    22.2970    30.3106    35.1364
     20  H    Isotropic =    29.2483   Anisotropy =     8.8325
   XX=    30.3101   YX=    -0.0928   ZX=     0.0184
   XY=    -0.0497   YY=    30.4032   ZY=     4.1399
   XZ=     0.0912   YZ=     8.2478   ZZ=    27.0315
   Eigenvalues:    22.2973    30.3109    35.1366
     21  H    Isotropic =    25.6166   Anisotropy =    11.3036
   XX=    32.0498   YX=    -3.0983   ZX=     0.0000
   XY=    -2.6724   YY=    25.6017   ZY=    -0.0000
   XZ=     0.0001   YZ=    -0.0000   ZZ=    19.1985
   Eigenvalues:    19.1985    24.4991    33.1524
     22  H    Isotropic =    25.6581   Anisotropy =     9.4509
   XX=    28.2901   YX=     3.6451   ZX=    -0.0000
   XY=     3.1221   YY=    28.8380   ZY=    -0.0001
   XZ=     0.0000   YZ=     0.0000   ZZ=    19.8463
   Eigenvalues:    19.8463    25.1694    31.9588
     23  H    Isotropic =    25.3073   Anisotropy =     6.0039
   XX=    29.2413   YX=    -0.4944   ZX=     0.0000
   XY=    -0.3462   YY=    26.7352   ZY=    -0.0000
   XZ=     0.0000   YZ=    -0.0001   ZZ=    19.9455
   Eigenvalues:    19.9455    26.6665    29.3099
 End of Minotr F.D. properties file   721 does not exist.
 End of Minotr F.D. properties file   722 does not exist.
 End of Minotr F.D. properties file   788 does not exist.

 **********************************************************************

            Population analysis using the SCF Density.

 **********************************************************************

 Orbital symmetries:
       Occupied  (A) (A) (A) (A) (A) (A) (A) (A) (A) (A) (A) (A)
                 (A) (A) (A) (A) (A) (A) (A) (A) (A) (A) (A) (A)
                 (A) (A) (A) (A) (A) (A) (A) (A) (A) (A) (A) (A)
                 (A) (A) (A) (A) (A) (A) (A) (A) (A) (A) (A) (A)
                 (A) (A) (A) (A) (A) (A) (A) (A) (A) (A) (A) (A)
                 (A) (A) (A) (A) (A) (A) (A) (A) (A) (A) (A) (A)
                 (A) (A) (A) (A) (A) (A) (A) (A) (A) (A) (A) (A)
                 (A) (A) (A)
       Virtual   (A) (A) (A) (A) (A) (A) (A) (A) (A) (A) (A) (A)
                 (A) (A) (A) (A) (A) (A) (A) (A) (A) (A) (A) (A)
                 (A) (A) (A) (A) (A) (A) (A) (A) (A) (A) (A) (A)
                 (A) (A) (A) (A) (A) (A) (A) (A) (A) (A) (A) (A)
                 (A) (A) (A) (A) (A) (A) (A) (A) (A) (A) (A) (A)
                 (A) (A) (A) (A) (A) (A) (A) (A) (A) (A) (A) (A)
                 (A) (A) (A) (A) (A) (A) (A) (A) (A) (A) (A) (A)
                 (A) (A) (A) (A) (A) (A) (A) (A) (A) (A) (A) (A)
                 (A) (A) (A) (A) (A) (A) (A) (A) (A) (A) (A) (A)
                 (A)
 The electronic state is 1-A.
 Alpha  occ. eigenvalues -- **********-480.14823-175.90819-164.64892-164.64661
 Alpha  occ. eigenvalues -- -164.64648 -62.58210 -56.17108 -56.16682 -56.16669
 Alpha  occ. eigenvalues --  -35.93367 -31.09305 -31.08791 -31.08787 -23.03329
 Alpha  occ. eigenvalues --  -23.03105 -23.03076 -23.02685 -23.02681 -10.29885
 Alpha  occ. eigenvalues --  -10.29009 -10.26099 -10.26024 -10.25883 -10.25796
 Alpha  occ. eigenvalues --  -10.25744 -10.25551 -10.25533 -10.25412 -10.25331
 Alpha  occ. eigenvalues --  -10.25298 -10.25279  -8.89052  -6.67532  -6.66107
 Alpha  occ. eigenvalues --   -6.66093  -6.49086  -4.79275  -4.77836  -4.77832
 Alpha  occ. eigenvalues --   -2.77837  -2.77343  -2.77326  -2.76153  -2.76149
 Alpha  occ. eigenvalues --   -2.15791  -2.15302  -2.15278  -2.14029  -2.14027
 Alpha  occ. eigenvalues --   -1.02734  -0.99004  -0.94607  -0.90596  -0.88319
 Alpha  occ. eigenvalues --   -0.87315  -0.82719  -0.81620  -0.76370  -0.73534
 Alpha  occ. eigenvalues --   -0.70644  -0.68841  -0.67844  -0.63203  -0.59976
 Alpha  occ. eigenvalues --   -0.57162  -0.55899  -0.55384  -0.54739  -0.54384
 Alpha  occ. eigenvalues --   -0.52020  -0.51415  -0.49352  -0.48242  -0.47888
 Alpha  occ. eigenvalues --   -0.45262  -0.43826  -0.43423  -0.41914  -0.41395
 Alpha  occ. eigenvalues --   -0.37181  -0.36469  -0.34975  -0.33776  -0.33754
 Alpha  occ. eigenvalues --   -0.33011  -0.28841
 Alpha virt. eigenvalues --    0.01864   0.04250   0.04760   0.06660   0.08602
 Alpha virt. eigenvalues --    0.09966   0.18412   0.19392   0.19601   0.20144
 Alpha virt. eigenvalues --    0.22889   0.23566   0.24260   0.27465   0.27840
 Alpha virt. eigenvalues --    0.27933   0.30426   0.33222   0.34732   0.35608
 Alpha virt. eigenvalues --    0.36513   0.37966   0.38276   0.42870   0.44287
 Alpha virt. eigenvalues --    0.45251   0.46471   0.47070   0.49219   0.49837
 Alpha virt. eigenvalues --    0.50488   0.52928   0.53781   0.55530   0.56851
 Alpha virt. eigenvalues --    0.58076   0.59859   0.61018   0.61254   0.63347
 Alpha virt. eigenvalues --    0.64174   0.64199   0.64264   0.65201   0.65395
 Alpha virt. eigenvalues --    0.65562   0.66739   0.67579   0.67849   0.69467
 Alpha virt. eigenvalues --    0.71697   0.72661   0.75545   0.77258   0.78868
 Alpha virt. eigenvalues --    0.79033   0.82703   0.84553   0.84775   0.86609
 Alpha virt. eigenvalues --    0.90822   0.91428   0.91616   0.92411   0.92945
 Alpha virt. eigenvalues --    0.94188   0.94305   0.95101   0.97242   0.97377
 Alpha virt. eigenvalues --    0.97616   0.98193   0.99065   0.99746   1.00571
 Alpha virt. eigenvalues --    1.02022   1.02791   1.03222   1.04532   1.04624
 Alpha virt. eigenvalues --    1.06018   1.06174   1.07490   1.09861   1.10867
 Alpha virt. eigenvalues --    1.11656   1.14274   1.15654   1.16135   1.17376
 Alpha virt. eigenvalues --    1.20179   1.22440   1.24398   1.27720   1.31888
 Alpha virt. eigenvalues --    1.38598   1.42120   1.45626   1.55941   1.57296
 Alpha virt. eigenvalues --    1.59612   1.63695   1.66835   1.67400   1.79831
 Alpha virt. eigenvalues --    1.82859   1.84407   1.97252   2.01944
          Condensed to atoms (all electrons):
               1          2          3          4          5          6
     1  Br  34.931734   0.213254  -0.039269   0.001841   0.000416   0.002391
     2  C    0.213254   5.042580   0.474750  -0.032803  -0.049454  -0.021429
     3  C   -0.039269   0.474750   4.957903   0.502687  -0.033079  -0.040962
     4  C    0.001841  -0.032803   0.502687   4.848368   0.463192  -0.013155
     5  C    0.000416  -0.049454  -0.033079   0.463192   4.992564   0.465915
     6  C    0.002391  -0.021429  -0.040962  -0.013155   0.465915   5.088922
     7  C   -0.040688   0.485165  -0.037148  -0.024096  -0.021675   0.469237
     8  C   -0.000027   0.000248   0.000843  -0.000009  -0.049997   0.322472
     9  C    0.000001  -0.000123  -0.000110   0.001003  -0.046828  -0.086713
    10  C   -0.000000  -0.000000   0.000001   0.000018   0.001162   0.001873
    11  C    0.000000   0.000000   0.000000   0.000000   0.001045  -0.000121
    12  I   -0.000000   0.000000  -0.000000  -0.000000   0.000003   0.000002
    13  C   -0.000000   0.000000  -0.000001   0.000115   0.000495  -0.000126
    14  C   -0.000000   0.000001   0.000112  -0.001950   0.006708   0.001035
    15  C    0.000001   0.001062   0.000438   0.006736   0.342812  -0.046621
    16  H    0.000613  -0.021512   0.394716  -0.017718   0.003032   0.000113
    17  H   -0.000056   0.002879  -0.020615   0.397415  -0.019616   0.002670
    18  H    0.000683  -0.017794   0.002248   0.000040   0.002502  -0.014816
    19  H   -0.000000   0.000047  -0.000005  -0.000015   0.000952  -0.025120
    20  H   -0.000000   0.000047  -0.000005  -0.000015   0.000952  -0.025119
    21  H   -0.000000  -0.000000  -0.000000  -0.000000  -0.000116   0.000111
    22  H   -0.000000  -0.000000   0.000000  -0.000000  -0.000028   0.000001
    23  H   -0.000000  -0.000000  -0.000015   0.001521  -0.006660   0.000102
               7          8          9         10         11         12
     1  Br  -0.040688  -0.000027   0.000001  -0.000000   0.000000  -0.000000
     2  C    0.485165   0.000248  -0.000123  -0.000000   0.000000   0.000000
     3  C   -0.037148   0.000843  -0.000110   0.000001   0.000000  -0.000000
     4  C   -0.024096  -0.000009   0.001003   0.000018   0.000000  -0.000000
     5  C   -0.021675  -0.049997  -0.046828   0.001162   0.001045   0.000003
     6  C    0.469237   0.322472  -0.086713   0.001873  -0.000121   0.000002
     7  C    4.884424   0.004790   0.001885   0.000029  -0.000000  -0.000000
     8  C    0.004790   5.018242   0.322914   0.004805   0.000238  -0.000047
     9  C    0.001885   0.322914   5.081786   0.478391  -0.026273   0.003591
    10  C    0.000029   0.004805   0.478391   4.878390   0.483355  -0.048100
    11  C   -0.000000   0.000238  -0.026273   0.483355   5.217774   0.260528
    12  I   -0.000000  -0.000047   0.003591  -0.048100   0.260528  52.697558
    13  C    0.000001   0.000924  -0.041470  -0.035824   0.472193  -0.046309
    14  C    0.000019  -0.000097  -0.013887  -0.024873  -0.036857   0.002876
    15  C    0.001163  -0.050417   0.466044  -0.020600  -0.049641   0.000462
    16  H    0.002484   0.000004   0.000000  -0.000000  -0.000000  -0.000000
    17  H   -0.000092  -0.000078   0.000106   0.000001   0.000000  -0.000000
    18  H    0.389239  -0.004883   0.000112   0.000001  -0.000000  -0.000000
    19  H   -0.003968   0.386716  -0.025124  -0.003989   0.000049  -0.000001
    20  H   -0.003968   0.386716  -0.025122  -0.003989   0.000049  -0.000001
    21  H    0.000001  -0.004891  -0.016513   0.394109  -0.019415  -0.000150
    22  H   -0.000000   0.000004   0.000163   0.002391  -0.023119  -0.000076
    23  H    0.000001  -0.000077   0.002675  -0.000061   0.002972  -0.000101
              13         14         15         16         17         18
     1  Br  -0.000000  -0.000000   0.000001   0.000613  -0.000056   0.000683
     2  C    0.000000   0.000001   0.001062  -0.021512   0.002879  -0.017794
     3  C   -0.000001   0.000112   0.000438   0.394716  -0.020615   0.002248
     4  C    0.000115  -0.001950   0.006736  -0.017718   0.397415   0.000040
     5  C    0.000495   0.006708   0.342812   0.003032  -0.019616   0.002502
     6  C   -0.000126   0.001035  -0.046621   0.000113   0.002670  -0.014816
     7  C    0.000001   0.000019   0.001163   0.002484  -0.000092   0.389239
     8  C    0.000924  -0.000097  -0.050417   0.000004  -0.000078  -0.004883
     9  C   -0.041470  -0.013887   0.466044   0.000000   0.000106   0.000112
    10  C   -0.035824  -0.024873  -0.020600  -0.000000   0.000001   0.000001
    11  C    0.472193  -0.036857  -0.049641  -0.000000   0.000000  -0.000000
    12  I   -0.046309   0.002876   0.000462  -0.000000  -0.000000  -0.000000
    13  C    4.954431   0.510013  -0.032504   0.000000  -0.000016  -0.000000
    14  C    0.510013   4.843341   0.463319  -0.000000   0.001527  -0.000000
    15  C   -0.032504   0.463319   4.990954  -0.000026  -0.006678  -0.000113
    16  H    0.000000  -0.000000  -0.000026   0.430199  -0.004001  -0.000056
    17  H   -0.000016   0.001527  -0.006678  -0.004001   0.444562   0.000006
    18  H   -0.000000  -0.000000  -0.000113  -0.000056   0.000006   0.432420
    19  H   -0.000006  -0.000013   0.000970  -0.000000   0.000002   0.000767
    20  H   -0.000006  -0.000013   0.000970  -0.000000   0.000002   0.000767
    21  H    0.002150   0.000079   0.002542   0.000000   0.000000   0.000000
    22  H    0.399439  -0.019438   0.003128   0.000000   0.000001   0.000000
    23  H   -0.021017   0.397589  -0.019749   0.000001   0.002228   0.000000
              19         20         21         22         23
     1  Br  -0.000000  -0.000000  -0.000000  -0.000000  -0.000000
     2  C    0.000047   0.000047  -0.000000  -0.000000  -0.000000
     3  C   -0.000005  -0.000005  -0.000000   0.000000  -0.000015
     4  C   -0.000015  -0.000015  -0.000000  -0.000000   0.001521
     5  C    0.000952   0.000952  -0.000116  -0.000028  -0.006660
     6  C   -0.025120  -0.025119   0.000111   0.000001   0.000102
     7  C   -0.003968  -0.003968   0.000001  -0.000000   0.000001
     8  C    0.386716   0.386716  -0.004891   0.000004  -0.000077
     9  C   -0.025124  -0.025122  -0.016513   0.000163   0.002675
    10  C   -0.003989  -0.003989   0.394109   0.002391  -0.000061
    11  C    0.000049   0.000049  -0.019415  -0.023119   0.002972
    12  I   -0.000001  -0.000001  -0.000150  -0.000076  -0.000101
    13  C   -0.000006  -0.000006   0.002150   0.399439  -0.021017
    14  C   -0.000013  -0.000013   0.000079  -0.019438   0.397589
    15  C    0.000970   0.000970   0.002542   0.003128  -0.019749
    16  H   -0.000000  -0.000000   0.000000   0.000000   0.000001
    17  H    0.000002   0.000002   0.000000   0.000001   0.002228
    18  H    0.000767   0.000767   0.000000   0.000000   0.000000
    19  H    0.455621  -0.022626   0.000797  -0.000000   0.000002
    20  H   -0.022626   0.455619   0.000797  -0.000000   0.000002
    21  H    0.000797   0.000797   0.433819  -0.000051   0.000006
    22  H   -0.000000  -0.000000  -0.000051   0.431404  -0.003904
    23  H    0.000002   0.000002   0.000006  -0.003904   0.445494
 Mulliken charges:
               1
     1  Br  -0.070895
     2  C   -0.076919
     3  C   -0.162488
     4  C   -0.133177
     5  C   -0.054298
     6  C   -0.080662
     7  C   -0.106802
     8  C   -0.338392
     9  C   -0.076509
    10  C   -0.107088
    11  C   -0.282776
    12  I    0.129765
    13  C   -0.162482
    14  C   -0.129490
    15  C   -0.054251
    16  H    0.212149
    17  H    0.199752
    18  H    0.208877
    19  H    0.234942
    20  H    0.234942
    21  H    0.206726
    22  H    0.210085
    23  H    0.198992
 Sum of Mulliken charges =  -0.00000
 Mulliken charges with hydrogens summed into heavy atoms:
               1
     1  Br  -0.070895
     2  C   -0.076919
     3  C    0.049661
     4  C    0.066575
     5  C   -0.054298
     6  C   -0.080662
     7  C    0.102075
     8  C    0.131492
     9  C   -0.076509
    10  C    0.099637
    11  C   -0.282776
    12  I    0.129765
    13  C    0.047603
    14  C    0.069502
    15  C   -0.054251
 Electronic spatial extent (au):  <R**2>=          11277.7397
 Charge=             -0.0000 electrons
 Dipole moment (field-independent basis, Debye):
    X=              0.0245    Y=              0.0128    Z=              0.0000  Tot=              0.0276
 Quadrupole moment (field-independent basis, Debye-Ang):
   XX=           -130.6562   YY=           -108.0834   ZZ=           -126.1899
   XY=              0.5287   XZ=             -0.0001   YZ=             -0.0001
 Traceless Quadrupole moment (field-independent basis, Debye-Ang):
   XX=             -9.0130   YY=             13.5598   ZZ=             -4.5468
   XY=              0.5287   XZ=             -0.0001   YZ=             -0.0001
 Octapole moment (field-independent basis, Debye-Ang**2):
  XXX=            -69.1304  YYY=            -10.2095  ZZZ=             -0.0003  XYY=             -3.2811
  XXY=             -2.8351  XXZ=             -0.0003  XZZ=            -13.8786  YZZ=            -11.9729
  YYZ=             -0.0002  XYZ=             -0.0000
 Hexadecapole moment (field-independent basis, Debye-Ang**3):
 XXXX=         -10123.7805 YYYY=           -733.6556 ZZZZ=           -146.3371 XXXY=             22.0274
 XXXZ=              0.0016 YYYX=             -9.4360 YYYZ=              0.0009 ZZZX=              0.0069
 ZZZY=              0.0012 XXYY=          -1783.7224 XXZZ=          -1805.7335 YYZZ=           -168.5190
 XXYZ=              0.0000 YYXZ=              0.0020 ZZXY=             -7.2304
 N-N= 1.629049744717D+03 E-N=-2.690846054314D+04  KE= 9.952575527156D+03
 Unable to Open any file for archive entry.
 1\1\GINC-DYNAMO\SP\RwB97XD\MIDIx\C13H8Br1I1\RPATON\26-Sep-2024\0\\# wb
 97xd midix nmr=giao\\energy: -39.823789709276 gnorm: 0.000181017279 xt
 b: 6.7.0 (08769fc)\\0,1\Br,0,5.88606,-0.30481,-0.00001\C,0,4.02111,0.0
 9351,0.00001\C,0,3.61829,1.42065,0.\C,0,2.2694,1.73034,0.\C,0,1.34512,
 0.69696,0.00001\C,0,1.77031,-0.64201,0.00001\C,0,3.11223,-0.95571,0.00
 001\C,0,0.58844,-1.56599,0.00002\C,0,-0.56795,-0.61006,0.00002\C,0,-1.
 91821,-0.88745,0.00002\C,0,-2.80081,0.18231,0.\I,0,-4.88315,-0.20732,0
 .00001\C,0,-2.36107,1.49641,0.\C,0,-1.00438,1.7722,0.00001\C,0,-0.1065
 6,0.71629,0.00001\H,0,4.35944,2.20495,-0.00001\H,0,1.95033,2.76111,0.\
 H,0,3.45367,-1.97967,0.00001\H,0,0.57984,-2.21281,0.88056\H,0,0.57984,
 -2.21283,-0.88049\H,0,-2.27875,-1.90489,0.00002\H,0,-3.07569,2.30493,0
 .\H,0,-0.65996,2.79492,0.\\Version=ES64L-G16RevC.01\State=1-A\HF=-9949
 .4331685\RMSD=6.099e-09\Dipole=0.0096188,0.0050259,0.0000025\Quadrupol
 e=-6.7012173,10.0816203,-3.3804029,0.3879625,-0.0000563,-0.0000617\PG=
 C01 [X(C13H8Br1I1)]\\@
 The archive entry for this job was punched.


 SEEN ON A WALL AT THE UNIVERSITY OF ILLINOIS AT CHICAGO CIRCLE:

 TO DO IS TO BE  -- SOCRATES
 TO BE IS TO DO  -- SARTRE
 OO BE DO BE DO  -- SINATRA
 Job cpu time:       0 days  0 hours  8 minutes 14.6 seconds.
 Elapsed time:       0 days  0 hours  0 minutes 23.4 seconds.
 File lengths (MBytes):  RWF=     25 Int=      0 D2E=      0 Chk=      4 Scr=      1
 Normal termination of Gaussian 16 at Thu Sep 26 13:13:53 2024.
