 Entering Gaussian System, Link 0=/usr/local/Gaussian/G16C/g16/g16
 Input=nmr/arbr42_xtbopt_nmr.com
 Output=nmr/arbr42_xtbopt_nmr.log
 Initial command:
 /usr/local/Gaussian/G16C/g16/l1.exe "/home/rpaton/opt/xtb/Gau-1324183.inp" -scrdir="/home/rpaton/opt/xtb/"
 Entering Link 1 = /usr/local/Gaussian/G16C/g16/l1.exe PID=   1324184.
  
 Copyright (c) 1988-2019, Gaussian, Inc.  All Rights Reserved.
  
 This is part of the Gaussian(R) 16 program.  It is based on
 the Gaussian(R) 09 system (copyright 2009, Gaussian, Inc.),
 the Gaussian(R) 03 system (copyright 2003, Gaussian, Inc.),
 the Gaussian(R) 98 system (copyright 1998, Gaussian, Inc.),
 the Gaussian(R) 94 system (copyright 1995, Gaussian, Inc.),
 the Gaussian 92(TM) system (copyright 1992, Gaussian, Inc.),
 the Gaussian 90(TM) system (copyright 1990, Gaussian, Inc.),
 the Gaussian 88(TM) system (copyright 1988, Gaussian, Inc.),
 the Gaussian 86(TM) system (copyright 1986, Carnegie Mellon
 University), and the Gaussian 82(TM) system (copyright 1983,
 Carnegie Mellon University). Gaussian is a federally registered
 trademark of Gaussian, Inc.
  
 This software contains proprietary and confidential information,
 including trade secrets, belonging to Gaussian, Inc.
  
 This software is provided under written license and may be
 used, copied, transmitted, or stored only in accord with that
 written license.
  
 The following legend is applicable only to US Government
 contracts under FAR:
  
                    RESTRICTED RIGHTS LEGEND
  
 Use, reproduction and disclosure by the US Government is
 subject to restrictions as set forth in subparagraphs (a)
 and (c) of the Commercial Computer Software - Restricted
 Rights clause in FAR 52.227-19.
  
 Gaussian, Inc.
 340 Quinnipiac St., Bldg. 40, Wallingford CT 06492
  
  
 ---------------------------------------------------------------
 Warning -- This program may not be used in any manner that
 competes with the business of Gaussian, Inc. or will provide
 assistance to any competitor of Gaussian, Inc.  The licensee
 of this program is prohibited from giving any competitor of
 Gaussian, Inc. access to this program.  By using this program,
 the user acknowledges that Gaussian, Inc. is engaged in the
 business of creating and licensing software in the field of
 computational chemistry and represents and warrants to the
 licensee that it is not a competitor of Gaussian, Inc. and that
 it will not use this program in any manner prohibited above.
 ---------------------------------------------------------------
  

 Cite this work as:
 Gaussian 16, Revision C.01,
 M. J. Frisch, G. W. Trucks, H. B. Schlegel, G. E. Scuseria, 
 M. A. Robb, J. R. Cheeseman, G. Scalmani, V. Barone, 
 G. A. Petersson, H. Nakatsuji, X. Li, M. Caricato, A. V. Marenich, 
 J. Bloino, B. G. Janesko, R. Gomperts, B. Mennucci, H. P. Hratchian, 
 J. V. Ortiz, A. F. Izmaylov, J. L. Sonnenberg, D. Williams-Young, 
 F. Ding, F. Lipparini, F. Egidi, J. Goings, B. Peng, A. Petrone, 
 T. Henderson, D. Ranasinghe, V. G. Zakrzewski, J. Gao, N. Rega, 
 G. Zheng, W. Liang, M. Hada, M. Ehara, K. Toyota, R. Fukuda, 
 J. Hasegawa, M. Ishida, T. Nakajima, Y. Honda, O. Kitao, H. Nakai, 
 T. Vreven, K. Throssell, J. A. Montgomery, Jr., J. E. Peralta, 
 F. Ogliaro, M. J. Bearpark, J. J. Heyd, E. N. Brothers, K. N. Kudin, 
 V. N. Staroverov, T. A. Keith, R. Kobayashi, J. Normand, 
 K. Raghavachari, A. P. Rendell, J. C. Burant, S. S. Iyengar, 
 J. Tomasi, M. Cossi, J. M. Millam, M. Klene, C. Adamo, R. Cammi, 
 J. W. Ochterski, R. L. Martin, K. Morokuma, O. Farkas, 
 J. B. Foresman, and D. J. Fox, Gaussian, Inc., Wallingford CT, 2019.
 
 ******************************************
 Gaussian 16:  ES64L-G16RevC.01  3-Jul-2019
                26-Sep-2024 
 ******************************************
 %nprocshared=24
 Will use up to   24 processors via shared memory.
 -----------------------
 # wb97xd midix nmr=giao
 -----------------------
 1/38=1,172=1/1;
 2/12=2,17=6,18=5,40=1/2;
 3/5=20,11=2,25=1,30=1,74=-58/1,2,3,8;
 4//1;
 5/5=2,38=5/2;
 8/6=1,10=90,11=11/1;
 10/13=100,45=16/2;
 6/7=2,8=2,9=2,10=2,28=1/1;
 99/9=1/99;
 -------------------------------------------------------------------
 energy: -44.567785349378 gnorm: 0.000473625240 xtb: 6.7.0 (08769fc)
 -------------------------------------------------------------------
 Symbolic Z-matrix:
 Charge =  0 Multiplicity = 1
 Br                   -3.39367  -0.60336  -0.04621 
 C                    -1.76131   0.37734  -0.02985 
 C                    -1.79339   1.75393   0.10409 
 C                    -0.59771   2.44498   0.11267 
 C                     0.6248    1.79091  -0.0038 
 C                     0.63224   0.40349  -0.13462 
 C                    -0.56466  -0.30035  -0.14609 
 C                     1.92928  -0.38605  -0.1951 
 C                     3.10324   0.50838  -0.61011 
 C                     3.11929   1.74705   0.2733 
 C                     1.89151   2.59764  -0.02493 
 O                     1.77654  -1.48125  -1.07777 
 C                     2.32221  -2.62242  -0.45567 
 C                     2.11245  -2.33071   1.03161 
 O                     2.20545  -0.92663   1.09922 
 H                    -2.73428   2.27386   0.19918 
 H                    -0.61116   3.52057   0.21283 
 H                    -0.55261  -1.37277  -0.26252 
 H                     4.02775  -0.06036  -0.50203 
 H                     2.97486   0.77618  -1.66024 
 H                     4.02729   2.32613   0.09935 
 H                     3.10551   1.42691   1.31636 
 H                     1.81314   3.41916   0.69027 
 H                     1.99339   3.04166  -1.02137 
 H                     1.78497  -3.49926  -0.81642 
 H                     3.39066  -2.71702  -0.69269 
 H                     2.88049  -2.76046   1.67596 
 H                     1.12062  -2.66291   1.36719 
 
                          Input orientation:                          
 ---------------------------------------------------------------------
 Center     Atomic      Atomic             Coordinates (Angstroms)
 Number     Number       Type             X           Y           Z
 ---------------------------------------------------------------------
      1         35           0       -3.393670   -0.603360   -0.046210
      2          6           0       -1.761310    0.377340   -0.029850
      3          6           0       -1.793390    1.753930    0.104090
      4          6           0       -0.597710    2.444980    0.112670
      5          6           0        0.624800    1.790910   -0.003800
      6          6           0        0.632240    0.403490   -0.134620
      7          6           0       -0.564660   -0.300350   -0.146090
      8          6           0        1.929280   -0.386050   -0.195100
      9          6           0        3.103240    0.508380   -0.610110
     10          6           0        3.119290    1.747050    0.273300
     11          6           0        1.891510    2.597640   -0.024930
     12          8           0        1.776540   -1.481250   -1.077770
     13          6           0        2.322210   -2.622420   -0.455670
     14          6           0        2.112450   -2.330710    1.031610
     15          8           0        2.205450   -0.926630    1.099220
     16          1           0       -2.734280    2.273860    0.199180
     17          1           0       -0.611160    3.520570    0.212830
     18          1           0       -0.552610   -1.372770   -0.262520
     19          1           0        4.027750   -0.060360   -0.502030
     20          1           0        2.974860    0.776180   -1.660240
     21          1           0        4.027290    2.326130    0.099350
     22          1           0        3.105510    1.426910    1.316360
     23          1           0        1.813140    3.419160    0.690270
     24          1           0        1.993390    3.041660   -1.021370
     25          1           0        1.784970   -3.499260   -0.816420
     26          1           0        3.390660   -2.717020   -0.692690
     27          1           0        2.880490   -2.760460    1.675960
     28          1           0        1.120620   -2.662910    1.367190
 ---------------------------------------------------------------------
                    Distance matrix (angstroms):
                    1          2          3          4          5
     1  Br   0.000000
     2  C    1.904374   0.000000
     3  C    2.853122   1.383463   0.000000
     4  C    4.139446   2.376849   1.381041   0.000000
     5  C    4.677866   2.773514   2.420878   1.391368   0.000000
     6  C    4.150845   2.395985   2.786459   2.396166   1.393594
     7  C    2.846944   1.380126   2.406748   2.757696   2.410068
     8  C    5.329464   3.772337   4.304335   3.807247   2.545077
     9  C    6.615421   4.900788   5.102790   4.239087   2.855724
    10  C    6.931462   5.078214   4.915598   3.785366   2.510217
    11  C    6.178995   4.274675   3.782457   2.497690   1.501937
    12  O    5.344706   4.131450   4.960603   4.740200   3.631384
    13  C    6.075816   5.084783   6.033567   5.876009   4.750039
    14  C    5.870502   4.844197   5.727143   5.567462   4.502547
    15  O    5.724217   4.325543   4.915934   4.494301   3.331686
    16  H    2.961994   2.143808   1.079186   2.145157   3.399685
    17  H    4.981592   3.355836   2.128499   1.080327   2.136878
    18  H    2.951339   2.139621   3.383813   3.836407   3.385573
    19  H    7.455206   5.824753   6.127373   5.296175   3.905829
    20  H    6.713151   5.024794   5.177361   4.323351   3.048976
    21  H    7.979583   6.109203   5.848739   4.626546   3.445873
    22  H    6.943913   5.157501   5.057248   4.024820   2.833591
    23  H    6.620721   4.748467   4.015427   2.663615   2.131920
    24  H    6.577045   4.709510   4.155071   2.890653   2.114914
    25  H    5.983124   5.312516   6.422461   6.471040   5.476518
    26  H    7.135309   6.046256   6.891925   6.572819   5.333478
    27  H    6.854490   5.856781   6.685480   6.452779   5.350206
    28  H    5.159289   4.415921   5.440161   5.533265   4.686359
                    6          7          8          9         10
     6  C    0.000000
     7  C    1.388557   0.000000
     8  C    1.519653   2.495893   0.000000
     9  C    2.518518   3.784554   1.533108   0.000000
    10  C    2.856041   4.235472   2.487094   1.521504   0.000000
    11  C    2.532210   3.800763   2.988777   2.485102   1.523118
    12  O    2.398166   2.782763   1.414885   2.436692   3.748371
    13  C    3.480690   3.717777   2.285529   3.230444   4.501000
    14  C    3.320687   3.560373   2.306528   3.425980   4.268125
    15  O    2.401368   3.101054   1.429602   2.405637   2.943775
    16  H    3.865639   3.384231   5.383249   6.152114   5.877695
    17  H    3.373863   3.838022   4.677812   4.852555   4.131015
    18  H    2.139002   1.078789   2.671692   4.126110   4.848013
    19  H    3.446685   4.612431   2.145660   1.090809   2.166372
    20  H    2.820334   3.997470   2.142581   1.091316   2.168415
    21  H    3.908664   5.295719   3.441550   2.159031   1.090897
    22  H    3.044634   4.311883   2.637205   2.134242   1.091171
    23  H    3.342040   4.493126   3.908579   3.439184   2.162370
    24  H    3.098225   4.298693   3.526475   2.796142   2.149380
    25  H    4.126148   4.025311   3.177883   4.223929   5.521926
    26  H    4.202131   4.667293   2.795827   3.239234   4.575445
    27  H    4.282920   4.608803   3.169146   3.995128   4.726746
    28  H    3.449168   3.272900   2.877286   4.230553   4.963771
                   11         12         13         14         15
    11  C    0.000000
    12  O    4.214147   0.000000
    13  C    5.255480   1.409622   0.000000
    14  C    5.045168   2.298674   1.530064   0.000000
    15  O    3.712513   2.287106   2.303697   1.408780   0.000000
    16  H    4.642520   6.006576   7.068980   6.736898   5.954338
    17  H    2.678001   5.690779   6.840167   6.505838   5.338218
    18  H    4.668439   2.470089   3.140624   3.113674   3.108098
    19  H    3.443270   2.723665   3.078176   3.342890   2.575889
    20  H    2.676864   2.621304   3.664345   4.200306   3.332593
    21  H    2.156553   4.576858   5.263411   5.120730   3.859960
    22  H    2.154870   3.994423   4.488956   3.897045   2.529112
    23  H    1.092038   5.209734   6.170334   5.767764   4.382583
    24  H    1.095640   4.528457   5.701749   5.752500   4.504353
    25  H    6.148983   2.034881   1.089778   2.210875   3.234951
    26  H    5.562281   2.069009   1.098505   2.180887   2.796634
    27  H    5.707919   3.230807   2.207845   1.090760   2.037459
    28  H    5.495967   2.793632   2.183638   1.098498   2.064784
                   16         17         18         19         20
    16  H    0.000000
    17  H    2.462135   0.000000
    18  H    4.274431   4.916723   0.000000
    19  H    7.187860   5.903691   4.770690   0.000000
    20  H    6.188277   4.888722   4.360579   1.774775   0.000000
    21  H    6.762509   4.791115   5.898160   2.461096   2.570236
    22  H    6.005711   4.406226   4.869591   2.523696   3.049699
    23  H    4.715073   2.472946   5.428368   4.293383   3.722880
    24  H    4.942684   2.921692   5.152200   3.745779   2.550262
    25  H    7.401620   7.488578   3.208278   4.117637   4.517439
    26  H    7.951051   7.466060   4.188249   2.738627   3.648491
    27  H    7.684458   7.333738   4.179661   3.653818   4.862814
    28  H    6.371515   6.524342   2.668354   4.326506   4.942760
                   21         22         23         24         25
    21  H    0.000000
    22  H    1.771832   0.000000
    23  H    2.538969   2.455864   0.000000
    24  H    2.429968   3.051100   1.762018   0.000000
    25  H    6.308867   5.528085   7.080639   6.547448   0.000000
    26  H    5.144510   4.614082   6.484894   5.934879   1.790377
    27  H    5.447407   4.208802   6.348112   6.459654   2.820983
    28  H    5.911571   4.546317   6.158683   6.245724   2.430842
                   26         27         28
    26  H    0.000000
    27  H    2.423358   0.000000
    28  H    3.065798   1.789413   0.000000
 Stoichiometry    C12H13BrO2
 Framework group  C1[X(C12H13BrO2)]
 Deg. of freedom    78
 Full point group                 C1      NOp   1
 Largest Abelian subgroup         C1      NOp   1
 Largest concise Abelian subgroup C1      NOp   1
                         Standard orientation:                         
 ---------------------------------------------------------------------
 Center     Atomic      Atomic             Coordinates (Angstroms)
 Number     Number       Type             X           Y           Z
 ---------------------------------------------------------------------
      1         35           0       -3.419817   -0.548321   -0.014354
      2          6           0       -1.773366    0.408657   -0.008799
      3          6           0       -1.784656    1.785588    0.125002
      4          6           0       -0.579072    2.459264    0.125675
      5          6           0        0.633067    1.787554    0.001463
      6          6           0        0.619584    0.400151   -0.129056
      7          6           0       -0.587424   -0.286297   -0.132608
      8          6           0        1.904645   -0.408085   -0.197728
      9          6           0        3.088714    0.469198   -0.620546
     10          6           0        3.128402    1.707644    0.262432
     11          6           0        1.911154    2.575865   -0.028062
     12          8           0        1.730365   -1.501098   -1.079118
     13          6           0        2.263480   -2.649948   -0.460276
     14          6           0        2.067592   -2.355001    1.028257
     15          8           0        2.181335   -0.952403    1.094914
     16          1           0       -2.717289    2.319094    0.226047
     17          1           0       -0.576308    3.534952    0.225652
     18          1           0       -0.591647   -1.358797   -0.248845
     19          1           0        4.005578   -0.112844   -0.518307
     20          1           0        2.957429    0.738664   -1.669891
     21          1           0        4.043541    2.273496    0.082467
     22          1           0        3.116742    1.387899    1.305639
     23          1           0        1.849310    3.398545    0.687425
     24          1           0        2.012998    3.018209   -1.025251
     25          1           0        1.711285   -3.518978   -0.817324
     26          1           0        3.328893   -2.760037   -0.704179
     27          1           0        2.833488   -2.795720    1.667733
     28          1           0        1.073252   -2.672761    1.370329
 ---------------------------------------------------------------------
 Rotational constants (GHZ):           0.7732849           0.2930148           0.2262166
 Standard basis: MIDIx (5D, 7F)
 There are   193 symmetry adapted cartesian basis functions of A   symmetry.
 There are   189 symmetry adapted basis functions of A   symmetry.
   189 basis functions,   324 primitive gaussians,   193 cartesian basis functions
    68 alpha electrons       68 beta electrons
       nuclear repulsion energy      1336.1224202725 Hartrees.
 NAtoms=   28 NActive=   28 NUniq=   28 SFac= 1.00D+00 NAtFMM=   60 NAOKFM=F Big=F
 Integral buffers will be    131072 words long.
 Raffenetti 2 integral format.
 Two-electron integral symmetry is turned on.
 Nuclear repulsion after empirical dispersion term =     1336.1006557531 Hartrees.
 One-electron integrals computed using PRISM.
 NBasis=   189 RedAO= T EigKep=  1.10D-03  NBF=   189
 NBsUse=   189 1.00D-06 EigRej= -1.00D+00 NBFU=   189
 ExpMin= 1.47D-01 ExpMax= 6.10D+03 ExpMxC= 6.10D+03 IAcc=3 IRadAn=         5 AccDes= 0.00D+00
 Harris functional with IExCor= 4639 and IRadAn=       5 diagonalized for initial guess.
 HarFok:  IExCor= 4639 AccDes= 0.00D+00 IRadAn=         5 IDoV= 1 UseB2=F ITyADJ=14
 ICtDFT=  3500011 ScaDFX=  1.000000  1.000000  1.000000  1.000000
 FoFCou: FMM=F IPFlag=           0 FMFlag=      100000 FMFlg1=           0
         NFxFlg=           0 DoJE=T BraDBF=F KetDBF=T FulRan=T
         wScrn=  0.000000 ICntrl=       500 IOpCl=  0 I1Cent=   200000004 NGrid=           0
         NMat0=    1 NMatS0=      1 NMatT0=    0 NMatD0=    1 NMtDS0=    0 NMtDT0=    0
 Petite list used in FoFCou.
 Requested convergence on RMS density matrix=1.00D-08 within 128 cycles.
 Requested convergence on MAX density matrix=1.00D-06.
 Requested convergence on             energy=1.00D-06.
 No special actions if energy rises.
 Integral accuracy reduced to 1.0D-05 until final iterations.
 Initial convergence to 1.0D-05 achieved.  Increase integral accuracy.
 SCF Done:  E(RwB97XD) =  -3173.84006237     A.U. after   15 cycles
            NFock= 15  Conv=0.56D-08     -V/T= 2.0029
 DoSCS=F DFT=T ScalE2(SS,OS)=  1.000000  1.000000
 Range of M.O.s used for correlation:     1   189
 NBasis=   189 NAE=    68 NBE=    68 NFC=     0 NFV=     0
 NROrb=    189 NOA=    68 NOB=    68 NVA=   121 NVB=   121
          Differentiating once with respect to magnetic field using GIAOs.
          Electric field/nuclear overlap derivatives assumed to be zero.
 FoFCou: FMM=F IPFlag=           0 FMFlag=      100000 FMFlg1=           0
         NFxFlg=           0 DoJE=F BraDBF=F KetDBF=T FulRan=T
         wScrn=  0.000000 ICntrl=      6100 IOpCl=  0 I1Cent=           7 NGrid=          28
         NMat0=    1 NMatS0=      1 NMatT0=    0 NMatD0=    1 NMtDS0=    0 NMtDT0=    0
 Symmetry not used in FoFCou.
 FoFJK:  IHMeth= 1 ICntrl=    6127 DoSepK=T KAlg= 0 I1Cent=           0 FoldK=F
 IRaf=         1 NMat=       1 IRICut=       1 DoRegI=T DoRafI=F ISym2E= 0 IDoP0=0 IntGTp=1.
          There are     3 degrees of freedom in the 1st order CPHF.  IDoFFX=0 NUNeed=     3.
      3 vectors produced by pass  0 Test12= 2.74D-13 3.33D-08 XBig12= 2.15D+01 6.79D-01.
 AX will form     3 AO Fock derivatives at one time.
      3 vectors produced by pass  1 Test12= 2.74D-13 3.33D-08 XBig12= 1.58D-01 1.41D-01.
      3 vectors produced by pass  2 Test12= 2.74D-13 3.33D-08 XBig12= 3.13D-03 2.49D-02.
      3 vectors produced by pass  3 Test12= 2.74D-13 3.33D-08 XBig12= 4.85D-05 1.57D-03.
      3 vectors produced by pass  4 Test12= 2.74D-13 3.33D-08 XBig12= 5.94D-07 1.47D-04.
      3 vectors produced by pass  5 Test12= 2.74D-13 3.33D-08 XBig12= 6.16D-09 1.61D-05.
      3 vectors produced by pass  6 Test12= 2.74D-13 3.33D-08 XBig12= 6.30D-11 3.61D-06.
      3 vectors produced by pass  7 Test12= 2.74D-13 3.33D-08 XBig12= 1.15D-12 6.14D-07.
      1 vectors produced by pass  8 Test12= 2.74D-13 3.33D-08 XBig12= 1.68D-14 4.84D-08.
 InvSVY:  IOpt=1 It=  1 EMax= 2.66D-15
 Solved reduced A of dimension    25 with     3 vectors.
 Calculating GIAO nuclear magnetic shielding tensors.
 SCF GIAO Magnetic shielding tensor (ppm):
      1  Br   Isotropic =  2204.8935   Anisotropy =  1174.2829
   XX=  2704.6435   YX=   487.4237   ZX=    -4.1267
   XY=   489.0174   YY=  2145.7125   ZY=    11.3185
   XZ=    -7.7390   YZ=    30.1632   ZZ=  1764.3245
   Eigenvalues:  1760.0365  1866.8952  2987.7488
      2  C    Isotropic =    82.4590   Anisotropy =   104.3754
   XX=    27.8447   YX=   -40.5860   ZX=     2.3045
   XY=   -39.6960   YY=    67.9748   ZY=    -5.5497
   XZ=     2.7372   YZ=    -3.9287   ZZ=   151.5576
   Eigenvalues:     3.0324    92.3021   152.0426
      3  C    Isotropic =    83.7723   Anisotropy =   139.4421
   XX=    19.5837   YX=    36.3181   ZX=    12.1164
   XY=    36.2584   YY=    56.7260   ZY=   -13.3536
   XZ=    13.1567   YZ=   -10.2921   ZZ=   175.0072
   Eigenvalues:    -4.2136    78.7967   176.7337
      4  C    Isotropic =    85.8014   Anisotropy =   141.4785
   XX=    79.2467   YX=     1.0477   ZX=     6.5709
   XY=    -4.8008   YY=     0.3405   ZY=   -16.3499
   XZ=    10.8308   YZ=   -16.7414   ZZ=   177.8169
   Eigenvalues:    -1.2031    78.4869   180.1204
      5  C    Isotropic =    81.5266   Anisotropy =   167.5896
   XX=    15.2260   YX=   -26.8949   ZX=     7.9265
   XY=   -22.7952   YY=    39.2191   ZY=   -13.9754
   XZ=     8.6157   YZ=   -24.2935   ZZ=   190.1349
   Eigenvalues:    -0.4220    51.7489   193.2530
      6  C    Isotropic =    77.5194   Anisotropy =   151.8927
   XX=    15.2718   YX=    23.7935   ZX=    10.7256
   XY=    17.3739   YY=    40.8899   ZY=   -15.9224
   XZ=    14.5386   YZ=   -14.8705   ZZ=   176.3965
   Eigenvalues:     1.8600    51.9170   178.7812
      7  C    Isotropic =    83.8894   Anisotropy =   138.9451
   XX=    77.0549   YX=    -2.4882   ZX=     3.7274
   XY=    -2.3239   YY=    -0.2543   ZY=   -19.4286
   XZ=    -6.7595   YZ=   -14.5759   ZZ=   174.8676
   Eigenvalues:    -1.9714    77.1201   176.5195
      8  C    Isotropic =   105.0672   Anisotropy =    43.8818
   XX=    77.2374   YX=     8.0606   ZX=     2.5675
   XY=     1.7331   YY=   107.6924   ZY=     7.7189
   XZ=     5.6658   YZ=    11.4105   ZZ=   130.2719
   Eigenvalues:    76.3378   104.5421   134.3218
      9  C    Isotropic =   171.4595   Anisotropy =    18.0689
   XX=   167.6954   YX=    11.9816   ZX=    -5.5410
   XY=     5.0906   YY=   173.0237   ZY=    -5.8340
   XZ=    -1.8565   YZ=    -4.6967   ZZ=   173.6594
   Eigenvalues:   161.4153   169.4577   183.5054
     10  C    Isotropic =   185.0987   Anisotropy =     8.6063
   XX=   187.6943   YX=    -0.7671   ZX=     0.4554
   XY=    -2.3079   YY=   189.6169   ZY=     3.5475
   XZ=     1.2915   YZ=     2.1598   ZZ=   177.9848
   Eigenvalues:   177.1841   187.2758   190.8362
     11  C    Isotropic =   176.9907   Anisotropy =    14.0831
   XX=   186.3227   YX=    -5.2832   ZX=     1.2633
   XY=     4.0475   YY=   175.0135   ZY=     0.8305
   XZ=    -2.4056   YZ=     1.0079   ZZ=   169.6359
   Eigenvalues:   169.4704   175.1223   186.3794
     12  O    Isotropic =   274.2740   Anisotropy =   110.8460
   XX=   208.8466   YX=   -13.9278   ZX=    38.1055
   XY=     3.2651   YY=   283.1836   ZY=    31.8573
   XZ=    32.8896   YZ=    17.3348   ZZ=   330.7919
   Eigenvalues:   197.6384   277.0123   348.1714
     13  C    Isotropic =   144.6517   Anisotropy =    62.7171
   XX=   118.8648   YX=   -25.0491   ZX=     2.7408
   XY=   -19.0290   YY=   167.2009   ZY=   -20.5290
   XZ=     8.9264   YZ=   -18.5516   ZZ=   147.8896
   Eigenvalues:   110.2410   137.2511   186.4631
     14  C    Isotropic =   145.5711   Anisotropy =    59.5532
   XX=   113.9049   YX=     0.9307   ZX=    -7.0620
   XY=    -0.1416   YY=   185.0823   ZY=     5.6511
   XZ=     2.8932   YZ=     0.3605   ZZ=   137.7262
   Eigenvalues:   113.7179   137.7222   185.2733
     15  O    Isotropic =   267.7531   Anisotropy =   107.9984
   XX=   198.8335   YX=   -11.0529   ZX=    36.8878
   XY=   -13.7459   YY=   278.1466   ZY=   -11.6855
   XZ=    34.9654   YZ=   -14.3046   ZZ=   326.2793
   Eigenvalues:   188.5439   274.9634   339.7521
     16  H    Isotropic =    25.8546   Anisotropy =     6.6550
   XX=    26.4730   YX=     1.4234   ZX=    -0.0988
   XY=     0.9614   YY=    29.8482   ZY=     0.7176
   XZ=    -0.0682   YZ=     0.9338   ZZ=    21.2425
   Eigenvalues:    21.1565    26.1159    30.2913
     17  H    Isotropic =    26.0437   Anisotropy =     5.4173
   XX=    29.5187   YX=    -0.9235   ZX=    -0.4441
   XY=    -0.2219   YY=    26.5788   ZY=     0.3631
   XZ=    -0.3571   YZ=     0.4404   ZZ=    22.0335
   Eigenvalues:    21.9819    26.4939    29.6552
     18  H    Isotropic =    25.5645   Anisotropy =    14.4252
   XX=    34.9035   YX=    -1.9346   ZX=    -0.4535
   XY=    -1.7609   YY=    22.7424   ZY=     0.3870
   XZ=     0.1914   YZ=     0.9849   ZZ=    19.0477
   Eigenvalues:    18.9219    22.5904    35.1813
     19  H    Isotropic =    31.1568   Anisotropy =     7.3978
   XX=    35.2074   YX=    -1.3170   ZX=    -1.7121
   XY=    -1.4453   YY=    32.2891   ZY=     0.9535
   XZ=    -1.6188   YZ=     0.5766   ZZ=    25.9738
   Eigenvalues:    25.6412    31.7405    36.0887
     20  H    Isotropic =    31.3700   Anisotropy =     7.5645
   XX=    28.3912   YX=     1.1920   ZX=    -2.6421
   XY=     1.4422   YY=    30.7785   ZY=    -1.0751
   XZ=    -3.2188   YZ=    -0.9150   ZZ=    34.9403
   Eigenvalues:    27.0531    30.6439    36.4130
     21  H    Isotropic =    31.3796   Anisotropy =    12.4648
   XX=    36.8422   YX=     4.6460   ZX=    -0.0257
   XY=     4.6166   YY=    32.1224   ZY=     0.6738
   XZ=    -0.0020   YZ=     0.7777   ZZ=    25.1743
   Eigenvalues:    25.0720    29.3774    39.6895
     22  H    Isotropic =    30.9764   Anisotropy =     7.0294
   XX=    28.2519   YX=     0.4710   ZX=     2.7496
   XY=     0.2601   YY=    30.8256   ZY=     0.1080
   XZ=     4.5138   YZ=     0.3090   ZZ=    33.8518
   Eigenvalues:    26.4533    30.8133    35.6627
     23  H    Isotropic =    30.4328   Anisotropy =    10.2142
   XX=    30.0128   YX=    -0.8310   ZX=    -0.1902
   XY=    -1.1653   YY=    34.5969   ZY=     4.5602
   XZ=     0.5818   YZ=     5.7798   ZZ=    26.6887
   Eigenvalues:    24.0693    29.9869    37.2423
     24  H    Isotropic =    30.4218   Anisotropy =     9.3179
   XX=    29.5316   YX=     0.5356   ZX=     0.1168
   XY=     0.7718   YY=    31.8803   ZY=    -4.7039
   XZ=    -2.5406   YZ=    -6.1818   ZZ=    29.8535
   Eigenvalues:    25.2663    29.3653    36.6337
     25  H    Isotropic =    28.8891   Anisotropy =     9.8546
   XX=    25.9929   YX=    -0.0733   ZX=     1.0435
   XY=     1.0667   YY=    35.0028   ZY=     2.7404
   XZ=     0.4146   YZ=     1.2739   ZZ=    25.6715
   Eigenvalues:    24.9006    26.3078    35.4588
     26  H    Isotropic =    28.9119   Anisotropy =    11.1832
   XX=    32.0263   YX=    -4.6219   ZX=    -2.6633
   XY=    -5.7844   YY=    29.4051   ZY=     0.2075
   XZ=    -1.5297   YZ=     0.1677   ZZ=    25.3042
   Eigenvalues:    24.0461    26.3222    36.3673
     27  H    Isotropic =    29.1886   Anisotropy =    10.5911
   XX=    27.4096   YX=    -2.1768   ZX=     3.2334
   XY=    -3.3954   YY=    31.5102   ZY=    -4.3696
   XZ=     3.1065   YZ=    -3.6256   ZZ=    28.6461
   Eigenvalues:    24.7493    26.5672    36.2494
     28  H    Isotropic =    28.9294   Anisotropy =    10.0608
   XX=    29.6816   YX=     2.5548   ZX=    -3.4681
   XY=     3.8296   YY=    31.1571   ZY=    -2.7200
   XZ=    -2.4611   YZ=    -3.6372   ZZ=    25.9494
   Eigenvalues:    23.9800    27.1715    35.6366
 End of Minotr F.D. properties file   721 does not exist.
 End of Minotr F.D. properties file   722 does not exist.
 End of Minotr F.D. properties file   788 does not exist.

 **********************************************************************

            Population analysis using the SCF Density.

 **********************************************************************

 Orbital symmetries:
       Occupied  (A) (A) (A) (A) (A) (A) (A) (A) (A) (A) (A) (A)
                 (A) (A) (A) (A) (A) (A) (A) (A) (A) (A) (A) (A)
                 (A) (A) (A) (A) (A) (A) (A) (A) (A) (A) (A) (A)
                 (A) (A) (A) (A) (A) (A) (A) (A) (A) (A) (A) (A)
                 (A) (A) (A) (A) (A) (A) (A) (A) (A) (A) (A) (A)
                 (A) (A) (A) (A) (A) (A) (A) (A)
       Virtual   (A) (A) (A) (A) (A) (A) (A) (A) (A) (A) (A) (A)
                 (A) (A) (A) (A) (A) (A) (A) (A) (A) (A) (A) (A)
                 (A) (A) (A) (A) (A) (A) (A) (A) (A) (A) (A) (A)
                 (A) (A) (A) (A) (A) (A) (A) (A) (A) (A) (A) (A)
                 (A) (A) (A) (A) (A) (A) (A) (A) (A) (A) (A) (A)
                 (A) (A) (A) (A) (A) (A) (A) (A) (A) (A) (A) (A)
                 (A) (A) (A) (A) (A) (A) (A) (A) (A) (A) (A) (A)
                 (A) (A) (A) (A) (A) (A) (A) (A) (A) (A) (A) (A)
                 (A) (A) (A) (A) (A) (A) (A) (A) (A) (A) (A) (A)
                 (A) (A) (A) (A) (A) (A) (A) (A) (A) (A) (A) (A)
                 (A)
 The electronic state is 1-A.
 Alpha  occ. eigenvalues -- -480.13971 -62.57359 -56.16256 -56.15833 -56.15818
 Alpha  occ. eigenvalues --  -19.16386 -19.15670 -10.34129 -10.28691 -10.28615
 Alpha  occ. eigenvalues --  -10.28464 -10.24955 -10.24507 -10.24317 -10.24109
 Alpha  occ. eigenvalues --  -10.23861 -10.23542 -10.22803 -10.22569  -8.88197
 Alpha  occ. eigenvalues --   -6.66670  -6.65254  -6.65245  -2.76979  -2.76488
 Alpha  occ. eigenvalues --   -2.76467  -2.75305  -2.75300  -1.20243  -1.10222
 Alpha  occ. eigenvalues --   -0.99585  -0.94408  -0.90059  -0.88565  -0.85513
 Alpha  occ. eigenvalues --   -0.83206  -0.79491  -0.73689  -0.73075  -0.71371
 Alpha  occ. eigenvalues --   -0.69852  -0.64401  -0.61578  -0.60041  -0.58236
 Alpha  occ. eigenvalues --   -0.57824  -0.56883  -0.53564  -0.53176  -0.52524
 Alpha  occ. eigenvalues --   -0.50949  -0.49967  -0.49607  -0.49207  -0.46560
 Alpha  occ. eigenvalues --   -0.46302  -0.45187  -0.43431  -0.42993  -0.41297
 Alpha  occ. eigenvalues --   -0.41082  -0.40520  -0.38040  -0.35700  -0.35184
 Alpha  occ. eigenvalues --   -0.32844  -0.32164  -0.30435
 Alpha virt. eigenvalues --    0.06149   0.06563   0.09596   0.16667   0.17902
 Alpha virt. eigenvalues --    0.19900   0.20456   0.20766   0.22508   0.22752
 Alpha virt. eigenvalues --    0.23154   0.23974   0.25276   0.25966   0.26490
 Alpha virt. eigenvalues --    0.27035   0.28156   0.29592   0.30027   0.31732
 Alpha virt. eigenvalues --    0.32811   0.33098   0.35847   0.37716   0.37948
 Alpha virt. eigenvalues --    0.38808   0.41118   0.41612   0.43541   0.45415
 Alpha virt. eigenvalues --    0.47889   0.54955   0.57949   0.59471   0.60390
 Alpha virt. eigenvalues --    0.61137   0.64986   0.65134   0.65986   0.67921
 Alpha virt. eigenvalues --    0.68708   0.69441   0.70119   0.71408   0.72575
 Alpha virt. eigenvalues --    0.74123   0.76387   0.76754   0.77920   0.79611
 Alpha virt. eigenvalues --    0.82735   0.84061   0.84932   0.85724   0.87069
 Alpha virt. eigenvalues --    0.87644   0.88948   0.89369   0.90474   0.91896
 Alpha virt. eigenvalues --    0.93258   0.95555   0.96426   0.96656   0.97351
 Alpha virt. eigenvalues --    0.97621   0.99228   1.00437   1.00727   1.01211
 Alpha virt. eigenvalues --    1.01625   1.02377   1.02890   1.03374   1.04339
 Alpha virt. eigenvalues --    1.04676   1.05324   1.07264   1.07608   1.09289
 Alpha virt. eigenvalues --    1.09520   1.11267   1.11294   1.12872   1.16120
 Alpha virt. eigenvalues --    1.17250   1.19171   1.20190   1.23975   1.25297
 Alpha virt. eigenvalues --    1.34687   1.37321   1.40148   1.42949   1.44676
 Alpha virt. eigenvalues --    1.49637   1.54017   1.58099   1.60442   1.62874
 Alpha virt. eigenvalues --    1.64890   1.69691   1.73521   1.77326   1.82111
 Alpha virt. eigenvalues --    1.83617   1.88258   1.90834   1.94187   1.97053
 Alpha virt. eigenvalues --    2.03414   2.08030   2.12180   2.13990   2.15793
 Alpha virt. eigenvalues --    2.26475   2.41323   2.48345   2.50601   2.65344
 Alpha virt. eigenvalues --    2.73009
          Condensed to atoms (all electrons):
               1          2          3          4          5          6
     1  Br  34.943623   0.210014  -0.038163   0.001981   0.000313   0.002378
     2  C    0.210014   5.084860   0.456156  -0.027978  -0.059502  -0.007954
     3  C   -0.038163   0.456156   4.955397   0.496228  -0.015713  -0.046379
     4  C    0.001981  -0.027978   0.496228   4.908252   0.472531  -0.009266
     5  C    0.000313  -0.059502  -0.015713   0.472531   5.143690   0.405184
     6  C    0.002378  -0.007954  -0.046379  -0.009266   0.405184   5.277238
     7  C   -0.040838   0.449522  -0.033500  -0.032951   0.002406   0.422434
     8  C   -0.000053   0.001477   0.000461   0.000159   0.002773   0.263385
     9  C    0.000000   0.000149  -0.000055   0.000170  -0.007352  -0.116242
    10  C    0.000000  -0.000079  -0.000029   0.002144  -0.066469   0.000971
    11  C    0.000001   0.000527   0.001007  -0.023013   0.267741  -0.008203
    12  O   -0.000001   0.000787  -0.000016   0.000007   0.000350  -0.053457
    13  C   -0.000000  -0.000047   0.000001  -0.000000  -0.000053   0.009996
    14  C    0.000001   0.000047  -0.000002   0.000001  -0.000033  -0.000867
    15  O    0.000000   0.000054  -0.000015   0.000030  -0.003628  -0.037559
    16  H    0.000590  -0.021517   0.394643  -0.017327   0.002859  -0.000040
    17  H   -0.000062   0.003304  -0.022869   0.401720  -0.026412   0.003276
    18  H    0.000810  -0.011823   0.002260   0.000138   0.002258  -0.021968
    19  H   -0.000000  -0.000002   0.000001  -0.000001  -0.000287   0.006762
    20  H   -0.000000  -0.000008   0.000006  -0.000176  -0.000143   0.003109
    21  H    0.000000   0.000001  -0.000001  -0.000002   0.005823  -0.000651
    22  H   -0.000000  -0.000003   0.000005  -0.000199  -0.000072   0.002046
    23  H   -0.000000   0.000001   0.000194  -0.005528  -0.032434   0.003021
    24  H   -0.000000   0.000003   0.000033  -0.005659  -0.031047  -0.003036
    25  H    0.000000  -0.000013   0.000000  -0.000000   0.000005   0.000307
    26  H   -0.000000   0.000002  -0.000000  -0.000000   0.000010  -0.000779
    27  H    0.000000   0.000001  -0.000000   0.000000  -0.000006  -0.000505
    28  H   -0.000011   0.000023   0.000003  -0.000004   0.000142   0.001078
               7          8          9         10         11         12
     1  Br  -0.040838  -0.000053   0.000000   0.000000   0.000001  -0.000001
     2  C    0.449522   0.001477   0.000149  -0.000079   0.000527   0.000787
     3  C   -0.033500   0.000461  -0.000055  -0.000029   0.001007  -0.000016
     4  C   -0.032951   0.000159   0.000170   0.002144  -0.023013   0.000007
     5  C    0.002406   0.002773  -0.007352  -0.066469   0.267741   0.000350
     6  C    0.422434   0.263385  -0.116242   0.000971  -0.008203  -0.053457
     7  C    4.957067   0.001586   0.002422   0.000096   0.000307  -0.004259
     8  C    0.001586   4.528258   0.366377  -0.081897  -0.010127   0.222893
     9  C    0.002422   0.366377   5.403385   0.241897  -0.093944  -0.045132
    10  C    0.000096  -0.081897   0.241897   5.344424   0.307961   0.003031
    11  C    0.000307  -0.010127  -0.093944   0.307961   5.192425  -0.000056
    12  O   -0.004259   0.222893  -0.045132   0.003031  -0.000056   8.485481
    13  C    0.000286  -0.072144  -0.004248  -0.000016   0.000003   0.169786
    14  C    0.000174  -0.060485   0.007978  -0.000361  -0.000000  -0.027776
    15  O   -0.004003   0.196827  -0.065098  -0.000174  -0.000733  -0.039089
    16  H    0.002722   0.000004   0.000000   0.000001  -0.000032   0.000000
    17  H   -0.000010  -0.000049   0.000021   0.000128  -0.005186   0.000000
    18  H    0.377563  -0.004839   0.000677  -0.000059  -0.000057   0.015977
    19  H   -0.000031  -0.026409   0.372377  -0.030466   0.006601   0.001021
    20  H   -0.000141  -0.033491   0.365041  -0.030552  -0.004131   0.002946
    21  H   -0.000003   0.006676  -0.031199   0.390746  -0.035828  -0.000037
    22  H   -0.000190  -0.009317  -0.039685   0.382548  -0.033688   0.000120
    23  H   -0.000052  -0.000341   0.006670  -0.034110   0.394137   0.000000
    24  H   -0.000015   0.000361  -0.004137  -0.031315   0.388479   0.000004
    25  H    0.000081   0.006153  -0.000431   0.000009   0.000000  -0.023897
    26  H    0.000009   0.000366   0.003265  -0.000254   0.000001  -0.028587
    27  H    0.000031   0.006834   0.000493   0.000007  -0.000001   0.002134
    28  H    0.000950  -0.000792  -0.000491  -0.000027   0.000002  -0.000756
              13         14         15         16         17         18
     1  Br  -0.000000   0.000001   0.000000   0.000590  -0.000062   0.000810
     2  C   -0.000047   0.000047   0.000054  -0.021517   0.003304  -0.011823
     3  C    0.000001  -0.000002  -0.000015   0.394643  -0.022869   0.002260
     4  C   -0.000000   0.000001   0.000030  -0.017327   0.401720   0.000138
     5  C   -0.000053  -0.000033  -0.003628   0.002859  -0.026412   0.002258
     6  C    0.009996  -0.000867  -0.037559  -0.000040   0.003276  -0.021968
     7  C    0.000286   0.000174  -0.004003   0.002722  -0.000010   0.377563
     8  C   -0.072144  -0.060485   0.196827   0.000004  -0.000049  -0.004839
     9  C   -0.004248   0.007978  -0.065098   0.000000   0.000021   0.000677
    10  C   -0.000016  -0.000361  -0.000174   0.000001   0.000128  -0.000059
    11  C    0.000003  -0.000000  -0.000733  -0.000032  -0.005186  -0.000057
    12  O    0.169786  -0.027776  -0.039089   0.000000   0.000000   0.015977
    13  C    4.940632   0.333900  -0.024964  -0.000000  -0.000000  -0.001819
    14  C    0.333900   4.914879   0.168816   0.000000  -0.000000   0.000441
    15  O   -0.024964   0.168816   8.516906   0.000000   0.000001  -0.000338
    16  H   -0.000000   0.000000   0.000000   0.433746  -0.004303  -0.000061
    17  H   -0.000000  -0.000000   0.000001  -0.004303   0.455887   0.000007
    18  H   -0.001819   0.000441  -0.000338  -0.000061   0.000007   0.436326
    19  H    0.001458  -0.000274   0.003338   0.000000  -0.000000  -0.000017
    20  H    0.000397  -0.000213   0.003330  -0.000000  -0.000001  -0.000013
    21  H   -0.000001   0.000007  -0.000071  -0.000000  -0.000004   0.000000
    22  H    0.000075  -0.000178   0.013290   0.000000  -0.000003   0.000002
    23  H    0.000000  -0.000001   0.000021  -0.000006   0.003414   0.000001
    24  H   -0.000001   0.000001  -0.000010   0.000001   0.000705   0.000003
    25  H    0.384074  -0.029001   0.002091  -0.000000   0.000000  -0.000693
    26  H    0.373796  -0.043704  -0.001062   0.000000   0.000000   0.000220
    27  H   -0.029452   0.381792  -0.025511  -0.000000   0.000000   0.000045
    28  H   -0.042470   0.377687  -0.028542  -0.000000  -0.000000   0.001776
              19         20         21         22         23         24
     1  Br  -0.000000  -0.000000   0.000000  -0.000000  -0.000000  -0.000000
     2  C   -0.000002  -0.000008   0.000001  -0.000003   0.000001   0.000003
     3  C    0.000001   0.000006  -0.000001   0.000005   0.000194   0.000033
     4  C   -0.000001  -0.000176  -0.000002  -0.000199  -0.005528  -0.005659
     5  C   -0.000287  -0.000143   0.005823  -0.000072  -0.032434  -0.031047
     6  C    0.006762   0.003109  -0.000651   0.002046   0.003021  -0.003036
     7  C   -0.000031  -0.000141  -0.000003  -0.000190  -0.000052  -0.000015
     8  C   -0.026409  -0.033491   0.006676  -0.009317  -0.000341   0.000361
     9  C    0.372377   0.365041  -0.031199  -0.039685   0.006670  -0.004137
    10  C   -0.030466  -0.030552   0.390746   0.382548  -0.034110  -0.031315
    11  C    0.006601  -0.004131  -0.035828  -0.033688   0.394137   0.388479
    12  O    0.001021   0.002946  -0.000037   0.000120   0.000000   0.000004
    13  C    0.001458   0.000397  -0.000001   0.000075   0.000000  -0.000001
    14  C   -0.000274  -0.000213   0.000007  -0.000178  -0.000001   0.000001
    15  O    0.003338   0.003330  -0.000071   0.013290   0.000021  -0.000010
    16  H    0.000000  -0.000000  -0.000000   0.000000  -0.000006   0.000001
    17  H   -0.000000  -0.000001  -0.000004  -0.000003   0.003414   0.000705
    18  H   -0.000017  -0.000013   0.000000   0.000002   0.000001   0.000003
    19  H    0.500800  -0.019674  -0.003208  -0.000903  -0.000160  -0.000192
    20  H   -0.019674   0.508824  -0.002751   0.004650  -0.000056   0.004871
    21  H   -0.003208  -0.002751   0.503493  -0.023380  -0.000944  -0.003851
    22  H   -0.000903   0.004650  -0.023380   0.492012  -0.003993   0.004118
    23  H   -0.000160  -0.000056  -0.000944  -0.003993   0.495222  -0.025104
    24  H   -0.000192   0.004871  -0.003851   0.004118  -0.025104   0.498422
    25  H    0.000051   0.000006  -0.000000  -0.000001  -0.000000   0.000000
    26  H    0.000064  -0.000054   0.000006   0.000015  -0.000000   0.000000
    27  H   -0.000370  -0.000016   0.000000  -0.000087   0.000000  -0.000000
    28  H    0.000074   0.000025  -0.000000   0.000049  -0.000000  -0.000000
              25         26         27         28
     1  Br   0.000000  -0.000000   0.000000  -0.000011
     2  C   -0.000013   0.000002   0.000001   0.000023
     3  C    0.000000  -0.000000  -0.000000   0.000003
     4  C   -0.000000  -0.000000   0.000000  -0.000004
     5  C    0.000005   0.000010  -0.000006   0.000142
     6  C    0.000307  -0.000779  -0.000505   0.001078
     7  C    0.000081   0.000009   0.000031   0.000950
     8  C    0.006153   0.000366   0.006834  -0.000792
     9  C   -0.000431   0.003265   0.000493  -0.000491
    10  C    0.000009  -0.000254   0.000007  -0.000027
    11  C    0.000000   0.000001  -0.000001   0.000002
    12  O   -0.023897  -0.028587   0.002134  -0.000756
    13  C    0.384074   0.373796  -0.029452  -0.042470
    14  C   -0.029001  -0.043704   0.381792   0.377687
    15  O    0.002091  -0.001062  -0.025511  -0.028542
    16  H   -0.000000   0.000000  -0.000000  -0.000000
    17  H    0.000000   0.000000   0.000000  -0.000000
    18  H   -0.000693   0.000220   0.000045   0.001776
    19  H    0.000051   0.000064  -0.000370   0.000074
    20  H    0.000006  -0.000054  -0.000016   0.000025
    21  H   -0.000000   0.000006   0.000000  -0.000000
    22  H   -0.000001   0.000015  -0.000087   0.000049
    23  H   -0.000000  -0.000000   0.000000  -0.000000
    24  H    0.000000   0.000000  -0.000000  -0.000000
    25  H    0.499659  -0.035246   0.001454  -0.002088
    26  H   -0.035246   0.551277  -0.002630   0.004004
    27  H    0.001454  -0.002630   0.511451  -0.037580
    28  H   -0.002088   0.004004  -0.037580   0.545305
 Mulliken charges:
               1
     1  Br  -0.080585
     2  C   -0.078003
     3  C   -0.149654
     4  C   -0.161259
     5  C   -0.062932
     6  C   -0.094279
     7  C   -0.101660
     8  C    0.695355
     9  C   -0.362910
    10  C   -0.398155
    11  C   -0.344193
    12  O   -0.681477
    13  C   -0.039190
    14  C   -0.022830
    15  O   -0.673908
    16  H    0.208721
    17  H    0.190438
    18  H    0.203182
    19  H    0.189448
    20  H    0.198213
    21  H    0.195179
    22  H    0.212770
    23  H    0.200048
    24  H    0.207363
    25  H    0.197478
    26  H    0.179279
    27  H    0.191918
    28  H    0.181643
 Sum of Mulliken charges =  -0.00000
 Mulliken charges with hydrogens summed into heavy atoms:
               1
     1  Br  -0.080585
     2  C   -0.078003
     3  C    0.059067
     4  C    0.029179
     5  C   -0.062932
     6  C   -0.094279
     7  C    0.101521
     8  C    0.695355
     9  C    0.024751
    10  C    0.009794
    11  C    0.063218
    12  O   -0.681477
    13  C    0.337567
    14  C    0.350732
    15  O   -0.673908
 Electronic spatial extent (au):  <R**2>=           4487.3476
 Charge=             -0.0000 electrons
 Dipole moment (field-independent basis, Debye):
    X=              2.2849    Y=             -0.2714    Z=              0.2107  Tot=              2.3106
 Quadrupole moment (field-independent basis, Debye-Ang):
   XX=            -96.9532   YY=            -85.1641   ZZ=           -105.1303
   XY=             -3.9475   XZ=             -0.8486   YZ=             -1.5831
 Traceless Quadrupole moment (field-independent basis, Debye-Ang):
   XX=             -1.2040   YY=             10.5851   ZZ=             -9.3811
   XY=             -3.9475   XZ=             -0.8486   YZ=             -1.5831
 Octapole moment (field-independent basis, Debye-Ang**2):
  XXX=            -74.5204  YYY=            -42.5725  ZZZ=              0.9112  XYY=            -14.9250
  XXY=            -17.0848  XXZ=             -1.5280  XZZ=            -30.8677  YZZ=            -11.5876
  YYZ=              6.1093  XYZ=             -5.7489
 Hexadecapole moment (field-independent basis, Debye-Ang**3):
 XXXX=          -3231.9199 YYYY=          -1506.3394 ZZZZ=           -285.4221 XXXY=             20.4601
 XXXZ=             -6.0597 YYYX=            -22.7115 YYYZ=              6.1562 ZZZX=              7.5386
 ZZZY=             -7.0961 XXYY=           -752.5689 XXZZ=           -618.8177 YYZZ=           -322.9970
 XXYZ=             -7.7901 YYXZ=              7.9367 ZZXY=             17.7892
 N-N= 1.336100655753D+03 E-N=-1.021849479808D+04  KE= 3.164747889109D+03
 Unable to Open any file for archive entry.
 1\1\GINC-DYNAMO\SP\RwB97XD\MIDIx\C12H13Br1O2\RPATON\26-Sep-2024\0\\# w
 b97xd midix nmr=giao\\energy: -44.567785349378 gnorm: 0.000473625240 x
 tb: 6.7.0 (08769fc)\\0,1\Br,0,-3.39367,-0.60336,-0.04621\C,0,-1.76131,
 0.37734,-0.02985\C,0,-1.79339,1.75393,0.10409\C,0,-0.59771,2.44498,0.1
 1267\C,0,0.6248,1.79091,-0.0038\C,0,0.63224,0.40349,-0.13462\C,0,-0.56
 466,-0.30035,-0.14609\C,0,1.92928,-0.38605,-0.1951\C,0,3.10324,0.50838
 ,-0.61011\C,0,3.11929,1.74705,0.2733\C,0,1.89151,2.59764,-0.02493\O,0,
 1.77654,-1.48125,-1.07777\C,0,2.32221,-2.62242,-0.45567\C,0,2.11245,-2
 .33071,1.03161\O,0,2.20545,-0.92663,1.09922\H,0,-2.73428,2.27386,0.199
 18\H,0,-0.61116,3.52057,0.21283\H,0,-0.55261,-1.37277,-0.26252\H,0,4.0
 2775,-0.06036,-0.50203\H,0,2.97486,0.77618,-1.66024\H,0,4.02729,2.3261
 3,0.09935\H,0,3.10551,1.42691,1.31636\H,0,1.81314,3.41916,0.69027\H,0,
 1.99339,3.04166,-1.02137\H,0,1.78497,-3.49926,-0.81642\H,0,3.39066,-2.
 71702,-0.69269\H,0,2.88049,-2.76046,1.67596\H,0,1.12062,-2.66291,1.367
 19\\Version=ES64L-G16RevC.01\State=1-A\HF=-3173.8400624\RMSD=5.627e-09
 \Dipole=0.8998431,-0.0937752,0.0886992\Quadrupole=-0.8006944,7.7835787
 ,-6.9828843,-3.0526233,-0.5746615,-1.2021239\PG=C01 [X(C12H13Br1O2)]\\
 @
 The archive entry for this job was punched.


 ADAM SMITH SAID, "THE REAL PRICE OF ANYTHING IS THE TOIL AND TROUBLE
 OF ACQUIRING IT."  BUT IN ALL UNDERTAKINGS WITH NATURE WE SHOULD FIRST
 READ CAREFULLY THE SMALL PRINT IN THE CONTRACT. THIS MIGHT DISCLOSE
 THAT THE REAL PRICE IS TO BE PAID BY THOSE WHO INHERIT THE DEPLETION
 AND DESPOILATION THAT FOLLOWS.
                               -- E. R. HARRISON IN "COSMOLOGY" (1980)
 Job cpu time:       0 days  0 hours  9 minutes 27.4 seconds.
 Elapsed time:       0 days  0 hours  0 minutes 27.0 seconds.
 File lengths (MBytes):  RWF=     27 Int=      0 D2E=      0 Chk=      4 Scr=      1
 Normal termination of Gaussian 16 at Thu Sep 26 13:19:09 2024.
