 Entering Gaussian System, Link 0=/usr/local/Gaussian/G16C/g16/g16
 Input=nmr/arbr43_xtbopt_nmr.com
 Output=nmr/arbr43_xtbopt_nmr.log
 Initial command:
 /usr/local/Gaussian/G16C/g16/l1.exe "/home/rpaton/opt/xtb/Gau-1325294.inp" -scrdir="/home/rpaton/opt/xtb/"
 Entering Link 1 = /usr/local/Gaussian/G16C/g16/l1.exe PID=   1325295.
  
 Copyright (c) 1988-2019, Gaussian, Inc.  All Rights Reserved.
  
 This is part of the Gaussian(R) 16 program.  It is based on
 the Gaussian(R) 09 system (copyright 2009, Gaussian, Inc.),
 the Gaussian(R) 03 system (copyright 2003, Gaussian, Inc.),
 the Gaussian(R) 98 system (copyright 1998, Gaussian, Inc.),
 the Gaussian(R) 94 system (copyright 1995, Gaussian, Inc.),
 the Gaussian 92(TM) system (copyright 1992, Gaussian, Inc.),
 the Gaussian 90(TM) system (copyright 1990, Gaussian, Inc.),
 the Gaussian 88(TM) system (copyright 1988, Gaussian, Inc.),
 the Gaussian 86(TM) system (copyright 1986, Carnegie Mellon
 University), and the Gaussian 82(TM) system (copyright 1983,
 Carnegie Mellon University). Gaussian is a federally registered
 trademark of Gaussian, Inc.
  
 This software contains proprietary and confidential information,
 including trade secrets, belonging to Gaussian, Inc.
  
 This software is provided under written license and may be
 used, copied, transmitted, or stored only in accord with that
 written license.
  
 The following legend is applicable only to US Government
 contracts under FAR:
  
                    RESTRICTED RIGHTS LEGEND
  
 Use, reproduction and disclosure by the US Government is
 subject to restrictions as set forth in subparagraphs (a)
 and (c) of the Commercial Computer Software - Restricted
 Rights clause in FAR 52.227-19.
  
 Gaussian, Inc.
 340 Quinnipiac St., Bldg. 40, Wallingford CT 06492
  
  
 ---------------------------------------------------------------
 Warning -- This program may not be used in any manner that
 competes with the business of Gaussian, Inc. or will provide
 assistance to any competitor of Gaussian, Inc.  The licensee
 of this program is prohibited from giving any competitor of
 Gaussian, Inc. access to this program.  By using this program,
 the user acknowledges that Gaussian, Inc. is engaged in the
 business of creating and licensing software in the field of
 computational chemistry and represents and warrants to the
 licensee that it is not a competitor of Gaussian, Inc. and that
 it will not use this program in any manner prohibited above.
 ---------------------------------------------------------------
  

 Cite this work as:
 Gaussian 16, Revision C.01,
 M. J. Frisch, G. W. Trucks, H. B. Schlegel, G. E. Scuseria, 
 M. A. Robb, J. R. Cheeseman, G. Scalmani, V. Barone, 
 G. A. Petersson, H. Nakatsuji, X. Li, M. Caricato, A. V. Marenich, 
 J. Bloino, B. G. Janesko, R. Gomperts, B. Mennucci, H. P. Hratchian, 
 J. V. Ortiz, A. F. Izmaylov, J. L. Sonnenberg, D. Williams-Young, 
 F. Ding, F. Lipparini, F. Egidi, J. Goings, B. Peng, A. Petrone, 
 T. Henderson, D. Ranasinghe, V. G. Zakrzewski, J. Gao, N. Rega, 
 G. Zheng, W. Liang, M. Hada, M. Ehara, K. Toyota, R. Fukuda, 
 J. Hasegawa, M. Ishida, T. Nakajima, Y. Honda, O. Kitao, H. Nakai, 
 T. Vreven, K. Throssell, J. A. Montgomery, Jr., J. E. Peralta, 
 F. Ogliaro, M. J. Bearpark, J. J. Heyd, E. N. Brothers, K. N. Kudin, 
 V. N. Staroverov, T. A. Keith, R. Kobayashi, J. Normand, 
 K. Raghavachari, A. P. Rendell, J. C. Burant, S. S. Iyengar, 
 J. Tomasi, M. Cossi, J. M. Millam, M. Klene, C. Adamo, R. Cammi, 
 J. W. Ochterski, R. L. Martin, K. Morokuma, O. Farkas, 
 J. B. Foresman, and D. J. Fox, Gaussian, Inc., Wallingford CT, 2019.
 
 ******************************************
 Gaussian 16:  ES64L-G16RevC.01  3-Jul-2019
                26-Sep-2024 
 ******************************************
 %nprocshared=24
 Will use up to   24 processors via shared memory.
 -----------------------
 # wb97xd midix nmr=giao
 -----------------------
 1/38=1,172=1/1;
 2/12=2,17=6,18=5,40=1/2;
 3/5=20,11=2,25=1,30=1,74=-58/1,2,3,8;
 4//1;
 5/5=2,38=5/2;
 8/6=1,10=90,11=11/1;
 10/13=100,45=16/2;
 6/7=2,8=2,9=2,10=2,28=1/1;
 99/9=1/99;
 -------------------------------------------------------------------
 energy: -32.024707278763 gnorm: 0.000396726366 xtb: 6.7.0 (08769fc)
 -------------------------------------------------------------------
 Symbolic Z-matrix:
 Charge =  0 Multiplicity = 1
 Br                    2.99342  -0.25958  -0.10009 
 C                     1.14493   0.19043  -0.01904 
 C                     0.77157   1.52267   0.02996 
 C                    -0.57582   1.82671   0.07294 
 C                    -1.54811   0.83663   0.08075 
 C                    -1.14665  -0.50201   0.05256 
 C                     0.20891  -0.82187  -0.00776 
 O                    -2.00854  -1.55071   0.06264 
 C                    -3.3694   -1.25156   0.31039 
 C                    -3.82063   0.00148  -0.42881 
 C                    -3.01189   1.18433   0.09478 
 H                     1.51618   2.30252   0.02672 
 H                    -0.88513   2.86131   0.09737 
 H                     0.49778  -1.85993  -0.04322 
 H                    -3.92136  -2.13547  -0.01777 
 H                    -3.51964  -1.12209   1.39139 
 H                    -3.63557  -0.13034  -1.49682 
 H                    -4.88826   0.15648  -0.27645 
 H                    -3.32259   1.42203   1.11738 
 H                    -3.1866    2.07262  -0.51535 
 
                          Input orientation:                          
 ---------------------------------------------------------------------
 Center     Atomic      Atomic             Coordinates (Angstroms)
 Number     Number       Type             X           Y           Z
 ---------------------------------------------------------------------
      1         35           0        2.993420   -0.259580   -0.100090
      2          6           0        1.144930    0.190430   -0.019040
      3          6           0        0.771570    1.522670    0.029960
      4          6           0       -0.575820    1.826710    0.072940
      5          6           0       -1.548110    0.836630    0.080750
      6          6           0       -1.146650   -0.502010    0.052560
      7          6           0        0.208910   -0.821870   -0.007760
      8          8           0       -2.008540   -1.550710    0.062640
      9          6           0       -3.369400   -1.251560    0.310390
     10          6           0       -3.820630    0.001480   -0.428810
     11          6           0       -3.011890    1.184330    0.094780
     12          1           0        1.516180    2.302520    0.026720
     13          1           0       -0.885130    2.861310    0.097370
     14          1           0        0.497780   -1.859930   -0.043220
     15          1           0       -3.921360   -2.135470   -0.017770
     16          1           0       -3.519640   -1.122090    1.391390
     17          1           0       -3.635570   -0.130340   -1.496820
     18          1           0       -4.888260    0.156480   -0.276450
     19          1           0       -3.322590    1.422030    1.117380
     20          1           0       -3.186600    2.072620   -0.515350
 ---------------------------------------------------------------------
                    Distance matrix (angstroms):
                    1          2          3          4          5
     1  Br   0.000000
     2  C    1.904204   0.000000
     3  C    2.851306   1.384436   0.000000
     4  C    4.137876   2.376311   1.381936   0.000000
     5  C    4.675454   2.771281   2.419534   1.387684   0.000000
     6  C    4.149970   2.394982   2.789159   2.397749   1.397828
     7  C    2.842216   1.378772   2.411406   2.763565   2.417763
     8  O    5.168472   3.603139   4.144363   3.668754   2.431402
     9  C    6.452751   4.750477   4.992257   4.163678   2.780354
    10  C    6.826968   4.986020   4.859299   3.756595   2.474161
    11  C    6.179531   4.275505   3.799111   2.519438   1.504574
    12  H    2.960182   2.144958   1.078249   2.145925   3.397297
    13  H    4.982178   3.356828   2.130999   1.080123   2.130528
    14  H    2.965227   2.150201   3.394451   3.841539   3.387104
    15  H    7.165188   5.574684   5.950450   5.186496   3.804655
    16  H    6.737090   5.046804   5.221372   4.370333   3.072669
    17  H    6.775771   5.013971   4.948372   3.956799   2.789489
    18  H    7.894624   6.038774   5.830441   4.637767   3.427360
    19  H    6.648461   4.771480   4.237305   2.966373   2.136837
    20  H    6.618478   4.748801   4.033227   2.687514   2.137208
                    6          7          8          9         10
     6  C    0.000000
     7  C    1.394092   0.000000
     8  O    1.357471   2.335219   0.000000
     9  C    2.359856   3.618032   1.415207   0.000000
    10  C    2.763221   4.134293   2.436080   1.523199   0.000000
    11  C    2.514885   3.795906   2.913450   2.471409   1.525563
    12  H    3.867392   3.387028   5.222291   6.048210   5.829565
    13  H    3.373770   3.843669   4.552931   4.809644   4.131907
    14  H    2.134776   1.078087   2.527541   3.930679   4.718283
    15  H    3.220583   4.334141   2.001822   1.092541   2.178453
    16  H    2.794288   3.993725   2.057356   1.099043   2.160123
    17  H    2.955239   4.180376   2.663943   2.143359   1.091911
    18  H    3.813332   5.197163   3.364858   2.152648   1.089529
    19  H    3.093620   4.332727   3.417073   2.793118   2.157941
    20  H    3.333562   4.490569   3.853624   3.430078   2.167742
                   11         12         13         14         15
    11  C    0.000000
    12  H    4.664590   0.000000
    13  H    2.708390   2.466481   0.000000
    14  H    4.648048   4.285793   4.921617   0.000000
    15  H    3.443962   7.018873   5.848056   4.427795   0.000000
    16  H    2.694175   6.240974   4.947990   4.329224   1.781586
    17  H    2.156507   5.897500   4.365356   4.710522   2.507950
    18  H    2.171417   6.761232   4.845709   5.755843   2.500969
    19  H    1.094873   5.037708   3.008847   5.168509   3.781917
    20  H    1.091715   4.739497   2.508829   5.409484   4.300637
                   16         17         18         19         20
    16  H    0.000000
    17  H    3.055939   0.000000
    18  H    2.507898   1.772230   0.000000
    19  H    2.566409   3.056444   2.448612   0.000000
    20  H    3.735337   2.453139   2.573774   1.762830   0.000000
 Stoichiometry    C9H9BrO
 Framework group  C1[X(C9H9BrO)]
 Deg. of freedom    54
 Full point group                 C1      NOp   1
 Largest Abelian subgroup         C1      NOp   1
 Largest concise Abelian subgroup C1      NOp   1
                         Standard orientation:                         
 ---------------------------------------------------------------------
 Center     Atomic      Atomic             Coordinates (Angstroms)
 Number     Number       Type             X           Y           Z
 ---------------------------------------------------------------------
      1         35           0       -3.001707   -0.254224    0.036626
      2          6           0       -1.151362    0.192322   -0.016413
      3          6           0       -0.774972    1.523637   -0.067322
      4          6           0        0.573462    1.825251   -0.089740
      5          6           0        1.544060    0.833587   -0.075338
      6          6           0        1.139909   -0.504211   -0.045663
      7          6           0       -0.217009   -0.821525   -0.005947
      8          8           0        2.000061   -1.554331   -0.035009
      9          6           0        3.365359   -1.258883   -0.261911
     10          6           0        3.806372   -0.002061    0.477033
     11          6           0        3.008461    1.178851   -0.067141
     12          1           0       -1.518205    2.304683   -0.081225
     13          1           0        0.884896    2.859186   -0.115334
     14          1           0       -0.508195   -1.858885    0.031035
     15          1           0        3.910282   -2.141648    0.080770
     16          1           0        3.533767   -1.136281   -1.341033
     17          1           0        3.603361   -0.127038    1.542602
     18          1           0        4.876649    0.150293    0.341509
     19          1           0        3.336520    1.409783   -1.085863
     20          1           0        3.174517    2.070583    0.540380
 ---------------------------------------------------------------------
 Rotational constants (GHZ):           2.4510255           0.3732244           0.3280302
 Standard basis: MIDIx (5D, 7F)
 There are   143 symmetry adapted cartesian basis functions of A   symmetry.
 There are   140 symmetry adapted basis functions of A   symmetry.
   140 basis functions,   246 primitive gaussians,   143 cartesian basis functions
    53 alpha electrons       53 beta electrons
       nuclear repulsion energy       827.5070561860 Hartrees.
 NAtoms=   20 NActive=   20 NUniq=   20 SFac= 1.00D+00 NAtFMM=   60 NAOKFM=F Big=F
 Integral buffers will be    131072 words long.
 Raffenetti 2 integral format.
 Two-electron integral symmetry is turned on.
 Nuclear repulsion after empirical dispersion term =      827.4947897399 Hartrees.
 One-electron integrals computed using PRISM.
 NBasis=   140 RedAO= T EigKep=  1.05D-03  NBF=   140
 NBsUse=   140 1.00D-06 EigRej= -1.00D+00 NBFU=   140
 ExpMin= 1.47D-01 ExpMax= 6.10D+03 ExpMxC= 6.10D+03 IAcc=3 IRadAn=         5 AccDes= 0.00D+00
 Harris functional with IExCor= 4639 and IRadAn=       5 diagonalized for initial guess.
 HarFok:  IExCor= 4639 AccDes= 0.00D+00 IRadAn=         5 IDoV= 1 UseB2=F ITyADJ=14
 ICtDFT=  3500011 ScaDFX=  1.000000  1.000000  1.000000  1.000000
 FoFCou: FMM=F IPFlag=           0 FMFlag=      100000 FMFlg1=           0
         NFxFlg=           0 DoJE=T BraDBF=F KetDBF=T FulRan=T
         wScrn=  0.000000 ICntrl=       500 IOpCl=  0 I1Cent=   200000004 NGrid=           0
         NMat0=    1 NMatS0=      1 NMatT0=    0 NMatD0=    1 NMtDS0=    0 NMtDT0=    0
 Petite list used in FoFCou.
 Requested convergence on RMS density matrix=1.00D-08 within 128 cycles.
 Requested convergence on MAX density matrix=1.00D-06.
 Requested convergence on             energy=1.00D-06.
 No special actions if energy rises.
 Integral accuracy reduced to 1.0D-05 until final iterations.
 Initial convergence to 1.0D-05 achieved.  Increase integral accuracy.
 SCF Done:  E(RwB97XD) =  -2983.04687725     A.U. after   16 cycles
            NFock= 16  Conv=0.45D-08     -V/T= 2.0021
 DoSCS=F DFT=T ScalE2(SS,OS)=  1.000000  1.000000
 Range of M.O.s used for correlation:     1   140
 NBasis=   140 NAE=    53 NBE=    53 NFC=     0 NFV=     0
 NROrb=    140 NOA=    53 NOB=    53 NVA=    87 NVB=    87
          Differentiating once with respect to magnetic field using GIAOs.
          Electric field/nuclear overlap derivatives assumed to be zero.
 FoFCou: FMM=F IPFlag=           0 FMFlag=      100000 FMFlg1=           0
         NFxFlg=           0 DoJE=F BraDBF=F KetDBF=T FulRan=T
         wScrn=  0.000000 ICntrl=      6100 IOpCl=  0 I1Cent=           7 NGrid=          20
         NMat0=    1 NMatS0=      1 NMatT0=    0 NMatD0=    1 NMtDS0=    0 NMtDT0=    0
 Symmetry not used in FoFCou.
 FoFJK:  IHMeth= 1 ICntrl=    6127 DoSepK=T KAlg= 0 I1Cent=           0 FoldK=F
 IRaf=         1 NMat=       1 IRICut=       1 DoRegI=T DoRafI=F ISym2E= 0 IDoP0=0 IntGTp=1.
          There are     3 degrees of freedom in the 1st order CPHF.  IDoFFX=0 NUNeed=     3.
      3 vectors produced by pass  0 Test12= 1.54D-13 3.33D-08 XBig12= 1.36D+01 7.01D-01.
 AX will form     3 AO Fock derivatives at one time.
      3 vectors produced by pass  1 Test12= 1.54D-13 3.33D-08 XBig12= 8.11D-02 1.02D-01.
      3 vectors produced by pass  2 Test12= 1.54D-13 3.33D-08 XBig12= 1.66D-03 2.07D-02.
      3 vectors produced by pass  3 Test12= 1.54D-13 3.33D-08 XBig12= 2.64D-05 1.23D-03.
      3 vectors produced by pass  4 Test12= 1.54D-13 3.33D-08 XBig12= 3.00D-07 1.21D-04.
      3 vectors produced by pass  5 Test12= 1.54D-13 3.33D-08 XBig12= 3.67D-09 2.32D-05.
      3 vectors produced by pass  6 Test12= 1.54D-13 3.33D-08 XBig12= 7.17D-11 4.41D-06.
      3 vectors produced by pass  7 Test12= 1.54D-13 3.33D-08 XBig12= 1.03D-12 3.21D-07.
 InvSVY:  IOpt=1 It=  1 EMax= 1.78D-15
 Solved reduced A of dimension    24 with     3 vectors.
 Calculating GIAO nuclear magnetic shielding tensors.
 SCF GIAO Magnetic shielding tensor (ppm):
      1  Br   Isotropic =  2188.2546   Anisotropy =  1191.0127
   XX=  2919.3656   YX=   255.8430   ZX=   -34.2294
   XY=   259.0692   YY=  1909.6752   ZY=   -11.9983
   XZ=   -34.3376   YZ=   -10.8044   ZZ=  1735.7229
   Eigenvalues:  1734.5998  1847.9009  2982.2630
      2  C    Isotropic =    81.5146   Anisotropy =   109.3929
   XX=     7.6988   YX=   -21.2994   ZX=     3.5466
   XY=   -21.1447   YY=    82.6165   ZY=     3.1011
   XZ=     3.9347   YZ=     3.7099   ZZ=   154.2285
   Eigenvalues:     1.9727    88.1279   154.4432
      3  C    Isotropic =    91.6608   Anisotropy =   129.1095
   XX=    52.8100   YX=    41.2520   ZX=     0.4419
   XY=    41.4432   YY=    44.4909   ZY=     3.3933
   XZ=     1.4663   YZ=     0.6156   ZZ=   177.6814
   Eigenvalues:     7.0899    90.1586   177.7337
      4  C    Isotropic =    85.2893   Anisotropy =   143.0699
   XX=    71.1323   YX=   -20.5069   ZX=     2.8796
   XY=   -24.9274   YY=     4.3575   ZY=     4.3783
   XZ=     8.0223   YZ=     1.5832   ZZ=   180.3780
   Eigenvalues:    -2.7465    77.9451   180.6692
      5  C    Isotropic =    95.9667   Anisotropy =   149.9748
   XX=    28.6734   YX=   -17.8495   ZX=     0.3778
   XY=    -6.2775   YY=    63.8056   ZY=    -0.0346
   XZ=    -4.5958   YZ=    15.9694   ZZ=   195.4211
   Eigenvalues:    24.9293    67.0210   195.9499
      6  C    Isotropic =    63.4276   Anisotropy =   124.5564
   XX=    20.8863   YX=    27.4676   ZX=     3.1521
   XY=    33.3100   YY=    23.0354   ZY=     0.1068
   XZ=     3.0131   YZ=     2.0342   ZZ=   146.3611
   Eigenvalues:    -8.4610    52.2786   146.4652
      7  C    Isotropic =    93.1992   Anisotropy =   111.6873
   XX=    85.5122   YX=   -15.3629   ZX=     2.8848
   XY=   -21.7214   YY=    26.5637   ZY=     4.7145
   XZ=     1.6460   YZ=     2.6385   ZZ=   167.5217
   Eigenvalues:    21.0981    90.8421   167.6574
      8  O    Isotropic =   253.1386   Anisotropy =   110.5482
   XX=   177.2051   YX=   -12.1651   ZX=    10.9977
   XY=   -41.0554   YY=   262.2074   ZY=    15.1091
   XZ=    17.6771   YZ=   -46.1790   ZZ=   320.0034
   Eigenvalues:   168.9512   263.6272   326.8374
      9  C    Isotropic =   146.9824   Anisotropy =    46.2302
   XX=   174.5266   YX=    12.1009   ZX=   -10.7091
   XY=     7.2974   YY=   131.7687   ZY=     5.1245
   XZ=    -5.2885   YZ=     1.7917   ZZ=   134.6520
   Eigenvalues:   126.2157   136.9290   177.8025
     10  C    Isotropic =   184.6547   Anisotropy =     9.4834
   XX=   181.8555   YX=     0.6123   ZX=     1.4072
   XY=     2.3076   YY=   183.8473   ZY=     4.7033
   XZ=   -10.8034   YZ=    -0.3424   ZZ=   188.2612
   Eigenvalues:   178.3747   184.6123   190.9769
     11  C    Isotropic =   180.0515   Anisotropy =     9.8235
   XX=   185.1906   YX=    -7.2558   ZX=     3.2972
   XY=     0.5393   YY=   178.0985   ZY=     0.1373
   XZ=    -0.2080   YZ=     3.1975   ZZ=   176.8653
   Eigenvalues:   174.6640   178.8899   186.6005
     12  H    Isotropic =    26.2858   Anisotropy =     6.4060
   XX=    27.8885   YX=     2.0463   ZX=    -0.1604
   XY=     1.5456   YY=    29.3222   ZY=    -0.3275
   XZ=    -0.0474   YZ=    -0.4835   ZZ=    21.6468
   Eigenvalues:    21.6254    26.6755    30.5565
     13  H    Isotropic =    26.1024   Anisotropy =     5.1826
   XX=    28.9714   YX=    -1.5660   ZX=     0.0073
   XY=    -0.9116   YY=    26.9340   ZY=    -0.2304
   XZ=    -0.1819   YZ=     0.2406   ZZ=    22.4018
   Eigenvalues:    22.4006    26.3491    29.5575
     14  H    Isotropic =    26.2821   Anisotropy =     8.1053
   XX=    31.2257   YX=    -1.7661   ZX=    -0.1183
   XY=    -1.2778   YY=    26.6439   ZY=    -0.1008
   XZ=    -0.1087   YZ=    -0.1516   ZZ=    20.9768
   Eigenvalues:    20.9718    26.1890    31.6857
     15  H    Isotropic =    28.6495   Anisotropy =     8.7528
   XX=    31.0930   YX=    -3.5884   ZX=     0.5726
   XY=    -2.7085   YY=    31.5098   ZY=    -0.1053
   XZ=     0.4710   YZ=    -0.4486   ZZ=    23.3458
   Eigenvalues:    23.3102    28.1537    34.4848
     16  H    Isotropic =    29.1434   Anisotropy =     8.8340
   XX=    30.1118   YX=     0.6857   ZX=    -4.1294
   XY=     0.1581   YY=    26.3733   ZY=     2.6190
   XZ=    -4.0432   YZ=     2.9760   ZZ=    30.9451
   Eigenvalues:    24.0500    28.3474    35.0327
     17  H    Isotropic =    31.3023   Anisotropy =     8.9392
   XX=    28.4523   YX=    -0.4989   ZX=     1.9622
   XY=    -0.6224   YY=    29.0183   ZY=    -0.5337
   XZ=     3.0407   YZ=    -1.0923   ZZ=    36.4363
   Eigenvalues:    27.6556    28.9896    37.2617
     18  H    Isotropic =    31.6106   Anisotropy =    11.0175
   XX=    38.8613   YX=     0.9813   ZX=     1.2347
   XY=     0.7379   YY=    29.2877   ZY=    -0.0138
   XZ=    -0.2633   YZ=    -0.3734   ZZ=    26.6827
   Eigenvalues:    26.6433    29.2328    38.9556
     19  H    Isotropic =    30.4123   Anisotropy =     9.4321
   XX=    30.7073   YX=     1.6285   ZX=    -2.1161
   XY=     0.9261   YY=    28.9486   ZY=    -4.0308
   XZ=    -4.6363   YZ=    -4.3410   ZZ=    31.5811
   Eigenvalues:    25.6265    28.9101    36.7004
     20  H    Isotropic =    30.5135   Anisotropy =     9.7320
   XX=    29.8974   YX=     0.8114   ZX=     1.4711
   XY=     0.6000   YY=    35.2365   ZY=     3.2692
   XZ=     2.8300   YZ=     4.5142   ZZ=    26.4066
   Eigenvalues:    24.3585    30.1805    37.0015
 End of Minotr F.D. properties file   721 does not exist.
 End of Minotr F.D. properties file   722 does not exist.
 End of Minotr F.D. properties file   788 does not exist.

 **********************************************************************

            Population analysis using the SCF Density.

 **********************************************************************

 Orbital symmetries:
       Occupied  (A) (A) (A) (A) (A) (A) (A) (A) (A) (A) (A) (A)
                 (A) (A) (A) (A) (A) (A) (A) (A) (A) (A) (A) (A)
                 (A) (A) (A) (A) (A) (A) (A) (A) (A) (A) (A) (A)
                 (A) (A) (A) (A) (A) (A) (A) (A) (A) (A) (A) (A)
                 (A) (A) (A) (A) (A)
       Virtual   (A) (A) (A) (A) (A) (A) (A) (A) (A) (A) (A) (A)
                 (A) (A) (A) (A) (A) (A) (A) (A) (A) (A) (A) (A)
                 (A) (A) (A) (A) (A) (A) (A) (A) (A) (A) (A) (A)
                 (A) (A) (A) (A) (A) (A) (A) (A) (A) (A) (A) (A)
                 (A) (A) (A) (A) (A) (A) (A) (A) (A) (A) (A) (A)
                 (A) (A) (A) (A) (A) (A) (A) (A) (A) (A) (A) (A)
                 (A) (A) (A) (A) (A) (A) (A) (A) (A) (A) (A) (A)
                 (A) (A) (A)
 The electronic state is 1-A.
 Alpha  occ. eigenvalues -- -480.13939 -62.57327 -56.16225 -56.15800 -56.15787
 Alpha  occ. eigenvalues --  -19.18524 -10.30319 -10.29203 -10.28820 -10.24590
 Alpha  occ. eigenvalues --  -10.24476 -10.24201 -10.24139 -10.23707 -10.23568
 Alpha  occ. eigenvalues --   -8.88168  -6.66647  -6.65225  -6.65210  -2.76954
 Alpha  occ. eigenvalues --   -2.76459  -2.76443  -2.75272  -2.75267  -1.18056
 Alpha  occ. eigenvalues --   -0.98799  -0.93201  -0.90148  -0.86405  -0.83507
 Alpha  occ. eigenvalues --   -0.77404  -0.73858  -0.71627  -0.65780  -0.61210
 Alpha  occ. eigenvalues --   -0.59985  -0.59106  -0.54451  -0.53355  -0.53046
 Alpha  occ. eigenvalues --   -0.52328  -0.49880  -0.48698  -0.47408  -0.45613
 Alpha  occ. eigenvalues --   -0.44775  -0.42129  -0.41203  -0.39349  -0.37316
 Alpha  occ. eigenvalues --   -0.35595  -0.31386  -0.29115
 Alpha virt. eigenvalues --    0.06432   0.08037   0.09512   0.16790   0.19786
 Alpha virt. eigenvalues --    0.20751   0.22032   0.22515   0.24120   0.24686
 Alpha virt. eigenvalues --    0.25547   0.25853   0.27219   0.28624   0.31539
 Alpha virt. eigenvalues --    0.33230   0.34914   0.37912   0.40616   0.42393
 Alpha virt. eigenvalues --    0.43898   0.47194   0.54737   0.56782   0.59089
 Alpha virt. eigenvalues --    0.60333   0.61743   0.65049   0.65170   0.65874
 Alpha virt. eigenvalues --    0.67592   0.68802   0.69012   0.69378   0.72585
 Alpha virt. eigenvalues --    0.74470   0.75884   0.77119   0.80335   0.82864
 Alpha virt. eigenvalues --    0.85425   0.85770   0.86475   0.88619   0.90053
 Alpha virt. eigenvalues --    0.93463   0.95442   0.96011   0.97011   0.97592
 Alpha virt. eigenvalues --    0.98567   0.99415   1.00597   1.01880   1.02337
 Alpha virt. eigenvalues --    1.03516   1.04187   1.04811   1.06181   1.06969
 Alpha virt. eigenvalues --    1.08331   1.09049   1.10496   1.11420   1.12947
 Alpha virt. eigenvalues --    1.17531   1.21360   1.25102   1.32452   1.34966
 Alpha virt. eigenvalues --    1.42001   1.45118   1.53914   1.57442   1.59316
 Alpha virt. eigenvalues --    1.64990   1.67523   1.71194   1.80299   1.92128
 Alpha virt. eigenvalues --    1.93548   1.97620   2.00298   2.06603   2.24940
 Alpha virt. eigenvalues --    2.52749   2.71063
          Condensed to atoms (all electrons):
               1          2          3          4          5          6
     1  Br  34.937782   0.207236  -0.036229   0.001826   0.000410   0.001657
     2  C    0.207236   5.078005   0.469176  -0.033026  -0.049672  -0.017384
     3  C   -0.036229   0.469176   4.948013   0.511053  -0.036048  -0.023018
     4  C    0.001826  -0.033026   0.511053   4.909856   0.454859  -0.018387
     5  C    0.000410  -0.049672  -0.036048   0.454859   5.254933   0.454047
     6  C    0.001657  -0.017384  -0.023018  -0.018387   0.454047   4.574791
     7  C   -0.036548   0.454066  -0.051960  -0.021563  -0.034380   0.500569
     8  O   -0.000013   0.003029  -0.000012   0.001975  -0.038525   0.259066
     9  C    0.000001  -0.000230   0.000035  -0.000088  -0.004089  -0.045808
    10  C   -0.000000  -0.000041  -0.000029   0.001880  -0.065096  -0.024628
    11  C    0.000002   0.000767   0.000277  -0.019665   0.258965  -0.016505
    12  H    0.000446  -0.021314   0.396073  -0.017383   0.002927   0.000010
    13  H   -0.000065   0.003184  -0.019859   0.397017  -0.023332   0.002128
    14  H   -0.000455  -0.017759   0.002640  -0.000402   0.004535  -0.018627
    15  H   -0.000000   0.000001   0.000000   0.000013  -0.000511   0.004202
    16  H   -0.000000   0.000010  -0.000007  -0.000148   0.003173  -0.002094
    17  H   -0.000000  -0.000004   0.000008  -0.000259  -0.001583   0.002112
    18  H    0.000000   0.000000  -0.000000   0.000031   0.005686   0.000402
    19  H   -0.000000   0.000000   0.000019  -0.004599  -0.030312  -0.001689
    20  H   -0.000000   0.000009   0.000228  -0.005297  -0.031030   0.002145
               7          8          9         10         11         12
     1  Br  -0.036548  -0.000013   0.000001  -0.000000   0.000002   0.000446
     2  C    0.454066   0.003029  -0.000230  -0.000041   0.000767  -0.021314
     3  C   -0.051960  -0.000012   0.000035  -0.000029   0.000277   0.396073
     4  C   -0.021563   0.001975  -0.000088   0.001880  -0.019665  -0.017383
     5  C   -0.034380  -0.038525  -0.004089  -0.065096   0.258965   0.002927
     6  C    0.500569   0.259066  -0.045808  -0.024628  -0.016505   0.000010
     7  C    5.002712  -0.053394   0.003734   0.000240  -0.000639   0.002613
     8  O   -0.053394   8.421268   0.173405  -0.030963  -0.011592   0.000001
     9  C    0.003734   0.173405   4.938961   0.295793  -0.093539  -0.000000
    10  C    0.000240  -0.030963   0.295793   5.325577   0.311593   0.000001
    11  C   -0.000639  -0.011592  -0.093539   0.311593   5.211439  -0.000029
    12  H    0.002613   0.000001  -0.000000   0.000001  -0.000029   0.435997
    13  H    0.000045  -0.000019   0.000002   0.000099  -0.004570  -0.004312
    14  H    0.385479   0.001420  -0.000026   0.000028  -0.000011  -0.000055
    15  H    0.000110  -0.024109   0.391088  -0.032744   0.006321   0.000000
    16  H   -0.000060  -0.026020   0.388765  -0.050476  -0.009137  -0.000000
    17  H   -0.000312   0.000425  -0.033153   0.384671  -0.036994   0.000000
    18  H    0.000011   0.002231  -0.028789   0.386355  -0.037756  -0.000000
    19  H   -0.000044   0.000030  -0.003740  -0.033296   0.390843   0.000001
    20  H   -0.000077   0.000070   0.006133  -0.032162   0.393544  -0.000006
              13         14         15         16         17         18
     1  Br  -0.000065  -0.000455  -0.000000  -0.000000  -0.000000   0.000000
     2  C    0.003184  -0.017759   0.000001   0.000010  -0.000004   0.000000
     3  C   -0.019859   0.002640   0.000000  -0.000007   0.000008  -0.000000
     4  C    0.397017  -0.000402   0.000013  -0.000148  -0.000259   0.000031
     5  C   -0.023332   0.004535  -0.000511   0.003173  -0.001583   0.005686
     6  C    0.002128  -0.018627   0.004202  -0.002094   0.002112   0.000402
     7  C    0.000045   0.385479   0.000110  -0.000060  -0.000312   0.000011
     8  O   -0.000019   0.001420  -0.024109  -0.026020   0.000425   0.002231
     9  C    0.000002  -0.000026   0.391088   0.388765  -0.033153  -0.028789
    10  C    0.000099   0.000028  -0.032744  -0.050476   0.384671   0.386355
    11  C   -0.004570  -0.000011   0.006321  -0.009137  -0.036994  -0.037756
    12  H   -0.004312  -0.000055   0.000000  -0.000000   0.000000  -0.000000
    13  H    0.454779   0.000007  -0.000000   0.000001   0.000004  -0.000007
    14  H    0.000007   0.429643  -0.000036   0.000015   0.000006  -0.000001
    15  H   -0.000000  -0.000036   0.492459  -0.032561  -0.004265  -0.000668
    16  H    0.000001   0.000015  -0.032561   0.534138   0.004970  -0.000376
    17  H    0.000004   0.000006  -0.004265   0.004970   0.492440  -0.022101
    18  H   -0.000007  -0.000001  -0.000668  -0.000376  -0.022101   0.497714
    19  H    0.000597   0.000002  -0.000134   0.004102   0.004116  -0.003632
    20  H    0.003120   0.000002  -0.000152   0.000064  -0.003460  -0.000745
              19         20
     1  Br  -0.000000  -0.000000
     2  C    0.000000   0.000009
     3  C    0.000019   0.000228
     4  C   -0.004599  -0.005297
     5  C   -0.030312  -0.031030
     6  C   -0.001689   0.002145
     7  C   -0.000044  -0.000077
     8  O    0.000030   0.000070
     9  C   -0.003740   0.006133
    10  C   -0.033296  -0.032162
    11  C    0.390843   0.393544
    12  H    0.000001  -0.000006
    13  H    0.000597   0.003120
    14  H    0.000002   0.000002
    15  H   -0.000134  -0.000152
    16  H    0.004102   0.000064
    17  H    0.004116  -0.003460
    18  H   -0.003632  -0.000745
    19  H    0.493615  -0.024974
    20  H   -0.024974   0.487594
 Mulliken charges:
               1
     1  Br  -0.076049
     2  C   -0.076053
     3  C   -0.160360
     4  C   -0.157692
     5  C   -0.124957
     6  C    0.367010
     7  C   -0.150601
     8  O   -0.678272
     9  C    0.011544
    10  C   -0.436801
    11  C   -0.343314
    12  H    0.205031
    13  H    0.191179
    14  H    0.213595
    15  H    0.200987
    16  H    0.185643
    17  H    0.213377
    18  H    0.201646
    19  H    0.209096
    20  H    0.204994
 Sum of Mulliken charges =  -0.00000
 Mulliken charges with hydrogens summed into heavy atoms:
               1
     1  Br  -0.076049
     2  C   -0.076053
     3  C    0.044671
     4  C    0.033487
     5  C   -0.124957
     6  C    0.367010
     7  C    0.062994
     8  O   -0.678272
     9  C    0.398174
    10  C   -0.021779
    11  C    0.070775
 Electronic spatial extent (au):  <R**2>=           3025.6657
 Charge=             -0.0000 electrons
 Dipole moment (field-independent basis, Debye):
    X=              3.3929    Y=              0.9325    Z=             -0.1732  Tot=              3.5230
 Quadrupole moment (field-independent basis, Debye-Ang):
   XX=            -66.4765   YY=            -73.0703   ZZ=            -78.8878
   XY=             -0.0099   XZ=             -0.7850   YZ=              0.0101
 Traceless Quadrupole moment (field-independent basis, Debye-Ang):
   XX=              6.3351   YY=             -0.2588   ZZ=             -6.0763
   XY=             -0.0099   XZ=             -0.7850   YZ=              0.0101
 Octapole moment (field-independent basis, Debye-Ang**2):
  XXX=            -43.6775  YYY=             -5.4294  ZZZ=              1.2431  XYY=            -28.0075
  XXY=            -11.4849  XXZ=             -2.5292  XZZ=            -25.3845  YZZ=             -7.3542
  YYZ=              0.6927  XYZ=              0.6698
 Hexadecapole moment (field-independent basis, Debye-Ang**3):
 XXXX=          -2563.5421 YYYY=           -555.0570 ZZZZ=           -111.6609 XXXY=            -14.6515
 XXXZ=            -18.7612 YYYX=             11.5899 YYYZ=             -0.9342 ZZZX=             -5.8190
 ZZZY=              0.3383 XXYY=           -540.8186 XXZZ=           -485.8043 YYZZ=           -123.5297
 XXYZ=              0.4414 YYXZ=              0.8249 ZZXY=              3.3159
 N-N= 8.274947897399D+02 E-N=-8.757173828151D+03  KE= 2.976821730617D+03
 Unable to Open any file for archive entry.
 1\1\GINC-DYNAMO\SP\RwB97XD\MIDIx\C9H9Br1O1\RPATON\26-Sep-2024\0\\# wb9
 7xd midix nmr=giao\\energy: -32.024707278763 gnorm: 0.000396726366 xtb
 : 6.7.0 (08769fc)\\0,1\Br,0,2.99342,-0.25958,-0.10009\C,0,1.14493,0.19
 043,-0.01904\C,0,0.77157,1.52267,0.02996\C,0,-0.57582,1.82671,0.07294\
 C,0,-1.54811,0.83663,0.08075\C,0,-1.14665,-0.50201,0.05256\C,0,0.20891
 ,-0.82187,-0.00776\O,0,-2.00854,-1.55071,0.06264\C,0,-3.3694,-1.25156,
 0.31039\C,0,-3.82063,0.00148,-0.42881\C,0,-3.01189,1.18433,0.09478\H,0
 ,1.51618,2.30252,0.02672\H,0,-0.88513,2.86131,0.09737\H,0,0.49778,-1.8
 5993,-0.04322\H,0,-3.92136,-2.13547,-0.01777\H,0,-3.51964,-1.12209,1.3
 9139\H,0,-3.63557,-0.13034,-1.49682\H,0,-4.88826,0.15648,-0.27645\H,0,
 -3.32259,1.42203,1.11738\H,0,-3.1866,2.07262,-0.51535\\Version=ES64L-G
 16RevC.01\State=1-A\HF=-2983.0468772\RMSD=4.546e-09\Dipole=-1.332964,0
 .3695423,0.0880635\Quadrupole=4.6880068,-0.1926412,-4.4953656,-0.00506
 26,-0.7367841,-0.0327886\PG=C01 [X(C9H9Br1O1)]\\@
 The archive entry for this job was punched.


 CURIOUSER AND CURIOUSER

                  -- ALICE, IN WONDERLAND
 Job cpu time:       0 days  0 hours  5 minutes 41.2 seconds.
 Elapsed time:       0 days  0 hours  0 minutes 15.9 seconds.
 File lengths (MBytes):  RWF=     15 Int=      0 D2E=      0 Chk=      3 Scr=      1
 Normal termination of Gaussian 16 at Thu Sep 26 13:19:25 2024.
