 Entering Gaussian System, Link 0=/usr/local/Gaussian/G16C/g16/g16
 Input=nmr/arbr47_xtbopt_nmr.com
 Output=nmr/arbr47_xtbopt_nmr.log
 Initial command:
 /usr/local/Gaussian/G16C/g16/l1.exe "/home/rpaton/opt/xtb/Gau-1328304.inp" -scrdir="/home/rpaton/opt/xtb/"
 Entering Link 1 = /usr/local/Gaussian/G16C/g16/l1.exe PID=   1328305.
  
 Copyright (c) 1988-2019, Gaussian, Inc.  All Rights Reserved.
  
 This is part of the Gaussian(R) 16 program.  It is based on
 the Gaussian(R) 09 system (copyright 2009, Gaussian, Inc.),
 the Gaussian(R) 03 system (copyright 2003, Gaussian, Inc.),
 the Gaussian(R) 98 system (copyright 1998, Gaussian, Inc.),
 the Gaussian(R) 94 system (copyright 1995, Gaussian, Inc.),
 the Gaussian 92(TM) system (copyright 1992, Gaussian, Inc.),
 the Gaussian 90(TM) system (copyright 1990, Gaussian, Inc.),
 the Gaussian 88(TM) system (copyright 1988, Gaussian, Inc.),
 the Gaussian 86(TM) system (copyright 1986, Carnegie Mellon
 University), and the Gaussian 82(TM) system (copyright 1983,
 Carnegie Mellon University). Gaussian is a federally registered
 trademark of Gaussian, Inc.
  
 This software contains proprietary and confidential information,
 including trade secrets, belonging to Gaussian, Inc.
  
 This software is provided under written license and may be
 used, copied, transmitted, or stored only in accord with that
 written license.
  
 The following legend is applicable only to US Government
 contracts under FAR:
  
                    RESTRICTED RIGHTS LEGEND
  
 Use, reproduction and disclosure by the US Government is
 subject to restrictions as set forth in subparagraphs (a)
 and (c) of the Commercial Computer Software - Restricted
 Rights clause in FAR 52.227-19.
  
 Gaussian, Inc.
 340 Quinnipiac St., Bldg. 40, Wallingford CT 06492
  
  
 ---------------------------------------------------------------
 Warning -- This program may not be used in any manner that
 competes with the business of Gaussian, Inc. or will provide
 assistance to any competitor of Gaussian, Inc.  The licensee
 of this program is prohibited from giving any competitor of
 Gaussian, Inc. access to this program.  By using this program,
 the user acknowledges that Gaussian, Inc. is engaged in the
 business of creating and licensing software in the field of
 computational chemistry and represents and warrants to the
 licensee that it is not a competitor of Gaussian, Inc. and that
 it will not use this program in any manner prohibited above.
 ---------------------------------------------------------------
  

 Cite this work as:
 Gaussian 16, Revision C.01,
 M. J. Frisch, G. W. Trucks, H. B. Schlegel, G. E. Scuseria, 
 M. A. Robb, J. R. Cheeseman, G. Scalmani, V. Barone, 
 G. A. Petersson, H. Nakatsuji, X. Li, M. Caricato, A. V. Marenich, 
 J. Bloino, B. G. Janesko, R. Gomperts, B. Mennucci, H. P. Hratchian, 
 J. V. Ortiz, A. F. Izmaylov, J. L. Sonnenberg, D. Williams-Young, 
 F. Ding, F. Lipparini, F. Egidi, J. Goings, B. Peng, A. Petrone, 
 T. Henderson, D. Ranasinghe, V. G. Zakrzewski, J. Gao, N. Rega, 
 G. Zheng, W. Liang, M. Hada, M. Ehara, K. Toyota, R. Fukuda, 
 J. Hasegawa, M. Ishida, T. Nakajima, Y. Honda, O. Kitao, H. Nakai, 
 T. Vreven, K. Throssell, J. A. Montgomery, Jr., J. E. Peralta, 
 F. Ogliaro, M. J. Bearpark, J. J. Heyd, E. N. Brothers, K. N. Kudin, 
 V. N. Staroverov, T. A. Keith, R. Kobayashi, J. Normand, 
 K. Raghavachari, A. P. Rendell, J. C. Burant, S. S. Iyengar, 
 J. Tomasi, M. Cossi, J. M. Millam, M. Klene, C. Adamo, R. Cammi, 
 J. W. Ochterski, R. L. Martin, K. Morokuma, O. Farkas, 
 J. B. Foresman, and D. J. Fox, Gaussian, Inc., Wallingford CT, 2019.
 
 ******************************************
 Gaussian 16:  ES64L-G16RevC.01  3-Jul-2019
                26-Sep-2024 
 ******************************************
 %nprocshared=24
 Will use up to   24 processors via shared memory.
 -----------------------
 # wb97xd midix nmr=giao
 -----------------------
 1/38=1,172=1/1;
 2/12=2,17=6,18=5,40=1/2;
 3/5=20,11=2,25=1,30=1,74=-58/1,2,3,8;
 4//1;
 5/5=2,38=5/2;
 8/6=1,10=90,11=11/1;
 10/13=100,45=16/2;
 6/7=2,8=2,9=2,10=2,28=1/1;
 99/9=1/99;
 -------------------------------------------------------------------
 energy: -35.049283102289 gnorm: 0.000814436820 xtb: 6.7.0 (08769fc)
 -------------------------------------------------------------------
 Symbolic Z-matrix:
 Charge =  0 Multiplicity = 1
 O                    -4.37067  -1.42627  -0.32442 
 C                    -3.39645  -0.79225  -0.01818 
 C                    -3.4856    0.6535    0.4392 
 O                    -2.47146   1.50177  -0.05241 
 C                    -1.20108   1.01455  -0.04507 
 C                    -0.16725   1.94568  -0.13737 
 C                     1.14868   1.53448  -0.13196 
 C                     1.43038   0.18157  -0.02682 
 Br                    3.24255  -0.40222   0.00838 
 C                     0.41604  -0.7538    0.04273 
 C                    -0.91127  -0.34723   0.02434 
 C                    -2.00758  -1.37557   0.02085 
 H                    -4.43357   1.09186   0.11894 
 H                    -3.45797   0.64059   1.54209 
 H                    -0.4211    2.99033  -0.21291 
 H                     1.94791   2.25521  -0.20058 
 H                     0.65043  -1.80604   0.10146 
 H                    -1.94462  -2.00077   0.91954 
 H                    -1.89093  -2.05426  -0.82963 
 
                          Input orientation:                          
 ---------------------------------------------------------------------
 Center     Atomic      Atomic             Coordinates (Angstroms)
 Number     Number       Type             X           Y           Z
 ---------------------------------------------------------------------
      1          8           0       -4.370670   -1.426270   -0.324420
      2          6           0       -3.396450   -0.792250   -0.018180
      3          6           0       -3.485600    0.653500    0.439200
      4          8           0       -2.471460    1.501770   -0.052410
      5          6           0       -1.201080    1.014550   -0.045070
      6          6           0       -0.167250    1.945680   -0.137370
      7          6           0        1.148680    1.534480   -0.131960
      8          6           0        1.430380    0.181570   -0.026820
      9         35           0        3.242550   -0.402220    0.008380
     10          6           0        0.416040   -0.753800    0.042730
     11          6           0       -0.911270   -0.347230    0.024340
     12          6           0       -2.007580   -1.375570    0.020850
     13          1           0       -4.433570    1.091860    0.118940
     14          1           0       -3.457970    0.640590    1.542090
     15          1           0       -0.421100    2.990330   -0.212910
     16          1           0        1.947910    2.255210   -0.200580
     17          1           0        0.650430   -1.806040    0.101460
     18          1           0       -1.944620   -2.000770    0.919540
     19          1           0       -1.890930   -2.054260   -0.829630
 ---------------------------------------------------------------------
                    Distance matrix (angstroms):
                    1          2          3          4          5
     1  O    0.000000
     2  C    1.202027   0.000000
     3  C    2.385772   1.518992   0.000000
     4  O    3.500629   2.473723   1.410575   0.000000
     5  C    4.010229   2.843396   2.363029   1.360626   0.000000
     6  C    5.392010   4.235351   3.607438   2.348118   1.394391
     7  C    6.266283   5.107331   4.751726   3.621162   2.408163
     8  C    6.027097   4.924093   4.960519   4.119216   2.760212
     9  Br   7.688989   6.650500   6.824086   6.023187   4.664327
    10  C    4.847639   3.813170   4.166591   3.665284   2.397884
    11  C    3.640523   2.525068   2.792981   2.420513   1.394006
    12  C    2.388719   1.506899   2.544933   2.915414   2.523383
    13  H    2.557636   2.155062   1.092416   2.011781   3.237571
    14  H    2.930664   2.119259   1.103312   2.063314   2.784327
    15  H    5.926035   4.816486   3.908604   2.538808   2.130785
    16  H    7.313897   6.154873   5.700686   4.485583   3.388150
    17  H    5.053419   4.173646   4.823914   4.550987   3.377172
    18  H    2.786253   2.108945   3.106525   3.672878   3.251996
    19  H    2.607435   2.125491   3.388933   3.685978   3.241762
                    6          7          8          9         10
     6  C    0.000000
     7  C    1.378690   0.000000
     8  C    2.382588   1.385920   0.000000
     9  Br   4.142537   2.855660   1.904208   0.000000
    10  C    2.767644   2.409046   1.381535   2.848499   0.000000
    11  C    2.416020   2.794397   2.401160   4.154215   1.388304
    12  C    3.800335   4.295779   3.774457   5.339610   2.502201
    13  H    4.358462   5.605388   5.935974   7.820954   5.189507
    14  H    3.918250   4.982239   5.154430   6.952459   4.381821
    15  H    1.077701   2.142490   3.369234   4.998069   3.845083
    16  H    2.138622   1.078392   2.144298   2.963392   3.385257
    17  H    3.847212   3.385530   2.139012   2.949315   1.079628
    18  H    4.455398   4.813746   4.129023   5.503845   2.810061
    19  H    4.410195   4.754474   4.083447   5.457482   2.788247
                   11         12         13         14         15
    11  C    0.000000
    12  C    1.503127   0.000000
    13  H    3.806117   3.461685   0.000000
    14  H    3.124905   2.912508   1.783479   0.000000
    15  H    3.381695   4.651091   4.451318   4.221834   0.000000
    16  H    3.872750   5.373779   6.494518   5.904865   2.480476
    17  H    2.138453   2.693848   5.851939   4.994033   4.924649
    18  H    2.145551   1.096578   4.049715   3.107182   5.339910
    19  H    2.145449   1.094323   4.154862   3.917000   5.290428
                   16         17         18         19
    16  H    0.000000
    17  H    4.274159   0.000000
    18  H    5.875357   2.727904   0.000000
    19  H    5.805508   2.717913   1.750811   0.000000
 Stoichiometry    C9H7BrO2
 Framework group  C1[X(C9H7BrO2)]
 Deg. of freedom    51
 Full point group                 C1      NOp   1
 Largest Abelian subgroup         C1      NOp   1
 Largest concise Abelian subgroup C1      NOp   1
                         Standard orientation:                         
 ---------------------------------------------------------------------
 Center     Atomic      Atomic             Coordinates (Angstroms)
 Number     Number       Type             X           Y           Z
 ---------------------------------------------------------------------
      1          8           0       -4.369152   -1.434315   -0.326245
      2          6           0       -3.396782   -0.796794   -0.021397
      3          6           0       -3.489313    0.652184    0.424965
      4          8           0       -2.474575    1.498098   -0.069460
      5          6           0       -1.203613    1.012581   -0.054198
      6          6           0       -0.170650    1.944332   -0.149873
      7          6           0        1.145771    1.534876   -0.136948
      8          6           0        1.428818    0.183145   -0.020841
      9         35           0        3.241592   -0.398037    0.024836
     10          6           0        0.415427   -0.752990    0.052182
     11          6           0       -0.912324   -0.348275    0.026273
     12          6           0       -2.007318   -1.378022    0.026669
     13          1           0       -4.436739    1.086943    0.098250
     14          1           0       -3.465425    0.647467    1.528008
     15          1           0       -0.425559    2.988067   -0.234004
     16          1           0        1.944321    2.256107   -0.208184
     17          1           0        0.650943   -1.804464    0.119494
     18          1           0       -1.946632   -1.996476    0.930170
     19          1           0       -1.886914   -2.062834   -0.818364
 ---------------------------------------------------------------------
 Rotational constants (GHZ):           2.0452583           0.3005593           0.2644002
 Standard basis: MIDIx (5D, 7F)
 There are   154 symmetry adapted cartesian basis functions of A   symmetry.
 There are   150 symmetry adapted basis functions of A   symmetry.
   150 basis functions,   261 primitive gaussians,   154 cartesian basis functions
    56 alpha electrons       56 beta electrons
       nuclear repulsion energy       905.4181507771 Hartrees.
 NAtoms=   19 NActive=   19 NUniq=   19 SFac= 1.00D+00 NAtFMM=   60 NAOKFM=F Big=F
 Integral buffers will be    131072 words long.
 Raffenetti 2 integral format.
 Two-electron integral symmetry is turned on.
 Nuclear repulsion after empirical dispersion term =      905.4071553359 Hartrees.
 One-electron integrals computed using PRISM.
 NBasis=   150 RedAO= T EigKep=  1.04D-03  NBF=   150
 NBsUse=   150 1.00D-06 EigRej= -1.00D+00 NBFU=   150
 ExpMin= 1.47D-01 ExpMax= 6.10D+03 ExpMxC= 6.10D+03 IAcc=3 IRadAn=         5 AccDes= 0.00D+00
 Harris functional with IExCor= 4639 and IRadAn=       5 diagonalized for initial guess.
 HarFok:  IExCor= 4639 AccDes= 0.00D+00 IRadAn=         5 IDoV= 1 UseB2=F ITyADJ=14
 ICtDFT=  3500011 ScaDFX=  1.000000  1.000000  1.000000  1.000000
 FoFCou: FMM=F IPFlag=           0 FMFlag=      100000 FMFlg1=           0
         NFxFlg=           0 DoJE=T BraDBF=F KetDBF=T FulRan=T
         wScrn=  0.000000 ICntrl=       500 IOpCl=  0 I1Cent=   200000004 NGrid=           0
         NMat0=    1 NMatS0=      1 NMatT0=    0 NMatD0=    1 NMtDS0=    0 NMtDT0=    0
 Petite list used in FoFCou.
 Requested convergence on RMS density matrix=1.00D-08 within 128 cycles.
 Requested convergence on MAX density matrix=1.00D-06.
 Requested convergence on             energy=1.00D-06.
 No special actions if energy rises.
 Integral accuracy reduced to 1.0D-05 until final iterations.
 Initial convergence to 1.0D-05 achieved.  Increase integral accuracy.
 SCF Done:  E(RwB97XD) =  -3056.60696034     A.U. after   17 cycles
            NFock= 17  Conv=0.57D-08     -V/T= 2.0024
 DoSCS=F DFT=T ScalE2(SS,OS)=  1.000000  1.000000
 Range of M.O.s used for correlation:     1   150
 NBasis=   150 NAE=    56 NBE=    56 NFC=     0 NFV=     0
 NROrb=    150 NOA=    56 NOB=    56 NVA=    94 NVB=    94
          Differentiating once with respect to magnetic field using GIAOs.
          Electric field/nuclear overlap derivatives assumed to be zero.
 FoFCou: FMM=F IPFlag=           0 FMFlag=      100000 FMFlg1=           0
         NFxFlg=           0 DoJE=F BraDBF=F KetDBF=T FulRan=T
         wScrn=  0.000000 ICntrl=      6100 IOpCl=  0 I1Cent=           7 NGrid=          19
         NMat0=    1 NMatS0=      1 NMatT0=    0 NMatD0=    1 NMtDS0=    0 NMtDT0=    0
 Symmetry not used in FoFCou.
 FoFJK:  IHMeth= 1 ICntrl=    6127 DoSepK=T KAlg= 0 I1Cent=           0 FoldK=F
 IRaf=         1 NMat=       1 IRICut=       1 DoRegI=T DoRafI=F ISym2E= 0 IDoP0=0 IntGTp=1.
          There are     3 degrees of freedom in the 1st order CPHF.  IDoFFX=0 NUNeed=     3.
      3 vectors produced by pass  0 Test12= 1.75D-13 3.33D-08 XBig12= 1.38D+01 7.61D-01.
 AX will form     3 AO Fock derivatives at one time.
      3 vectors produced by pass  1 Test12= 1.75D-13 3.33D-08 XBig12= 1.02D-01 1.26D-01.
      3 vectors produced by pass  2 Test12= 1.75D-13 3.33D-08 XBig12= 1.78D-03 1.31D-02.
      3 vectors produced by pass  3 Test12= 1.75D-13 3.33D-08 XBig12= 3.05D-05 1.40D-03.
      3 vectors produced by pass  4 Test12= 1.75D-13 3.33D-08 XBig12= 4.54D-07 1.95D-04.
      3 vectors produced by pass  5 Test12= 1.75D-13 3.33D-08 XBig12= 6.05D-09 2.06D-05.
      3 vectors produced by pass  6 Test12= 1.75D-13 3.33D-08 XBig12= 8.56D-11 1.79D-06.
      3 vectors produced by pass  7 Test12= 1.75D-13 3.33D-08 XBig12= 9.49D-13 2.88D-07.
      1 vectors produced by pass  8 Test12= 1.75D-13 3.33D-08 XBig12= 1.42D-14 5.21D-08.
 InvSVY:  IOpt=1 It=  1 EMax= 4.44D-16
 Solved reduced A of dimension    25 with     3 vectors.
 Calculating GIAO nuclear magnetic shielding tensors.
 SCF GIAO Magnetic shielding tensor (ppm):
      1  O    Isotropic =  -280.9209   Anisotropy =  1003.2196
   XX=  -683.6580   YX=  -207.8193   ZX=  -195.5482
   XY=  -230.8363   YY=  -443.1056   ZY=  -256.4518
   XZ=  -201.8715   YZ=  -284.0326   ZZ=   284.0008
   Eigenvalues:  -896.3199  -334.3350   387.8921
      2  C    Isotropic =    23.6565   Anisotropy =   153.3296
   XX=   -15.4579   YX=    23.1626   ZX=   -14.8670
   XY=    17.0338   YY=   -26.0254   ZY=   -40.6868
   XZ=    -6.1101   YZ=   -43.1558   ZZ=   112.4527
   Eigenvalues:   -46.8490    -8.0578   125.8762
      3  C    Isotropic =   139.3805   Anisotropy =    28.4862
   XX=   142.6375   YX=    13.2963   ZX=    -3.4126
   XY=    13.6865   YY=   145.2039   ZY=    -1.7925
   XZ=    -5.5291   YZ=    -3.6326   ZZ=   130.3003
   Eigenvalues:   128.3485   131.4218   158.3713
      4  O    Isotropic =   258.3037   Anisotropy =    79.2966
   XX=   251.6142   YX=   -45.2662   ZX=     5.3911
   XY=   -78.1440   YY=   234.8645   ZY=    18.3207
   XZ=    29.0779   YZ=   -12.2402   ZZ=   288.4325
   Eigenvalues:   179.2527   284.4904   311.1681
      5  C    Isotropic =    65.0647   Anisotropy =   129.1275
   XX=    -3.9872   YX=    12.3478   ZX=     7.0593
   XY=    17.4682   YY=    48.6404   ZY=     5.0005
   XZ=    -2.6912   YZ=     9.8662   ZZ=   150.5410
   Eigenvalues:    -7.9172    51.9616   151.1497
      6  C    Isotropic =    95.4157   Anisotropy =   134.4986
   XX=    79.4658   YX=    14.6782   ZX=     1.6661
   XY=     9.8109   YY=    22.3708   ZY=    14.2228
   XZ=     1.4230   YZ=     5.8708   ZZ=   184.4106
   Eigenvalues:    19.3048    81.8609   185.0815
      7  C    Isotropic =    83.7305   Anisotropy =   139.9037
   XX=    36.9429   YX=   -38.4433   ZX=     4.5053
   XY=   -40.8078   YY=    38.3732   ZY=    12.6437
   XZ=     6.0078   YZ=    12.0662   ZZ=   175.8754
   Eigenvalues:    -2.8369    77.0288   176.9996
      8  C    Isotropic =    88.0618   Anisotropy =   101.4432
   XX=    17.9254   YX=    27.9373   ZX=    -2.1259
   XY=    26.2051   YY=    90.9463   ZY=     5.1969
   XZ=    -0.6627   YZ=     4.6362   ZZ=   155.3138
   Eigenvalues:     8.9279    99.5670   155.6906
      9  Br   Isotropic =  2208.0059   Anisotropy =  1178.4953
   XX=  2885.9129   YX=  -330.2860   ZX=    29.0866
   XY=  -332.2125   YY=  1967.7493   ZY=   -14.8691
   XZ=    22.5814   YZ=   -19.1819   ZZ=  1770.3553
   Eigenvalues:  1768.8864  1861.4618  2993.6694
     10  C    Isotropic =    81.6872   Anisotropy =   125.5210
   XX=    78.2733   YX=    18.7604   ZX=    -0.5488
   XY=    14.6093   YY=     2.0479   ZY=    11.3141
   XZ=    -1.4059   YZ=     8.9321   ZZ=   164.7404
   Eigenvalues:    -2.0570    81.7506   165.3679
     11  C    Isotropic =    94.4616   Anisotropy =   138.6067
   XX=    45.5012   YX=   -32.4076   ZX=    -1.5629
   XY=   -25.5257   YY=    52.1250   ZY=     6.0032
   XZ=   -11.2489   YZ=    11.8906   ZZ=   185.7587
   Eigenvalues:    19.6493    76.8694   186.8661
     12  C    Isotropic =   168.1718   Anisotropy =    28.9878
   XX=   185.5805   YX=   -10.2999   ZX=    -4.4625
   XY=    -3.9037   YY=   156.5519   ZY=     0.3884
   XZ=    -1.4551   YZ=    -2.8105   ZZ=   162.3830
   Eigenvalues:   154.4650   162.5533   187.4970
     13  H    Isotropic =    28.4067   Anisotropy =     7.6276
   XX=    33.4908   YX=    -0.2059   ZX=     0.4744
   XY=     0.0886   YY=    27.4954   ZY=    -0.7542
   XZ=    -0.6209   YZ=    -1.4896   ZZ=    24.2339
   Eigenvalues:    23.8844    27.8439    33.4918
     14  H    Isotropic =    28.3082   Anisotropy =     7.3412
   XX=    28.1799   YX=     0.6629   ZX=    -3.6336
   XY=     1.5203   YY=    26.2926   ZY=    -0.5476
   XZ=    -3.7054   YZ=     0.7841   ZZ=    30.4522
   Eigenvalues:    24.8392    26.8831    33.2023
     15  H    Isotropic =    26.1431   Anisotropy =     3.7806
   XX=    28.3199   YX=     0.5134   ZX=    -0.0823
   XY=     0.6742   YY=    27.5924   ZY=    -0.3842
   XZ=     0.0848   YZ=    -0.6688   ZZ=    22.5169
   Eigenvalues:    22.4621    27.3036    28.6635
     16  H    Isotropic =    25.8166   Anisotropy =     6.6954
   XX=    27.0757   YX=    -2.1789   ZX=     0.1433
   XY=    -1.7885   YY=    28.9939   ZY=    -0.6140
   XZ=    -0.0375   YZ=    -0.7617   ZZ=    21.3803
   Eigenvalues:    21.3158    25.8539    30.2802
     17  H    Isotropic =    25.9220   Anisotropy =     9.2337
   XX=    31.5965   YX=     1.9237   ZX=    -0.0598
   XY=     1.6669   YY=    25.3414   ZY=    -0.2229
   XZ=    -0.1763   YZ=    -0.2187   ZZ=    20.8281
   Eigenvalues:    20.8172    24.8710    32.0778
     18  H    Isotropic =    29.1719   Anisotropy =     7.5101
   XX=    29.0305   YX=     1.5456   ZX=     0.2488
   XY=     0.2846   YY=    30.3041   ZY=    -3.8778
   XZ=    -0.0607   YZ=    -5.5908   ZZ=    28.1811
   Eigenvalues:    24.3018    29.0352    34.1787
     19  H    Isotropic =    29.4611   Anisotropy =     7.3214
   XX=    29.8052   YX=     0.5614   ZX=    -0.7303
   XY=     1.6177   YY=    30.6292   ZY=     3.9250
   XZ=    -0.0355   YZ=     5.6295   ZZ=    27.9488
   Eigenvalues:    24.1617    29.8796    34.3420
 End of Minotr F.D. properties file   721 does not exist.
 End of Minotr F.D. properties file   722 does not exist.
 End of Minotr F.D. properties file   788 does not exist.

 **********************************************************************

            Population analysis using the SCF Density.

 **********************************************************************

 Orbital symmetries:
       Occupied  (A) (A) (A) (A) (A) (A) (A) (A) (A) (A) (A) (A)
                 (A) (A) (A) (A) (A) (A) (A) (A) (A) (A) (A) (A)
                 (A) (A) (A) (A) (A) (A) (A) (A) (A) (A) (A) (A)
                 (A) (A) (A) (A) (A) (A) (A) (A) (A) (A) (A) (A)
                 (A) (A) (A) (A) (A) (A) (A) (A)
       Virtual   (A) (A) (A) (A) (A) (A) (A) (A) (A) (A) (A) (A)
                 (A) (A) (A) (A) (A) (A) (A) (A) (A) (A) (A) (A)
                 (A) (A) (A) (A) (A) (A) (A) (A) (A) (A) (A) (A)
                 (A) (A) (A) (A) (A) (A) (A) (A) (A) (A) (A) (A)
                 (A) (A) (A) (A) (A) (A) (A) (A) (A) (A) (A) (A)
                 (A) (A) (A) (A) (A) (A) (A) (A) (A) (A) (A) (A)
                 (A) (A) (A) (A) (A) (A) (A) (A) (A) (A) (A) (A)
                 (A) (A) (A) (A) (A) (A) (A) (A) (A) (A)
 The electronic state is 1-A.
 Alpha  occ. eigenvalues -- -480.14659 -62.58043 -56.16944 -56.16517 -56.16501
 Alpha  occ. eigenvalues --  -19.20020 -19.16056 -10.33886 -10.31397 -10.30421
 Alpha  occ. eigenvalues --  -10.29300 -10.26481 -10.26040 -10.25596 -10.25408
 Alpha  occ. eigenvalues --  -10.24766  -8.88879  -6.67362  -6.65927  -6.65925
 Alpha  occ. eigenvalues --   -2.77668  -2.77177  -2.77150  -2.75979  -2.75974
 Alpha  occ. eigenvalues --   -1.19646  -1.17110  -1.00113  -0.92914  -0.91215
 Alpha  occ. eigenvalues --   -0.86420  -0.84591  -0.79641  -0.73041  -0.72247
 Alpha  occ. eigenvalues --   -0.65276  -0.63293  -0.60465  -0.59092  -0.56122
 Alpha  occ. eigenvalues --   -0.55247  -0.54393  -0.53894  -0.52468  -0.50797
 Alpha  occ. eigenvalues --   -0.49985  -0.47608  -0.45953  -0.45009  -0.43300
 Alpha  occ. eigenvalues --   -0.42553  -0.37344  -0.36364  -0.34382  -0.33423
 Alpha  occ. eigenvalues --   -0.29421
 Alpha virt. eigenvalues --    0.04466   0.05593   0.06832   0.08848   0.17570
 Alpha virt. eigenvalues --    0.19561   0.20389   0.20853   0.22834   0.23348
 Alpha virt. eigenvalues --    0.25163   0.26238   0.27452   0.29029   0.31629
 Alpha virt. eigenvalues --    0.35657   0.38346   0.39144   0.40935   0.42172
 Alpha virt. eigenvalues --    0.47792   0.48250   0.53539   0.55762   0.58156
 Alpha virt. eigenvalues --    0.59493   0.61327   0.64338   0.64489   0.65045
 Alpha virt. eigenvalues --    0.66202   0.67342   0.69711   0.71875   0.72788
 Alpha virt. eigenvalues --    0.74005   0.74473   0.76987   0.78245   0.80389
 Alpha virt. eigenvalues --    0.83250   0.85103   0.86321   0.87359   0.91014
 Alpha virt. eigenvalues --    0.91918   0.93506   0.94085   0.95779   0.96962
 Alpha virt. eigenvalues --    0.97826   0.98696   0.99559   1.00192   1.00601
 Alpha virt. eigenvalues --    1.01920   1.03505   1.03995   1.05031   1.05647
 Alpha virt. eigenvalues --    1.09858   1.10378   1.13427   1.14515   1.18761
 Alpha virt. eigenvalues --    1.22707   1.24954   1.31512   1.32375   1.38981
 Alpha virt. eigenvalues --    1.42755   1.47760   1.51267   1.57630   1.59611
 Alpha virt. eigenvalues --    1.65408   1.67209   1.70634   1.72156   1.75225
 Alpha virt. eigenvalues --    1.86833   1.89048   1.89509   1.91726   1.93322
 Alpha virt. eigenvalues --    1.95466   1.99835   2.06129   2.12329   2.23836
 Alpha virt. eigenvalues --    2.31541   2.51800   2.68616   3.04750
          Condensed to atoms (all electrons):
               1          2          3          4          5          6
     1  O    8.140998   0.513540  -0.071433   0.000617   0.000093   0.000000
     2  C    0.513540   4.621923   0.301864  -0.004840  -0.016896   0.000086
     3  C   -0.071433   0.301864   5.121654   0.152646  -0.052757   0.002046
     4  O    0.000617  -0.004840   0.152646   8.414631   0.256092  -0.050671
     5  C    0.000093  -0.016896  -0.052757   0.256092   4.576926   0.506091
     6  C    0.000000   0.000086   0.002046  -0.050671   0.506091   4.979941
     7  C    0.000000  -0.000007  -0.000122   0.002872  -0.026394   0.468133
     8  C   -0.000000  -0.000035   0.000005  -0.000046  -0.039448  -0.041381
     9  Br  -0.000000   0.000000  -0.000000   0.000000   0.000489   0.001597
    10  C   -0.000005   0.001738  -0.000077   0.002039  -0.012384  -0.021307
    11  C    0.003430  -0.022164   0.025869  -0.042472   0.453243  -0.036233
    12  C   -0.089864   0.258811  -0.184631  -0.010617  -0.006390   0.000568
    13  H    0.006403  -0.024995   0.364322  -0.020960   0.004472   0.000117
    14  H    0.003242  -0.043212   0.356514  -0.022128  -0.001619   0.000403
    15  H   -0.000000   0.000012  -0.000001   0.001311  -0.025303   0.394248
    16  H    0.000000  -0.000000   0.000002  -0.000023   0.002376  -0.014561
    17  H    0.000000   0.000143   0.000005  -0.000016   0.001549   0.000094
    18  H    0.002203  -0.021187   0.004683   0.000065   0.000403  -0.000063
    19  H    0.005487  -0.020020   0.007081   0.000027  -0.000222  -0.000115
               7          8          9         10         11         12
     1  O    0.000000  -0.000000  -0.000000  -0.000005   0.003430  -0.089864
     2  C   -0.000007  -0.000035   0.000000   0.001738  -0.022164   0.258811
     3  C   -0.000122   0.000005  -0.000000  -0.000077   0.025869  -0.184631
     4  O    0.002872  -0.000046   0.000000   0.002039  -0.042472  -0.010617
     5  C   -0.026394  -0.039448   0.000489  -0.012384   0.453243  -0.006390
     6  C    0.468133  -0.041381   0.001597  -0.021307  -0.036233   0.000568
     7  C    4.983863   0.466923  -0.036314  -0.041420  -0.036907   0.000423
     8  C    0.466923   5.034391   0.209040   0.500621  -0.021950   0.000533
     9  Br  -0.036314   0.209040  34.934821  -0.038851   0.002030  -0.000037
    10  C   -0.041420   0.500621  -0.038851   4.931439   0.432119  -0.021672
    11  C   -0.036907  -0.021950   0.002030   0.432119   5.297957   0.150875
    12  C    0.000423   0.000533  -0.000037  -0.021672   0.150875   5.587418
    13  H   -0.000001   0.000000   0.000000   0.000015  -0.001109   0.008092
    14  H   -0.000014  -0.000007   0.000000  -0.000083   0.001914   0.001977
    15  H   -0.020260   0.003249  -0.000052  -0.000484   0.004926  -0.000015
    16  H    0.390686  -0.019399   0.000634   0.002584   0.000047   0.000003
    17  H    0.002544  -0.015719   0.000790   0.387663  -0.016130  -0.004860
    18  H    0.000007   0.000123  -0.000003  -0.005740  -0.020718   0.359041
    19  H    0.000025   0.000110  -0.000004  -0.004842  -0.019481   0.356048
              13         14         15         16         17         18
     1  O    0.006403   0.003242  -0.000000   0.000000   0.000000   0.002203
     2  C   -0.024995  -0.043212   0.000012  -0.000000   0.000143  -0.021187
     3  C    0.364322   0.356514  -0.000001   0.000002   0.000005   0.004683
     4  O   -0.020960  -0.022128   0.001311  -0.000023  -0.000016   0.000065
     5  C    0.004472  -0.001619  -0.025303   0.002376   0.001549   0.000403
     6  C    0.000117   0.000403   0.394248  -0.014561   0.000094  -0.000063
     7  C   -0.000001  -0.000014  -0.020260   0.390686   0.002544   0.000007
     8  C    0.000000  -0.000007   0.003249  -0.019399  -0.015719   0.000123
     9  Br   0.000000   0.000000  -0.000052   0.000634   0.000790  -0.000003
    10  C    0.000015  -0.000083  -0.000484   0.002584   0.387663  -0.005740
    11  C   -0.001109   0.001914   0.004926   0.000047  -0.016130  -0.020718
    12  C    0.008092   0.001977  -0.000015   0.000003  -0.004860   0.359041
    13  H    0.462999  -0.022304  -0.000032  -0.000000  -0.000000  -0.000163
    14  H   -0.022304   0.517141  -0.000005   0.000000  -0.000002  -0.000573
    15  H   -0.000032  -0.000005   0.437159  -0.004218   0.000007   0.000001
    16  H   -0.000000   0.000000  -0.004218   0.426673  -0.000066  -0.000000
    17  H   -0.000000  -0.000002   0.000007  -0.000066   0.434911   0.001359
    18  H   -0.000163  -0.000573   0.000001  -0.000000   0.001359   0.451422
    19  H   -0.000231  -0.000026   0.000002  -0.000000   0.001285  -0.015639
              19
     1  O    0.005487
     2  C   -0.020020
     3  C    0.007081
     4  O    0.000027
     5  C   -0.000222
     6  C   -0.000115
     7  C    0.000025
     8  C    0.000110
     9  Br  -0.000004
    10  C   -0.004842
    11  C   -0.019481
    12  C    0.356048
    13  H   -0.000231
    14  H   -0.000026
    15  H    0.000002
    16  H   -0.000000
    17  H    0.001285
    18  H   -0.015639
    19  H    0.446129
 Mulliken charges:
               1
     1  O   -0.514712
     2  C    0.455238
     3  C   -0.027670
     4  O   -0.678527
     5  C    0.379678
     6  C   -0.188993
     7  C   -0.154038
     8  C   -0.077010
     9  Br  -0.074142
    10  C   -0.111353
    11  C   -0.155245
    12  C   -0.405704
    13  H    0.223374
    14  H    0.208783
    15  H    0.209455
    16  H    0.215260
    17  H    0.206442
    18  H    0.244778
    19  H    0.244387
 Sum of Mulliken charges =  -0.00000
 Mulliken charges with hydrogens summed into heavy atoms:
               1
     1  O   -0.514712
     2  C    0.455238
     3  C    0.404486
     4  O   -0.678527
     5  C    0.379678
     6  C    0.020461
     7  C    0.061222
     8  C   -0.077010
     9  Br  -0.074142
    10  C    0.095089
    11  C   -0.155245
    12  C    0.083460
 Electronic spatial extent (au):  <R**2>=           3586.3523
 Charge=             -0.0000 electrons
 Dipole moment (field-independent basis, Debye):
    X=             -0.3658    Y=              0.4202    Z=              1.0832  Tot=              1.2181
 Quadrupole moment (field-independent basis, Debye-Ang):
   XX=            -88.4457   YY=            -77.3342   ZZ=            -81.4908
   XY=             -3.2643   XZ=             -4.7195   YZ=             -1.0645
 Traceless Quadrupole moment (field-independent basis, Debye-Ang):
   XX=             -6.0222   YY=              5.0894   ZZ=              0.9328
   XY=             -3.2643   XZ=             -4.7195   YZ=             -1.0645
 Octapole moment (field-independent basis, Debye-Ang**2):
  XXX=            120.8760  YYY=             -7.6639  ZZZ=              1.2646  XYY=             40.9165
  XXY=             27.4486  XXZ=             17.5524  XZZ=             18.1101  YZZ=             -7.9422
  YYZ=              0.1331  XYZ=              1.8921
 Hexadecapole moment (field-independent basis, Debye-Ang**3):
 XXXX=          -3375.3698 YYYY=           -629.8571 ZZZZ=           -104.5938 XXXY=           -220.1725
 XXXZ=            -60.3451 YYYX=            -29.4654 YYYZ=             -6.5130 ZZZX=              4.0841
 ZZZY=              2.9463 XXYY=           -689.7834 XXZZ=           -544.0567 YYZZ=           -131.3486
 XXYZ=            -13.9812 YYXZ=             -4.8036 ZZXY=             -7.9894
 N-N= 9.054071553359D+02 E-N=-9.086125043905D+03  KE= 3.049398232854D+03
 Unable to Open any file for archive entry.
 1\1\GINC-DYNAMO\SP\RwB97XD\MIDIx\C9H7Br1O2\RPATON\26-Sep-2024\0\\# wb9
 7xd midix nmr=giao\\energy: -35.049283102289 gnorm: 0.000814436820 xtb
 : 6.7.0 (08769fc)\\0,1\O,0,-4.37067,-1.42627,-0.32442\C,0,-3.39645,-0.
 79225,-0.01818\C,0,-3.4856,0.6535,0.4392\O,0,-2.47146,1.50177,-0.05241
 \C,0,-1.20108,1.01455,-0.04507\C,0,-0.16725,1.94568,-0.13737\C,0,1.148
 68,1.53448,-0.13196\C,0,1.43038,0.18157,-0.02682\Br,0,3.24255,-0.40222
 ,0.00838\C,0,0.41604,-0.7538,0.04273\C,0,-0.91127,-0.34723,0.02434\C,0
 ,-2.00758,-1.37557,0.02085\H,0,-4.43357,1.09186,0.11894\H,0,-3.45797,0
 .64059,1.54209\H,0,-0.4211,2.99033,-0.21291\H,0,1.94791,2.25521,-0.200
 58\H,0,0.65043,-1.80604,0.10146\H,0,-1.94462,-2.00077,0.91954\H,0,-1.8
 9093,-2.05426,-0.82963\\Version=ES64L-G16RevC.01\State=1-A\HF=-3056.60
 69603\RMSD=5.696e-09\Dipole=-0.1422486,0.1623244,0.42788\Quadrupole=-4
 .5073508,3.8014111,0.7059398,-2.3930122,-3.5099818,-0.7558621\PG=C01 [
 X(C9H7Br1O2)]\\@
 The archive entry for this job was punched.


 IN NATURE THERE ARE NEITHER REWARDS OR
 PUNISHMENTS -- THERE ARE CONSEQUENCES.

                            -- ROBERT GREEN INGERSOLL
 Job cpu time:       0 days  0 hours  5 minutes 34.8 seconds.
 Elapsed time:       0 days  0 hours  0 minutes 15.5 seconds.
 File lengths (MBytes):  RWF=     19 Int=      0 D2E=      0 Chk=      3 Scr=      1
 Normal termination of Gaussian 16 at Thu Sep 26 13:20:19 2024.
