 Entering Gaussian System, Link 0=/usr/local/Gaussian/G16C/g16/g16
 Input=nmr/arbr39_xtbopt_nmr.com
 Output=nmr/arbr39_xtbopt_nmr.log
 Initial command:
 /usr/local/Gaussian/G16C/g16/l1.exe "/home/rpaton/opt/xtb/Gau-1320777.inp" -scrdir="/home/rpaton/opt/xtb/"
 Entering Link 1 = /usr/local/Gaussian/G16C/g16/l1.exe PID=   1320778.
  
 Copyright (c) 1988-2019, Gaussian, Inc.  All Rights Reserved.
  
 This is part of the Gaussian(R) 16 program.  It is based on
 the Gaussian(R) 09 system (copyright 2009, Gaussian, Inc.),
 the Gaussian(R) 03 system (copyright 2003, Gaussian, Inc.),
 the Gaussian(R) 98 system (copyright 1998, Gaussian, Inc.),
 the Gaussian(R) 94 system (copyright 1995, Gaussian, Inc.),
 the Gaussian 92(TM) system (copyright 1992, Gaussian, Inc.),
 the Gaussian 90(TM) system (copyright 1990, Gaussian, Inc.),
 the Gaussian 88(TM) system (copyright 1988, Gaussian, Inc.),
 the Gaussian 86(TM) system (copyright 1986, Carnegie Mellon
 University), and the Gaussian 82(TM) system (copyright 1983,
 Carnegie Mellon University). Gaussian is a federally registered
 trademark of Gaussian, Inc.
  
 This software contains proprietary and confidential information,
 including trade secrets, belonging to Gaussian, Inc.
  
 This software is provided under written license and may be
 used, copied, transmitted, or stored only in accord with that
 written license.
  
 The following legend is applicable only to US Government
 contracts under FAR:
  
                    RESTRICTED RIGHTS LEGEND
  
 Use, reproduction and disclosure by the US Government is
 subject to restrictions as set forth in subparagraphs (a)
 and (c) of the Commercial Computer Software - Restricted
 Rights clause in FAR 52.227-19.
  
 Gaussian, Inc.
 340 Quinnipiac St., Bldg. 40, Wallingford CT 06492
  
  
 ---------------------------------------------------------------
 Warning -- This program may not be used in any manner that
 competes with the business of Gaussian, Inc. or will provide
 assistance to any competitor of Gaussian, Inc.  The licensee
 of this program is prohibited from giving any competitor of
 Gaussian, Inc. access to this program.  By using this program,
 the user acknowledges that Gaussian, Inc. is engaged in the
 business of creating and licensing software in the field of
 computational chemistry and represents and warrants to the
 licensee that it is not a competitor of Gaussian, Inc. and that
 it will not use this program in any manner prohibited above.
 ---------------------------------------------------------------
  

 Cite this work as:
 Gaussian 16, Revision C.01,
 M. J. Frisch, G. W. Trucks, H. B. Schlegel, G. E. Scuseria, 
 M. A. Robb, J. R. Cheeseman, G. Scalmani, V. Barone, 
 G. A. Petersson, H. Nakatsuji, X. Li, M. Caricato, A. V. Marenich, 
 J. Bloino, B. G. Janesko, R. Gomperts, B. Mennucci, H. P. Hratchian, 
 J. V. Ortiz, A. F. Izmaylov, J. L. Sonnenberg, D. Williams-Young, 
 F. Ding, F. Lipparini, F. Egidi, J. Goings, B. Peng, A. Petrone, 
 T. Henderson, D. Ranasinghe, V. G. Zakrzewski, J. Gao, N. Rega, 
 G. Zheng, W. Liang, M. Hada, M. Ehara, K. Toyota, R. Fukuda, 
 J. Hasegawa, M. Ishida, T. Nakajima, Y. Honda, O. Kitao, H. Nakai, 
 T. Vreven, K. Throssell, J. A. Montgomery, Jr., J. E. Peralta, 
 F. Ogliaro, M. J. Bearpark, J. J. Heyd, E. N. Brothers, K. N. Kudin, 
 V. N. Staroverov, T. A. Keith, R. Kobayashi, J. Normand, 
 K. Raghavachari, A. P. Rendell, J. C. Burant, S. S. Iyengar, 
 J. Tomasi, M. Cossi, J. M. Millam, M. Klene, C. Adamo, R. Cammi, 
 J. W. Ochterski, R. L. Martin, K. Morokuma, O. Farkas, 
 J. B. Foresman, and D. J. Fox, Gaussian, Inc., Wallingford CT, 2019.
 
 ******************************************
 Gaussian 16:  ES64L-G16RevC.01  3-Jul-2019
                26-Sep-2024 
 ******************************************
 %nprocshared=24
 Will use up to   24 processors via shared memory.
 -----------------------
 # wb97xd midix nmr=giao
 -----------------------
 1/38=1,172=1/1;
 2/12=2,17=6,18=5,40=1/2;
 3/5=20,11=2,25=1,30=1,74=-58/1,2,3,8;
 4//1;
 5/5=2,38=5/2;
 8/6=1,10=90,11=11/1;
 10/13=100,45=16/2;
 6/7=2,8=2,9=2,10=2,28=1/1;
 99/9=1/99;
 -------------------------------------------------------------------
 energy: -39.449151330410 gnorm: 0.000222488892 xtb: 6.7.0 (08769fc)
 -------------------------------------------------------------------
 Symbolic Z-matrix:
 Charge =  0 Multiplicity = 1
 O                     1.80646  -2.16681   0.00003 
 C                     1.66232  -0.96881   0.00009 
 C                     0.39264  -0.22246   0. 
 C                    -0.8986   -0.72816  -0.00005 
 C                    -1.93697   0.18521  -0.00003 
 Br                   -3.73627  -0.44384   0.00002 
 C                    -1.70685   1.55551  -0.00001 
 C                    -0.41025   2.04486   0.00001 
 C                     0.64429   1.1496    0.00002 
 C                     2.11396   1.4321    0. 
 C                     2.78652   0.05376  -0.00001 
 C                     3.87342  -0.187     1.07518 
 C                     4.96299  -0.10283  -0.00001 
 C                     3.87342  -0.18698  -1.07521 
 H                    -1.07281  -1.79289   0. 
 H                    -2.54476   2.23601  -0.00002 
 H                    -0.2359    3.11032  -0.00002 
 H                     2.39247   2.01675   0.87982 
 H                     2.39246   2.01675  -0.87982 
 H                     3.91588   0.55249   1.87236 
 H                     3.78647  -1.18128   1.50926 
 H                     5.69426  -0.90681   0. 
 H                     5.48406   0.85231   0. 
 H                     3.91588   0.55251  -1.87239 
 H                     3.78648  -1.18126  -1.50928 
 
                          Input orientation:                          
 ---------------------------------------------------------------------
 Center     Atomic      Atomic             Coordinates (Angstroms)
 Number     Number       Type             X           Y           Z
 ---------------------------------------------------------------------
      1          8           0        1.806460   -2.166810    0.000030
      2          6           0        1.662320   -0.968810    0.000090
      3          6           0        0.392640   -0.222460    0.000000
      4          6           0       -0.898600   -0.728160   -0.000050
      5          6           0       -1.936970    0.185210   -0.000030
      6         35           0       -3.736270   -0.443840    0.000020
      7          6           0       -1.706850    1.555510   -0.000010
      8          6           0       -0.410250    2.044860    0.000010
      9          6           0        0.644290    1.149600    0.000020
     10          6           0        2.113960    1.432100    0.000000
     11          6           0        2.786520    0.053760   -0.000010
     12          6           0        3.873420   -0.187000    1.075180
     13          6           0        4.962990   -0.102830   -0.000010
     14          6           0        3.873420   -0.186980   -1.075210
     15          1           0       -1.072810   -1.792890    0.000000
     16          1           0       -2.544760    2.236010   -0.000020
     17          1           0       -0.235900    3.110320   -0.000020
     18          1           0        2.392470    2.016750    0.879820
     19          1           0        2.392460    2.016750   -0.879820
     20          1           0        3.915880    0.552490    1.872360
     21          1           0        3.786470   -1.181280    1.509260
     22          1           0        5.694260   -0.906810    0.000000
     23          1           0        5.484060    0.852310    0.000000
     24          1           0        3.915880    0.552510   -1.872390
     25          1           0        3.786480   -1.181260   -1.509280
 ---------------------------------------------------------------------
                    Distance matrix (angstroms):
                    1          2          3          4          5
     1  O    0.000000
     2  C    1.206640   0.000000
     3  C    2.404035   1.472795   0.000000
     4  C    3.063831   2.572202   1.386735   0.000000
     5  C    4.421003   3.779769   2.365011   1.382916   0.000000
     6  Br   5.804350   5.424055   4.134841   2.851878   1.906091
     7  C    5.118497   4.209928   2.751188   2.422482   1.389488
     8  C    4.759408   3.657561   2.405280   2.815693   2.406070
     9  C    3.514145   2.350329   1.394947   2.430328   2.755531
    10  C    3.612023   2.443020   2.387574   3.707053   4.238487
    11  C    2.427231   1.519696   2.409763   3.767162   4.725319
    12  C    3.057437   2.579924   3.643226   4.921499   5.920747
    13  C    3.771431   3.412381   4.571915   5.894852   6.905970
    14  C    3.057481   2.580018   3.643235   4.921486   5.920741
    15  H    2.903448   2.856579   2.147974   1.078888   2.158623
    16  H    6.190149   5.288704   3.830456   3.390597   2.138969
    17  H    5.658563   4.499171   3.391531   3.895266   3.383771
    18  H    4.315045   3.196969   3.128492   4.374911   4.782544
    19  H    4.315056   3.197017   3.128486   4.374883   4.782524
    20  H    3.917890   3.301255   4.064419   5.322143   6.156021
    21  H    2.677589   2.614336   3.836051   4.942997   6.074785
    22  H    4.086880   4.032417   5.345607   6.595280   7.708967
    23  H    4.758133   4.233459   5.203623   6.575427   7.450954
    24  H    3.917947   3.301383   4.064436   5.322123   6.156013
    25  H    2.677649   2.614458   3.836062   4.942980   6.074780
                    6          7          8          9         10
     6  Br   0.000000
     7  C    2.848850   0.000000
     8  C    4.154039   1.385870   0.000000
     9  C    4.661369   2.385922   1.383309   0.000000
    10  C    6.143642   3.822803   2.597520   1.496575   0.000000
    11  C    6.541743   4.737682   3.766141   2.406245   1.533675
    12  C    7.689559   5.944055   4.948436   3.656467   2.621678
    13  C    8.705941   6.872907   5.786560   4.496638   3.236199
    14  C    7.689569   5.944051   4.948438   3.656480   2.621678
    15  H    2.985625   3.407901   3.894523   3.406858   4.533880
    16  H    2.932796   1.079432   2.143052   3.369025   4.727573
    17  H    4.988451   2.140357   1.079631   2.149223   2.887605
    18  H    6.662582   4.217970   2.937702   2.140591   1.092459
    19  H    6.662579   4.217956   2.937699   2.140599   1.092456
    20  H    7.940638   6.010567   4.944519   3.816477   2.743421
    21  H    7.707998   6.320165   5.504387   4.193340   3.450349
    22  H    9.441887   7.799965   6.780664   5.452616   4.276570
    23  H    9.310988   7.225211   6.013740   4.848892   3.419610
    24  H    7.940657   6.010566   4.944531   3.816508   2.743436
    25  H    7.708018   6.320165   5.504394   4.193358   3.450348
                   11         12         13         14         15
    11  C    0.000000
    12  C    1.547692   0.000000
    13  C    2.182096   1.533063   0.000000
    14  C    1.547696   2.150390   1.533069   0.000000
    15  H    4.278381   5.310375   6.267949   5.310387   0.000000
    16  H    5.760622   6.944067   7.863618   6.944059   4.289367
    17  H    4.298556   5.377256   6.111693   5.377242   4.974122
    18  H    2.186940   2.662310   3.445910   3.297238   5.224520
    19  H    2.186934   3.297238   3.445912   2.662301   5.224513
    20  H    2.242756   1.088184   2.243135   3.039208   5.821818
    21  H    2.191602   1.088383   2.196622   2.770501   5.124894
    22  H    3.062294   2.233741   1.086802   2.233761   6.824835
    23  H    2.813255   2.197803   1.088029   2.197808   7.070334
    24  H    2.242769   3.039218   2.243149   1.088184   5.821836
    25  H    2.191595   2.770477   2.196607   1.088379   5.124911
                   16         17         18         19         20
    16  H    0.000000
    17  H    2.468857   0.000000
    18  H    5.019804   2.979655   0.000000
    19  H    5.019787   2.979634   1.759640   0.000000
    20  H    6.933968   5.223560   2.334517   3.469778   0.000000
    21  H    7.351209   6.072497   3.544972   4.228281   1.776104
    22  H    8.818093   7.162690   4.497011   4.497018   2.966129
    23  H    8.147182   6.149516   3.418762   3.418771   2.460653
    24  H    6.933961   5.223547   3.469789   2.334524   3.744750
    25  H    7.351204   6.072484   4.228278   3.544965   3.802384
                   21         22         23         24         25
    21  H    0.000000
    22  H    2.448032   0.000000
    23  H    3.048797   1.771634   0.000000
    24  H    3.802411   2.966158   2.460673   0.000000
    25  H    3.018540   2.448035   3.048788   1.776106   0.000000
 Stoichiometry    C12H11BrO
 Framework group  C1[X(C12H11BrO)]
 Deg. of freedom    69
 Full point group                 C1      NOp   1
 Largest Abelian subgroup         C1      NOp   1
 Largest concise Abelian subgroup C1      NOp   1
                         Standard orientation:                         
 ---------------------------------------------------------------------
 Center     Atomic      Atomic             Coordinates (Angstroms)
 Number     Number       Type             X           Y           Z
 ---------------------------------------------------------------------
      1          8           0       -1.759661   -2.164075   -0.000024
      2          6           0       -1.626812   -0.964770   -0.000084
      3          6           0       -0.364219   -0.206494    0.000006
      4          6           0        0.931727   -0.700009    0.000056
      5          6           0        1.961448    0.223102    0.000036
      6         35           0        3.766593   -0.388972   -0.000014
      7          6           0        1.718431    1.591173    0.000016
      8          6           0        0.417279    2.068288   -0.000004
      9          6           0       -0.628781    1.163135   -0.000014
     10          6           0       -2.101047    1.431779    0.000006
     11          6           0       -2.760594    0.047165    0.000016
     12          6           0       -3.845178   -0.203822   -1.075174
     13          6           0       -4.935493   -0.129918    0.000016
     14          6           0       -3.845178   -0.203802    1.075216
     15          1           0        1.115959   -1.763050    0.000006
     16          1           0        2.549894    2.279535    0.000026
     17          1           0        0.232901    3.132059    0.000026
     18          1           0       -2.385052    2.013780   -0.879814
     19          1           0       -2.385042    2.013780    0.879826
     20          1           0       -3.894602    0.535236   -1.872354
     21          1           0       -3.748867   -1.197239   -1.509254
     22          1           0       -5.659157   -0.940751    0.000006
     23          1           0       -5.465536    0.820271    0.000006
     24          1           0       -3.894602    0.535256    1.872396
     25          1           0       -3.748877   -1.197219    1.509286
 ---------------------------------------------------------------------
 Rotational constants (GHZ):           1.6802535           0.2236325           0.2038877
 Standard basis: MIDIx (5D, 7F)
 There are   174 symmetry adapted cartesian basis functions of A   symmetry.
 There are   171 symmetry adapted basis functions of A   symmetry.
   171 basis functions,   297 primitive gaussians,   174 cartesian basis functions
    63 alpha electrons       63 beta electrons
       nuclear repulsion energy      1116.6305797454 Hartrees.
 NAtoms=   25 NActive=   25 NUniq=   25 SFac= 1.00D+00 NAtFMM=   60 NAOKFM=F Big=F
 Integral buffers will be    131072 words long.
 Raffenetti 2 integral format.
 Two-electron integral symmetry is turned on.
 Nuclear repulsion after empirical dispersion term =     1116.6124888995 Hartrees.
 One-electron integrals computed using PRISM.
 NBasis=   171 RedAO= T EigKep=  9.34D-04  NBF=   171
 NBsUse=   171 1.00D-06 EigRej= -1.00D+00 NBFU=   171
 ExpMin= 1.47D-01 ExpMax= 6.10D+03 ExpMxC= 6.10D+03 IAcc=3 IRadAn=         5 AccDes= 0.00D+00
 Harris functional with IExCor= 4639 and IRadAn=       5 diagonalized for initial guess.
 HarFok:  IExCor= 4639 AccDes= 0.00D+00 IRadAn=         5 IDoV= 1 UseB2=F ITyADJ=14
 ICtDFT=  3500011 ScaDFX=  1.000000  1.000000  1.000000  1.000000
 FoFCou: FMM=F IPFlag=           0 FMFlag=      100000 FMFlg1=           0
         NFxFlg=           0 DoJE=T BraDBF=F KetDBF=T FulRan=T
         wScrn=  0.000000 ICntrl=       500 IOpCl=  0 I1Cent=   200000004 NGrid=           0
         NMat0=    1 NMatS0=      1 NMatT0=    0 NMatD0=    1 NMtDS0=    0 NMtDT0=    0
 Petite list used in FoFCou.
 Requested convergence on RMS density matrix=1.00D-08 within 128 cycles.
 Requested convergence on MAX density matrix=1.00D-06.
 Requested convergence on             energy=1.00D-06.
 No special actions if energy rises.
 Integral accuracy reduced to 1.0D-05 until final iterations.
 Initial convergence to 1.0D-05 achieved.  Increase integral accuracy.
 SCF Done:  E(RwB97XD) =  -3097.83734527     A.U. after   16 cycles
            NFock= 16  Conv=0.37D-08     -V/T= 2.0025
 DoSCS=F DFT=T ScalE2(SS,OS)=  1.000000  1.000000
 Range of M.O.s used for correlation:     1   171
 NBasis=   171 NAE=    63 NBE=    63 NFC=     0 NFV=     0
 NROrb=    171 NOA=    63 NOB=    63 NVA=   108 NVB=   108
          Differentiating once with respect to magnetic field using GIAOs.
          Electric field/nuclear overlap derivatives assumed to be zero.
 FoFCou: FMM=F IPFlag=           0 FMFlag=      100000 FMFlg1=           0
         NFxFlg=           0 DoJE=F BraDBF=F KetDBF=T FulRan=T
         wScrn=  0.000000 ICntrl=      6100 IOpCl=  0 I1Cent=           7 NGrid=          25
         NMat0=    1 NMatS0=      1 NMatT0=    0 NMatD0=    1 NMtDS0=    0 NMtDT0=    0
 Symmetry not used in FoFCou.
 FoFJK:  IHMeth= 1 ICntrl=    6127 DoSepK=T KAlg= 0 I1Cent=           0 FoldK=F
 IRaf=         1 NMat=       1 IRICut=       1 DoRegI=T DoRafI=F ISym2E= 0 IDoP0=0 IntGTp=1.
          There are     3 degrees of freedom in the 1st order CPHF.  IDoFFX=0 NUNeed=     3.
      3 vectors produced by pass  0 Test12= 2.27D-13 3.33D-08 XBig12= 1.85D+01 8.42D-01.
 AX will form     3 AO Fock derivatives at one time.
      3 vectors produced by pass  1 Test12= 2.27D-13 3.33D-08 XBig12= 1.54D-01 1.59D-01.
      3 vectors produced by pass  2 Test12= 2.27D-13 3.33D-08 XBig12= 3.63D-03 2.46D-02.
      3 vectors produced by pass  3 Test12= 2.27D-13 3.33D-08 XBig12= 6.20D-05 1.95D-03.
      3 vectors produced by pass  4 Test12= 2.27D-13 3.33D-08 XBig12= 9.27D-07 2.30D-04.
      3 vectors produced by pass  5 Test12= 2.27D-13 3.33D-08 XBig12= 1.29D-08 2.70D-05.
      3 vectors produced by pass  6 Test12= 2.27D-13 3.33D-08 XBig12= 1.31D-10 2.98D-06.
      3 vectors produced by pass  7 Test12= 2.27D-13 3.33D-08 XBig12= 1.58D-12 4.52D-07.
      2 vectors produced by pass  8 Test12= 2.27D-13 3.33D-08 XBig12= 2.63D-14 6.79D-08.
 InvSVY:  IOpt=1 It=  1 EMax= 8.88D-16
 Solved reduced A of dimension    26 with     3 vectors.
 Calculating GIAO nuclear magnetic shielding tensors.
 SCF GIAO Magnetic shielding tensor (ppm):
      1  O    Isotropic =  -206.3548   Anisotropy =   899.4398
   XX=  -296.3526   YX=  -108.8485   ZX=     0.0082
   XY=   -54.7455   YY=  -715.9837   ZY=     0.0203
   XZ=     0.0098   YZ=     0.0164   ZZ=   393.2717
   Eigenvalues:  -731.3643  -280.9720   393.2717
      2  C    Isotropic =    19.2077   Anisotropy =   114.6864
   XX=   -49.7150   YX=   -22.0038   ZX=     0.0008
   XY=    -6.8032   YY=    11.6729   ZY=    -0.0038
   XZ=     0.0020   YZ=     0.0038   ZZ=    95.6653
   Eigenvalues:   -52.9265    14.8844    95.6653
      3  C    Isotropic =    79.0092   Anisotropy =   140.2815
   XX=    27.4750   YX=   -22.7542   ZX=    -0.0104
   XY=   -40.4818   YY=    37.0224   ZY=    -0.0039
   XZ=    -0.0069   YZ=    -0.0016   ZZ=   172.5302
   Eigenvalues:     0.2724    64.2250   172.5302
      4  C    Isotropic =    85.2357   Anisotropy =   142.5306
   XX=    67.7647   YX=    15.1373   ZX=    -0.0024
   XY=    19.7608   YY=     7.6862   ZY=    -0.0010
   XZ=    -0.0020   YZ=    -0.0088   ZZ=   180.2560
   Eigenvalues:     2.9861    72.4649   180.2560
      5  C    Isotropic =    80.9211   Anisotropy =   108.9423
   XX=    14.2856   YX=    27.5546   ZX=     0.0031
   XY=    30.5879   YY=    74.9284   ZY=    -0.0005
   XZ=     0.0034   YZ=    -0.0026   ZZ=   153.5493
   Eigenvalues:     2.6007    86.6133   153.5493
      6  Br   Isotropic =  2183.2275   Anisotropy =  1195.0788
   XX=  2859.4969   YX=  -356.0791   ZX=    -0.0459
   XY=  -350.1244   YY=  1944.8194   ZY=     0.0214
   XZ=    -0.0134   YZ=    -0.0068   ZZ=  1745.3661
   Eigenvalues:  1745.3661  1824.3696  2979.9467
      7  C    Isotropic =    79.2301   Anisotropy =   144.7851
   XX=    27.0833   YX=   -38.9336   ZX=    -0.0022
   XY=   -43.4158   YY=    34.8535   ZY=     0.0008
   XZ=     0.0013   YZ=     0.0024   ZZ=   175.7536
   Eigenvalues:   -10.3891    72.3260   175.7536
      8  C    Isotropic =    89.0263   Anisotropy =   149.9652
   XX=    73.5472   YX=    12.4251   ZX=    -0.0008
   XY=    14.3585   YY=     4.5286   ZY=    -0.0014
   XZ=    -0.0010   YZ=    -0.0011   ZZ=   189.0031
   Eigenvalues:     2.0213    76.0545   189.0031
      9  C    Isotropic =    67.7252   Anisotropy =   175.8890
   XX=   -10.3721   YX=    11.3518   ZX=    -0.0003
   XY=     8.3030   YY=    28.5631   ZY=    -0.0001
   XZ=    -0.0072   YZ=    -0.0031   ZZ=   184.9845
   Eigenvalues:   -12.7120    30.9030   184.9845
     10  C    Isotropic =   163.5025   Anisotropy =    38.4795
   XX=   170.8401   YX=    18.2292   ZX=     0.0005
   XY=    18.5712   YY=   170.6702   ZY=     0.0005
   XZ=     0.0015   YZ=     0.0004   ZZ=   148.9973
   Eigenvalues:   148.9973   152.3548   189.1556
     11  C    Isotropic =   161.8701   Anisotropy =    22.8518
   XX=   166.3349   YX=    -6.6417   ZX=     0.0001
   XY=   -20.6267   YY=   159.8438   ZY=    -0.0011
   XZ=    -0.0006   YZ=    -0.0033   ZZ=   159.4314
   Eigenvalues:   149.0742   159.4314   177.1046
     12  C    Isotropic =   174.4667   Anisotropy =    36.2979
   XX=   187.1906   YX=     9.3624   ZX=    19.8032
   XY=     6.4425   YY=   165.5994   ZY=    -8.2482
   XZ=    14.9483   YZ=    -1.8054   ZZ=   170.6100
   Eigenvalues:   153.5267   171.2081   198.6652
     13  C    Isotropic =   189.9570   Anisotropy =    16.1770
   XX=   186.9161   YX=     1.4680   ZX=     0.0003
   XY=     6.6742   YY=   182.2133   ZY=    -0.0005
   XZ=    -0.0000   YZ=    -0.0006   ZZ=   200.7417
   Eigenvalues:   179.8633   189.2661   200.7417
     14  C    Isotropic =   174.4657   Anisotropy =    36.2997
   XX=   187.1906   YX=     9.3613   ZX=   -19.8034
   XY=     6.4426   YY=   165.5946   ZY=     8.2468
   XZ=   -14.9482   YZ=     1.8073   ZZ=   170.6120
   Eigenvalues:   153.5259   171.2057   198.6655
     15  H    Isotropic =    25.1456   Anisotropy =     8.4510
   XX=    30.2634   YX=     2.2833   ZX=     0.0001
   XY=     1.0999   YY=    25.2364   ZY=    -0.0002
   XZ=     0.0001   YZ=     0.0000   ZZ=    19.9370
   Eigenvalues:    19.9370    24.7202    30.7796
     16  H    Isotropic =    25.5155   Anisotropy =     7.3383
   XX=    26.7402   YX=    -2.3849   ZX=     0.0000
   XY=    -2.2518   YY=    28.9422   ZY=     0.0000
   XZ=     0.0001   YZ=     0.0001   ZZ=    20.8642
   Eigenvalues:    20.8642    25.2747    30.4077
     17  H    Isotropic =    25.7210   Anisotropy =     4.9878
   XX=    28.7348   YX=     1.2080   ZX=     0.0001
   XY=     0.5850   YY=    26.4648   ZY=    -0.0001
   XZ=     0.0001   YZ=     0.0003   ZZ=    21.9634
   Eigenvalues:    21.9634    26.1534    29.0462
     18  H    Isotropic =    29.7350   Anisotropy =     6.8523
   XX=    30.4222   YX=     1.1931   ZX=     1.0301
   XY=     0.2239   YY=    31.0242   ZY=    -3.3271
   XZ=     3.6148   YZ=    -5.5796   ZZ=    27.7585
   Eigenvalues:    23.8319    31.0698    34.3032
     19  H    Isotropic =    29.7351   Anisotropy =     6.8524
   XX=    30.4222   YX=     1.1931   ZX=    -1.0301
   XY=     0.2239   YY=    31.0243   ZY=     3.3271
   XZ=    -3.6152   YZ=     5.5795   ZZ=    27.7587
   Eigenvalues:    23.8319    31.0699    34.3033
     20  H    Isotropic =    31.1888   Anisotropy =     9.0108
   XX=    29.6726   YX=    -0.2112   ZX=     1.8407
   XY=     0.6370   YY=    28.4989   ZY=    -1.9364
   XZ=     3.1568   YZ=    -4.0154   ZZ=    35.3950
   Eigenvalues:    26.8838    29.4866    37.1960
     21  H    Isotropic =    30.2720   Anisotropy =     6.9591
   XX=    29.3947   YX=     0.8411   ZX=     0.7394
   XY=     0.4778   YY=    30.5672   ZY=     2.8290
   XZ=     1.6707   YZ=     4.9286   ZZ=    30.8542
   Eigenvalues:    26.7747    29.1299    34.9114
     22  H    Isotropic =    31.2093   Anisotropy =    11.3176
   XX=    36.3796   YX=     5.1182   ZX=    -0.0001
   XY=     3.8424   YY=    30.3017   ZY=     0.0001
   XZ=    -0.0000   YZ=     0.0000   ZZ=    26.9466
   Eigenvalues:    26.9466    27.9269    38.7544
     23  H    Isotropic =    30.7913   Anisotropy =     9.1557
   XX=    34.3565   YX=    -4.8796   ZX=     0.0000
   XY=    -2.9622   YY=    30.8396   ZY=    -0.0001
   XZ=     0.0000   YZ=    -0.0002   ZZ=    27.1780
   Eigenvalues:    27.1780    28.3009    36.8952
     24  H    Isotropic =    31.1888   Anisotropy =     9.0112
   XX=    29.6726   YX=    -0.2112   ZX=    -1.8408
   XY=     0.6370   YY=    28.4985   ZY=     1.9363
   XZ=    -3.1569   YZ=     4.0157   ZZ=    35.3951
   Eigenvalues:    26.8835    29.4865    37.1962
     25  H    Isotropic =    30.2720   Anisotropy =     6.9593
   XX=    29.3945   YX=     0.8412   ZX=    -0.7395
   XY=     0.4779   YY=    30.5670   ZY=    -2.8291
   XZ=    -1.6706   YZ=    -4.9286   ZZ=    30.8544
   Eigenvalues:    26.7747    29.1297    34.9115
 End of Minotr F.D. properties file   721 does not exist.
 End of Minotr F.D. properties file   722 does not exist.
 End of Minotr F.D. properties file   788 does not exist.

 **********************************************************************

            Population analysis using the SCF Density.

 **********************************************************************

 Orbital symmetries:
       Occupied  (A) (A) (A) (A) (A) (A) (A) (A) (A) (A) (A) (A)
                 (A) (A) (A) (A) (A) (A) (A) (A) (A) (A) (A) (A)
                 (A) (A) (A) (A) (A) (A) (A) (A) (A) (A) (A) (A)
                 (A) (A) (A) (A) (A) (A) (A) (A) (A) (A) (A) (A)
                 (A) (A) (A) (A) (A) (A) (A) (A) (A) (A) (A) (A)
                 (A) (A) (A)
       Virtual   (A) (A) (A) (A) (A) (A) (A) (A) (A) (A) (A) (A)
                 (A) (A) (A) (A) (A) (A) (A) (A) (A) (A) (A) (A)
                 (A) (A) (A) (A) (A) (A) (A) (A) (A) (A) (A) (A)
                 (A) (A) (A) (A) (A) (A) (A) (A) (A) (A) (A) (A)
                 (A) (A) (A) (A) (A) (A) (A) (A) (A) (A) (A) (A)
                 (A) (A) (A) (A) (A) (A) (A) (A) (A) (A) (A) (A)
                 (A) (A) (A) (A) (A) (A) (A) (A) (A) (A) (A) (A)
                 (A) (A) (A) (A) (A) (A) (A) (A) (A) (A) (A) (A)
                 (A) (A) (A) (A) (A) (A) (A) (A) (A) (A) (A) (A)
 The electronic state is 1-A.
 Alpha  occ. eigenvalues -- -480.14914 -62.58301 -56.17201 -56.16772 -56.16759
 Alpha  occ. eigenvalues --  -19.14404 -10.31930 -10.30144 -10.26418 -10.26200
 Alpha  occ. eigenvalues --  -10.26118 -10.25607 -10.25116 -10.25104 -10.24853
 Alpha  occ. eigenvalues --  -10.23387 -10.23351 -10.22830  -8.89143  -6.67630
 Alpha  occ. eigenvalues --   -6.66194  -6.66181  -2.77935  -2.77438  -2.77419
 Alpha  occ. eigenvalues --   -2.76238  -2.76234  -1.15268  -1.01467  -0.98278
 Alpha  occ. eigenvalues --   -0.93671  -0.89209  -0.87158  -0.80821  -0.78894
 Alpha  occ. eigenvalues --   -0.77313  -0.73532  -0.70003  -0.66756  -0.62491
 Alpha  occ. eigenvalues --   -0.59456  -0.58869  -0.58483  -0.55683  -0.55327
 Alpha  occ. eigenvalues --   -0.54445  -0.53078  -0.50574  -0.49941  -0.48364
 Alpha  occ. eigenvalues --   -0.48276  -0.46412  -0.46208  -0.43824  -0.43300
 Alpha  occ. eigenvalues --   -0.41413  -0.39723  -0.39589  -0.38493  -0.36597
 Alpha  occ. eigenvalues --   -0.35014  -0.32121  -0.31777
 Alpha virt. eigenvalues --    0.01015   0.05155   0.08534   0.12031   0.16009
 Alpha virt. eigenvalues --    0.18384   0.19581   0.19774   0.21081   0.23527
 Alpha virt. eigenvalues --    0.23528   0.24962   0.26208   0.26535   0.26666
 Alpha virt. eigenvalues --    0.28467   0.29258   0.30918   0.31340   0.34550
 Alpha virt. eigenvalues --    0.35575   0.37088   0.37324   0.38430   0.41677
 Alpha virt. eigenvalues --    0.44578   0.47240   0.50102   0.51407   0.54667
 Alpha virt. eigenvalues --    0.55831   0.59064   0.59564   0.61364   0.64106
 Alpha virt. eigenvalues --    0.64175   0.64728   0.66363   0.67463   0.69156
 Alpha virt. eigenvalues --    0.71481   0.71605   0.74119   0.76305   0.77146
 Alpha virt. eigenvalues --    0.78670   0.80427   0.80760   0.84247   0.84769
 Alpha virt. eigenvalues --    0.84924   0.85196   0.87564   0.89213   0.89408
 Alpha virt. eigenvalues --    0.92042   0.92796   0.94908   0.95916   0.96580
 Alpha virt. eigenvalues --    0.96844   0.97248   0.98569   0.99842   1.00362
 Alpha virt. eigenvalues --    1.00559   1.01583   1.02394   1.03871   1.04803
 Alpha virt. eigenvalues --    1.05264   1.06175   1.06967   1.07383   1.09137
 Alpha virt. eigenvalues --    1.09232   1.11877   1.12276   1.12558   1.15319
 Alpha virt. eigenvalues --    1.17931   1.19680   1.22063   1.23773   1.28702
 Alpha virt. eigenvalues --    1.29767   1.32806   1.36829   1.39017   1.41537
 Alpha virt. eigenvalues --    1.44634   1.50134   1.59032   1.63808   1.65566
 Alpha virt. eigenvalues --    1.67912   1.70303   1.75549   1.78818   1.82843
 Alpha virt. eigenvalues --    1.90264   1.93091   1.99411   1.99475   2.06252
 Alpha virt. eigenvalues --    2.17845   2.39093   3.12285
          Condensed to atoms (all electrons):
               1          2          3          4          5          6
     1  O    8.138212   0.567865  -0.083856  -0.004049   0.000220   0.000000
     2  C    0.567865   4.449846   0.240945  -0.000404   0.002203  -0.000018
     3  C   -0.083856   0.240945   5.509323   0.429192  -0.017967   0.002455
     4  C   -0.004049  -0.000404   0.429192   4.909436   0.460901  -0.040608
     5  C    0.000220   0.002203  -0.017967   0.460901   5.077154   0.212918
     6  Br   0.000000  -0.000018   0.002455  -0.040608   0.212918  34.926327
     7  C   -0.000008   0.000431  -0.041333  -0.032564   0.460465  -0.039912
     8  C    0.000001   0.000840  -0.025430  -0.024462  -0.026434   0.001862
     9  C    0.002210  -0.012518   0.400457  -0.019620  -0.052533   0.000407
    10  C    0.002792  -0.042365  -0.012664   0.000541   0.000557   0.000002
    11  C   -0.092426   0.222870  -0.237510   0.001264   0.000214   0.000001
    12  C    0.002917  -0.036147   0.008461   0.000004  -0.000000  -0.000000
    13  C   -0.001338   0.016226  -0.001503  -0.000003   0.000000   0.000000
    14  C    0.002915  -0.036126   0.008458   0.000004  -0.000000  -0.000000
    15  H    0.006106  -0.001206  -0.018892   0.377473  -0.013645   0.000813
    16  H    0.000000   0.000002   0.000049   0.002565  -0.021816   0.001026
    17  H    0.000000  -0.000058   0.002935  -0.000134   0.002929  -0.000054
    18  H   -0.000031   0.001665  -0.000100  -0.000058   0.000010  -0.000000
    19  H   -0.000031   0.001666  -0.000102  -0.000058   0.000010  -0.000000
    20  H    0.000039   0.001968  -0.000126  -0.000000  -0.000000   0.000000
    21  H    0.008178  -0.002471   0.002285   0.000021  -0.000001  -0.000000
    22  H    0.000079  -0.000589   0.000022   0.000000  -0.000000  -0.000000
    23  H   -0.000004  -0.000417   0.000023  -0.000000   0.000000  -0.000000
    24  H    0.000039   0.001967  -0.000126  -0.000000  -0.000000   0.000000
    25  H    0.008178  -0.002473   0.002285   0.000021  -0.000001  -0.000000
               7          8          9         10         11         12
     1  O   -0.000008   0.000001   0.002210   0.002792  -0.092426   0.002917
     2  C    0.000431   0.000840  -0.012518  -0.042365   0.222870  -0.036147
     3  C   -0.041333  -0.025430   0.400457  -0.012664  -0.237510   0.008461
     4  C   -0.032564  -0.024462  -0.019620   0.000541   0.001264   0.000004
     5  C    0.460465  -0.026434  -0.052533   0.000557   0.000214  -0.000000
     6  Br  -0.039912   0.001862   0.000407   0.000002   0.000001  -0.000000
     7  C    4.959235   0.495301  -0.026207   0.000533  -0.000353   0.000003
     8  C    0.495301   4.885647   0.463865   0.002444   0.002810  -0.000019
     9  C   -0.026207   0.463865   5.138530   0.290381  -0.048697   0.002388
    10  C    0.000533   0.002444   0.290381   5.169774   0.165035  -0.029099
    11  C   -0.000353   0.002810  -0.048697   0.165035   6.398924   0.182688
    12  C    0.000003  -0.000019   0.002388  -0.029099   0.182688   5.294555
    13  C   -0.000000   0.000003  -0.000329   0.010700  -0.216688   0.322285
    14  C    0.000003  -0.000019   0.002387  -0.029096   0.182680  -0.209652
    15  H    0.001789   0.000075   0.002732  -0.000173   0.000751  -0.000009
    16  H    0.393826  -0.017919   0.003061  -0.000020   0.000001  -0.000000
    17  H   -0.021655   0.399726  -0.022996  -0.004731   0.000185  -0.000003
    18  H    0.000043  -0.004685  -0.026525   0.383374  -0.024071  -0.006056
    19  H    0.000043  -0.004685  -0.026522   0.383379  -0.024075   0.002471
    20  H   -0.000000  -0.000012   0.000375  -0.008311  -0.023405   0.378153
    21  H    0.000000  -0.000001  -0.000495   0.004478  -0.044692   0.389078
    22  H    0.000000  -0.000000   0.000004  -0.000398   0.013638  -0.028585
    23  H    0.000000  -0.000000   0.000011   0.000494   0.006821  -0.031661
    24  H   -0.000000  -0.000012   0.000375  -0.008310  -0.023403   0.011238
    25  H    0.000000  -0.000001  -0.000495   0.004478  -0.044687   0.011565
              13         14         15         16         17         18
     1  O   -0.001338   0.002915   0.006106   0.000000   0.000000  -0.000031
     2  C    0.016226  -0.036126  -0.001206   0.000002  -0.000058   0.001665
     3  C   -0.001503   0.008458  -0.018892   0.000049   0.002935  -0.000100
     4  C   -0.000003   0.000004   0.377473   0.002565  -0.000134  -0.000058
     5  C    0.000000  -0.000000  -0.013645  -0.021816   0.002929   0.000010
     6  Br   0.000000  -0.000000   0.000813   0.001026  -0.000054  -0.000000
     7  C   -0.000000   0.000003   0.001789   0.393826  -0.021655   0.000043
     8  C    0.000003  -0.000019   0.000075  -0.017919   0.399726  -0.004685
     9  C   -0.000329   0.002387   0.002732   0.003061  -0.022996  -0.026525
    10  C    0.010700  -0.029096  -0.000173  -0.000020  -0.004731   0.383374
    11  C   -0.216688   0.182680   0.000751   0.000001   0.000185  -0.024071
    12  C    0.322285  -0.209652  -0.000009  -0.000000  -0.000003  -0.006056
    13  C    5.281715   0.322291   0.000001   0.000000   0.000000  -0.000135
    14  C    0.322291   5.294537  -0.000009  -0.000000  -0.000003   0.002471
    15  H    0.000001  -0.000009   0.416056  -0.000047   0.000008   0.000004
    16  H    0.000000  -0.000000  -0.000047   0.426834  -0.003967  -0.000000
    17  H    0.000000  -0.000003   0.000008  -0.003967   0.444831   0.001045
    18  H   -0.000135   0.002471   0.000004  -0.000000   0.001045   0.479153
    19  H   -0.000135  -0.006055   0.000004  -0.000000   0.001045  -0.023554
    20  H   -0.026802   0.011239   0.000000  -0.000000   0.000001   0.005887
    21  H   -0.036455   0.011565  -0.000008   0.000000  -0.000000   0.000091
    22  H    0.386787  -0.028583  -0.000000  -0.000000  -0.000000   0.000011
    23  H    0.388572  -0.031662  -0.000000  -0.000000   0.000000  -0.000061
    24  H   -0.026801   0.378155   0.000000  -0.000000   0.000001   0.000064
    25  H   -0.036456   0.389071  -0.000008   0.000000  -0.000000  -0.000159
              19         20         21         22         23         24
     1  O   -0.000031   0.000039   0.008178   0.000079  -0.000004   0.000039
     2  C    0.001666   0.001968  -0.002471  -0.000589  -0.000417   0.001967
     3  C   -0.000102  -0.000126   0.002285   0.000022   0.000023  -0.000126
     4  C   -0.000058  -0.000000   0.000021   0.000000  -0.000000  -0.000000
     5  C    0.000010  -0.000000  -0.000001  -0.000000   0.000000  -0.000000
     6  Br  -0.000000   0.000000  -0.000000  -0.000000  -0.000000   0.000000
     7  C    0.000043  -0.000000   0.000000   0.000000   0.000000  -0.000000
     8  C   -0.004685  -0.000012  -0.000001  -0.000000  -0.000000  -0.000012
     9  C   -0.026522   0.000375  -0.000495   0.000004   0.000011   0.000375
    10  C    0.383379  -0.008311   0.004478  -0.000398   0.000494  -0.008310
    11  C   -0.024075  -0.023405  -0.044692   0.013638   0.006821  -0.023403
    12  C    0.002471   0.378153   0.389078  -0.028585  -0.031661   0.011238
    13  C   -0.000135  -0.026802  -0.036455   0.386787   0.388572  -0.026801
    14  C   -0.006055   0.011239   0.011565  -0.028583  -0.031662   0.378155
    15  H    0.000004   0.000000  -0.000008  -0.000000  -0.000000   0.000000
    16  H   -0.000000  -0.000000   0.000000  -0.000000  -0.000000  -0.000000
    17  H    0.001045   0.000001  -0.000000  -0.000000   0.000000   0.000001
    18  H   -0.023554   0.005887   0.000091   0.000011  -0.000061   0.000064
    19  H    0.479147   0.000064  -0.000159   0.000011  -0.000061   0.005887
    20  H    0.000064   0.495874  -0.019716   0.001667  -0.006283  -0.000500
    21  H   -0.000159  -0.019716   0.477185  -0.004925   0.002991  -0.000431
    22  H    0.000011   0.001667  -0.004925   0.488196  -0.022331   0.001667
    23  H   -0.000061  -0.006283   0.002991  -0.022331   0.499783  -0.006282
    24  H    0.005887  -0.000500  -0.000431   0.001667  -0.006282   0.495866
    25  H    0.000091  -0.000432   0.000637  -0.004925   0.002991  -0.019715
              25
     1  O    0.008178
     2  C   -0.002473
     3  C    0.002285
     4  C    0.000021
     5  C   -0.000001
     6  Br  -0.000000
     7  C    0.000000
     8  C   -0.000001
     9  C   -0.000495
    10  C    0.004478
    11  C   -0.044687
    12  C    0.011565
    13  C   -0.036456
    14  C    0.389071
    15  H   -0.000008
    16  H    0.000000
    17  H   -0.000000
    18  H   -0.000159
    19  H    0.000091
    20  H   -0.000432
    21  H    0.000637
    22  H   -0.004925
    23  H    0.002991
    24  H   -0.019715
    25  H    0.477189
 Mulliken charges:
               1
     1  O   -0.558009
     2  C    0.626299
     3  C   -0.167282
     4  C   -0.059463
     5  C   -0.085185
     6  Br  -0.065218
     7  C   -0.149638
     8  C   -0.148895
     9  C   -0.070244
    10  C   -0.283794
    11  C   -0.397875
    12  C   -0.264575
    13  C   -0.381938
    14  C   -0.264571
    15  H    0.228185
    16  H    0.216407
    17  H    0.200896
    18  H    0.211616
    19  H    0.211619
    20  H    0.190320
    21  H    0.212844
    22  H    0.198255
    23  H    0.197076
    24  H    0.190324
    25  H    0.212845
 Sum of Mulliken charges =  -0.00000
 Mulliken charges with hydrogens summed into heavy atoms:
               1
     1  O   -0.558009
     2  C    0.626299
     3  C   -0.167282
     4  C    0.168722
     5  C   -0.085185
     6  Br  -0.065218
     7  C    0.066769
     8  C    0.052002
     9  C   -0.070244
    10  C    0.139441
    11  C   -0.397875
    12  C    0.138589
    13  C    0.013394
    14  C    0.138598
 Electronic spatial extent (au):  <R**2>=           4830.5324
 Charge=             -0.0000 electrons
 Dipole moment (field-independent basis, Debye):
    X=             -1.2969    Y=              3.1750    Z=             -0.0000  Tot=              3.4297
 Quadrupole moment (field-independent basis, Debye-Ang):
   XX=            -91.1319   YY=            -92.2646   ZZ=            -95.2346
   XY=             -3.8109   XZ=             -0.0001   YZ=              0.0003
 Traceless Quadrupole moment (field-independent basis, Debye-Ang):
   XX=              1.7452   YY=              0.6124   ZZ=             -2.3576
   XY=             -3.8109   XZ=             -0.0001   YZ=              0.0003
 Octapole moment (field-independent basis, Debye-Ang**2):
  XXX=            105.0456  YYY=              5.0122  ZZZ=             -0.0006  XYY=             49.8662
  XXY=              1.1189  XXZ=             -0.0002  XZZ=             32.2993  YZZ=             -9.1827
  YYZ=              0.0003  XYZ=             -0.0000
 Hexadecapole moment (field-independent basis, Debye-Ang**3):
 XXXX=          -4603.4531 YYYY=           -726.2338 ZZZZ=           -223.7810 XXXY=            -50.1468
 XXXZ=             -0.0017 YYYX=            -51.9589 YYYZ=             -0.0014 ZZZX=              0.0018
 ZZZY=             -0.0020 XXYY=           -883.5394 XXZZ=           -829.3289 YYZZ=           -161.0172
 XXYZ=              0.0012 YYXZ=              0.0006 ZZXY=            -15.6752
 N-N= 1.116612488900D+03 E-N=-9.600354407274D+03  KE= 3.090175753321D+03
 Unable to Open any file for archive entry.
 1\1\GINC-DYNAMO\SP\RwB97XD\MIDIx\C12H11Br1O1\RPATON\26-Sep-2024\0\\# w
 b97xd midix nmr=giao\\energy: -39.449151330410 gnorm: 0.000222488892 x
 tb: 6.7.0 (08769fc)\\0,1\O,0,1.80646,-2.16681,0.00003\C,0,1.66232,-0.9
 6881,0.00009\C,0,0.39264,-0.22246,0.\C,0,-0.8986,-0.72816,-0.00005\C,0
 ,-1.93697,0.18521,-0.00003\Br,0,-3.73627,-0.44384,0.00002\C,0,-1.70685
 ,1.55551,-0.00001\C,0,-0.41025,2.04486,0.00001\C,0,0.64429,1.1496,0.00
 002\C,0,2.11396,1.4321,0.\C,0,2.78652,0.05376,-0.00001\C,0,3.87342,-0.
 187,1.07518\C,0,4.96299,-0.10283,-0.00001\C,0,3.87342,-0.18698,-1.0752
 1\H,0,-1.07281,-1.79289,0.\H,0,-2.54476,2.23601,-0.00002\H,0,-0.2359,3
 .11032,-0.00002\H,0,2.39247,2.01675,0.87982\H,0,2.39246,2.01675,-0.879
 82\H,0,3.91588,0.55249,1.87236\H,0,3.78647,-1.18128,1.50926\H,0,5.6942
 6,-0.90681,0.\H,0,5.48406,0.85231,0.\H,0,3.91588,0.55251,-1.87239\H,0,
 3.78648,-1.18126,-1.50928\\Version=ES64L-G16RevC.01\State=1-A\HF=-3097
 .8373453\RMSD=3.702e-09\Dipole=0.498442,1.2539023,0.0000149\Quadrupole
 =1.2440283,0.5087717,-1.7528,2.8407729,-0.0000753,-0.0002332\PG=C01 [X
 (C12H11Br1O1)]\\@
 The archive entry for this job was punched.


 KNOWLEDGE IS OF TWO KINDS:  WE KNOW A SUBJECT OURSELVES OR WE KNOW 
 WHERE WE CAN FIND INFORMATION UPON IT.

                                    -- SAMUEL JOHNSON
 Job cpu time:       0 days  0 hours  7 minutes 59.1 seconds.
 Elapsed time:       0 days  0 hours  0 minutes 22.5 seconds.
 File lengths (MBytes):  RWF=     21 Int=      0 D2E=      0 Chk=      3 Scr=      1
 Normal termination of Gaussian 16 at Thu Sep 26 13:18:00 2024.
