 Entering Gaussian System, Link 0=/usr/local/Gaussian/G16C/g16/g16
 Input=nmr/arbr34_xtbopt_nmr.com
 Output=nmr/arbr34_xtbopt_nmr.log
 Initial command:
 /usr/local/Gaussian/G16C/g16/l1.exe "/home/rpaton/opt/xtb/Gau-1302713.inp" -scrdir="/home/rpaton/opt/xtb/"
 Entering Link 1 = /usr/local/Gaussian/G16C/g16/l1.exe PID=   1302714.
  
 Copyright (c) 1988-2019, Gaussian, Inc.  All Rights Reserved.
  
 This is part of the Gaussian(R) 16 program.  It is based on
 the Gaussian(R) 09 system (copyright 2009, Gaussian, Inc.),
 the Gaussian(R) 03 system (copyright 2003, Gaussian, Inc.),
 the Gaussian(R) 98 system (copyright 1998, Gaussian, Inc.),
 the Gaussian(R) 94 system (copyright 1995, Gaussian, Inc.),
 the Gaussian 92(TM) system (copyright 1992, Gaussian, Inc.),
 the Gaussian 90(TM) system (copyright 1990, Gaussian, Inc.),
 the Gaussian 88(TM) system (copyright 1988, Gaussian, Inc.),
 the Gaussian 86(TM) system (copyright 1986, Carnegie Mellon
 University), and the Gaussian 82(TM) system (copyright 1983,
 Carnegie Mellon University). Gaussian is a federally registered
 trademark of Gaussian, Inc.
  
 This software contains proprietary and confidential information,
 including trade secrets, belonging to Gaussian, Inc.
  
 This software is provided under written license and may be
 used, copied, transmitted, or stored only in accord with that
 written license.
  
 The following legend is applicable only to US Government
 contracts under FAR:
  
                    RESTRICTED RIGHTS LEGEND
  
 Use, reproduction and disclosure by the US Government is
 subject to restrictions as set forth in subparagraphs (a)
 and (c) of the Commercial Computer Software - Restricted
 Rights clause in FAR 52.227-19.
  
 Gaussian, Inc.
 340 Quinnipiac St., Bldg. 40, Wallingford CT 06492
  
  
 ---------------------------------------------------------------
 Warning -- This program may not be used in any manner that
 competes with the business of Gaussian, Inc. or will provide
 assistance to any competitor of Gaussian, Inc.  The licensee
 of this program is prohibited from giving any competitor of
 Gaussian, Inc. access to this program.  By using this program,
 the user acknowledges that Gaussian, Inc. is engaged in the
 business of creating and licensing software in the field of
 computational chemistry and represents and warrants to the
 licensee that it is not a competitor of Gaussian, Inc. and that
 it will not use this program in any manner prohibited above.
 ---------------------------------------------------------------
  

 Cite this work as:
 Gaussian 16, Revision C.01,
 M. J. Frisch, G. W. Trucks, H. B. Schlegel, G. E. Scuseria, 
 M. A. Robb, J. R. Cheeseman, G. Scalmani, V. Barone, 
 G. A. Petersson, H. Nakatsuji, X. Li, M. Caricato, A. V. Marenich, 
 J. Bloino, B. G. Janesko, R. Gomperts, B. Mennucci, H. P. Hratchian, 
 J. V. Ortiz, A. F. Izmaylov, J. L. Sonnenberg, D. Williams-Young, 
 F. Ding, F. Lipparini, F. Egidi, J. Goings, B. Peng, A. Petrone, 
 T. Henderson, D. Ranasinghe, V. G. Zakrzewski, J. Gao, N. Rega, 
 G. Zheng, W. Liang, M. Hada, M. Ehara, K. Toyota, R. Fukuda, 
 J. Hasegawa, M. Ishida, T. Nakajima, Y. Honda, O. Kitao, H. Nakai, 
 T. Vreven, K. Throssell, J. A. Montgomery, Jr., J. E. Peralta, 
 F. Ogliaro, M. J. Bearpark, J. J. Heyd, E. N. Brothers, K. N. Kudin, 
 V. N. Staroverov, T. A. Keith, R. Kobayashi, J. Normand, 
 K. Raghavachari, A. P. Rendell, J. C. Burant, S. S. Iyengar, 
 J. Tomasi, M. Cossi, J. M. Millam, M. Klene, C. Adamo, R. Cammi, 
 J. W. Ochterski, R. L. Martin, K. Morokuma, O. Farkas, 
 J. B. Foresman, and D. J. Fox, Gaussian, Inc., Wallingford CT, 2019.
 
 ******************************************
 Gaussian 16:  ES64L-G16RevC.01  3-Jul-2019
                26-Sep-2024 
 ******************************************
 %nprocshared=24
 Will use up to   24 processors via shared memory.
 -----------------------
 # wb97xd midix nmr=giao
 -----------------------
 1/38=1,172=1/1;
 2/12=2,17=6,18=5,40=1/2;
 3/5=20,11=2,25=1,30=1,74=-58/1,2,3,8;
 4//1;
 5/5=2,38=5/2;
 8/6=1,10=90,11=11/1;
 10/13=100,45=16/2;
 6/7=2,8=2,9=2,10=2,28=1/1;
 99/9=1/99;
 -------------------------------------------------------------------
 energy: -36.515935481572 gnorm: 0.000782190493 xtb: 6.7.0 (08769fc)
 -------------------------------------------------------------------
 Symbolic Z-matrix:
 Charge =  0 Multiplicity = 1
 Br                    3.81427  -0.10734   0.00001 
 C                     1.92224   0.14786   0.00001 
 C                     1.41994   1.44007   0. 
 C                     0.05064   1.64485  -0.00001 
 C                    -0.79269   0.54462   0. 
 C                    -0.2654   -0.75758   0.00001 
 C                     1.09674  -0.96773   0.00001 
 C                    -1.37291  -1.7686    0.00002 
 C                    -2.60087  -0.90514   0.00001 
 C                    -3.92844  -1.27823   0.00001 
 C                    -4.89984  -0.28654  -0.00001 
 C                    -4.54677   1.05512  -0.00001 
 C                    -3.21601   1.43872  -0.00001 
 C                    -2.24257   0.4522    0. 
 H                     2.09902   2.27896  -0.00001 
 H                    -0.34595   2.64859  -0.00002 
 H                     1.51605  -1.96257   0.00003 
 H                    -1.33053  -2.41484  -0.88042 
 H                    -1.33053  -2.41482   0.88046 
 H                    -4.21017  -2.32134   0.00001 
 H                    -5.94384  -0.56324   0. 
 H                    -5.32047   1.80892  -0.00002 
 H                    -2.944     2.48365  -0.00002 
 
                          Input orientation:                          
 ---------------------------------------------------------------------
 Center     Atomic      Atomic             Coordinates (Angstroms)
 Number     Number       Type             X           Y           Z
 ---------------------------------------------------------------------
      1         35           0        3.814270   -0.107340    0.000010
      2          6           0        1.922240    0.147860    0.000010
      3          6           0        1.419940    1.440070    0.000000
      4          6           0        0.050640    1.644850   -0.000010
      5          6           0       -0.792690    0.544620    0.000000
      6          6           0       -0.265400   -0.757580    0.000010
      7          6           0        1.096740   -0.967730    0.000010
      8          6           0       -1.372910   -1.768600    0.000020
      9          6           0       -2.600870   -0.905140    0.000010
     10          6           0       -3.928440   -1.278230    0.000010
     11          6           0       -4.899840   -0.286540   -0.000010
     12          6           0       -4.546770    1.055120   -0.000010
     13          6           0       -3.216010    1.438720   -0.000010
     14          6           0       -2.242570    0.452200    0.000000
     15          1           0        2.099020    2.278960   -0.000010
     16          1           0       -0.345950    2.648590   -0.000020
     17          1           0        1.516050   -1.962570    0.000030
     18          1           0       -1.330530   -2.414840   -0.880420
     19          1           0       -1.330530   -2.414820    0.880460
     20          1           0       -4.210170   -2.321340    0.000010
     21          1           0       -5.943840   -0.563240    0.000000
     22          1           0       -5.320470    1.808920   -0.000020
     23          1           0       -2.944000    2.483650   -0.000020
 ---------------------------------------------------------------------
                    Distance matrix (angstroms):
                    1          2          3          4          5
     1  Br   0.000000
     2  C    1.909163   0.000000
     3  C    2.850841   1.386403   0.000000
     4  C    4.151515   2.396636   1.384528   0.000000
     5  C    4.652863   2.743768   2.386957   1.386258   0.000000
     6  C    4.131164   2.367613   2.769483   2.423128   1.404906
     7  C    2.850481   1.387801   2.429395   2.814232   2.420155
     8  C    5.446707   3.811933   4.253889   3.698396   2.384878
     9  C    6.464558   4.644064   4.654774   3.678716   2.317611
    10  C    7.830743   6.021976   5.999527   4.937355   3.627080
    11  C    8.715952   6.835896   6.551397   5.313899   4.190407
    12  C    8.441463   6.532320   5.979115   4.635079   3.788631
    13  C    7.198273   5.297918   4.635950   3.273147   2.583001
    14  C    6.082631   4.175915   3.793398   2.584807   1.452823
    15  H    2.938794   2.138420   1.079299   2.144285   3.371931
    16  H    4.990249   3.376142   2.139834   1.079249   2.150876
    17  H    2.953590   2.149164   3.403997   3.893701   3.408267
    18  H    5.706898   4.233568   4.816696   4.377652   3.134137
    19  H    5.706893   4.233560   4.816687   4.377645   3.134129
    20  H    8.324268   6.610855   6.770993   5.821097   4.460145
    21  H    9.768754   7.898157   7.631416   6.388228   5.268937
    22  H    9.333570   7.430745   6.750495   5.373615   4.700984
    23  H    7.237917   5.397796   4.486985   3.109896   2.896200
                    6          7          8          9         10
     6  C    0.000000
     7  C    1.378256   0.000000
     8  C    1.499580   2.596260   0.000000
     9  C    2.340127   3.698140   1.501149   0.000000
    10  C    3.699857   5.034764   2.602152   1.378999   0.000000
    11  C    4.658317   6.035146   3.825668   2.380741   1.388188
    12  C    4.649302   5.995092   4.248150   2.762091   2.413888
    13  C    3.678292   4.938706   3.699178   2.423237   2.808803
    14  C    2.317923   3.628663   2.385008   1.403834   2.415894
    15  H    3.848514   3.397876   5.332639   5.676923   6.998848
    16  H    3.407122   3.893472   4.534999   4.208760   5.315463
    17  H    2.150713   1.079596   2.895464   4.250552   5.487330
    18  H    2.157816   2.959886   1.092976   2.160582   2.969205
    19  H    2.157809   2.959882   1.092964   2.160576   2.969203
    20  H    4.243413   5.476820   2.890600   2.143704   1.080486
    21  H    5.681765   7.052190   4.727187   3.360408   2.138469
    22  H    5.669273   6.992165   5.327465   3.842180   3.386479
    23  H    4.204815   5.314095   4.533206   3.406117   3.888555
                   11         12         13         14         15
    11  C    0.000000
    12  C    1.387339   0.000000
    13  C    2.410769   1.384944   0.000000
    14  C    2.758047   2.381775   1.385932   0.000000
    15  H    7.454249   6.757537   5.381036   4.710250   0.000000
    16  H    5.417832   4.492887   3.114648   2.901947   2.472752
    17  H    6.631193   6.772314   5.827621   4.467476   4.281405
    18  H    4.247912   4.812478   4.379507   3.134785   5.879515
    19  H    4.247914   4.812474   4.379501   3.134778   5.879508
    20  H    2.148501   3.393196   3.889268   3.400584   7.808242
    21  H    1.080046   2.137965   3.383622   3.838036   8.530281
    22  H    2.137260   1.080197   2.136773   3.363652   7.434364
    23  H    3.391056   2.146991   1.079754   2.149138   5.047172
                   16         17         18         19         20
    16  H    0.000000
    17  H    4.972911   0.000000
    18  H    5.232860   3.013761   0.000000
    19  H    5.232854   3.013753   1.760880   0.000000
    20  H    6.295427   5.737448   3.012678   3.012683   0.000000
    21  H    6.453853   7.589999   5.048385   5.048385   2.469115
    22  H    5.044888   7.807826   5.876638   5.876636   4.276893
    23  H    2.603280   6.297692   5.231978   5.231973   4.969016
                   21         22         23
    21  H    0.000000
    22  H    2.452699   0.000000
    23  H    4.275813   2.470399   0.000000
 Stoichiometry    C13H9Br
 Framework group  C1[X(C13H9Br)]
 Deg. of freedom    63
 Full point group                 C1      NOp   1
 Largest Abelian subgroup         C1      NOp   1
 Largest concise Abelian subgroup C1      NOp   1
                         Standard orientation:                         
 ---------------------------------------------------------------------
 Center     Atomic      Atomic             Coordinates (Angstroms)
 Number     Number       Type             X           Y           Z
 ---------------------------------------------------------------------
      1         35           0        3.818859   -0.112074    0.000006
      2          6           0        1.926957    0.144074    0.000006
      3          6           0        1.425304    1.436535   -0.000004
      4          6           0        0.056107    1.642001   -0.000014
      5          6           0       -0.787774    0.542194   -0.000004
      6          6           0       -0.261137   -0.760270    0.000006
      7          6           0        1.100898   -0.971102    0.000006
      8          6           0       -1.369153   -1.770735    0.000016
      9          6           0       -2.596680   -0.906660    0.000006
     10          6           0       -3.924437   -1.279085    0.000006
     11          6           0       -4.895340   -0.286908   -0.000014
     12          6           0       -4.541598    1.054575   -0.000014
     13          6           0       -3.210646    1.437508   -0.000014
     14          6           0       -2.237700    0.450500   -0.000004
     15          1           0        2.104804    2.275085   -0.000014
     16          1           0       -0.339980    2.645940   -0.000024
     17          1           0        1.519709   -1.966152    0.000026
     18          1           0       -1.327097   -2.416996   -0.880424
     19          1           0       -1.327097   -2.416976    0.880456
     20          1           0       -4.206690   -2.322053    0.000006
     21          1           0       -5.939479   -0.563085   -0.000004
     22          1           0       -5.314920    1.808762   -0.000024
     23          1           0       -2.938112    2.482302   -0.000024
 ---------------------------------------------------------------------
 Rotational constants (GHZ):           2.1637311           0.2158401           0.1965007
 Standard basis: MIDIx (5D, 7F)
 There are   164 symmetry adapted cartesian basis functions of A   symmetry.
 There are   162 symmetry adapted basis functions of A   symmetry.
   162 basis functions,   285 primitive gaussians,   164 cartesian basis functions
    61 alpha electrons       61 beta electrons
       nuclear repulsion energy      1043.7032336402 Hartrees.
 NAtoms=   23 NActive=   23 NUniq=   23 SFac= 1.00D+00 NAtFMM=   60 NAOKFM=F Big=F
 Integral buffers will be    131072 words long.
 Raffenetti 2 integral format.
 Two-electron integral symmetry is turned on.
 Nuclear repulsion after empirical dispersion term =     1043.6885133696 Hartrees.
 One-electron integrals computed using PRISM.
 NBasis=   162 RedAO= T EigKep=  9.85D-04  NBF=   162
 NBsUse=   162 1.00D-06 EigRej= -1.00D+00 NBFU=   162
 ExpMin= 1.47D-01 ExpMax= 6.10D+03 ExpMxC= 6.10D+03 IAcc=3 IRadAn=         5 AccDes= 0.00D+00
 Harris functional with IExCor= 4639 and IRadAn=       5 diagonalized for initial guess.
 HarFok:  IExCor= 4639 AccDes= 0.00D+00 IRadAn=         5 IDoV= 1 UseB2=F ITyADJ=14
 ICtDFT=  3500011 ScaDFX=  1.000000  1.000000  1.000000  1.000000
 FoFCou: FMM=F IPFlag=           0 FMFlag=      100000 FMFlg1=           0
         NFxFlg=           0 DoJE=T BraDBF=F KetDBF=T FulRan=T
         wScrn=  0.000000 ICntrl=       500 IOpCl=  0 I1Cent=   200000004 NGrid=           0
         NMat0=    1 NMatS0=      1 NMatT0=    0 NMatD0=    1 NMtDS0=    0 NMtDT0=    0
 Petite list used in FoFCou.
 Requested convergence on RMS density matrix=1.00D-08 within 128 cycles.
 Requested convergence on MAX density matrix=1.00D-06.
 Requested convergence on             energy=1.00D-06.
 No special actions if energy rises.
 Integral accuracy reduced to 1.0D-05 until final iterations.
 Initial convergence to 1.0D-05 achieved.  Increase integral accuracy.
 SCF Done:  E(RwB97XD) =  -3059.76322712     A.U. after   15 cycles
            NFock= 15  Conv=0.63D-08     -V/T= 2.0024
 DoSCS=F DFT=T ScalE2(SS,OS)=  1.000000  1.000000
 Range of M.O.s used for correlation:     1   162
 NBasis=   162 NAE=    61 NBE=    61 NFC=     0 NFV=     0
 NROrb=    162 NOA=    61 NOB=    61 NVA=   101 NVB=   101
          Differentiating once with respect to magnetic field using GIAOs.
          Electric field/nuclear overlap derivatives assumed to be zero.
 FoFCou: FMM=F IPFlag=           0 FMFlag=      100000 FMFlg1=           0
         NFxFlg=           0 DoJE=F BraDBF=F KetDBF=T FulRan=T
         wScrn=  0.000000 ICntrl=      6100 IOpCl=  0 I1Cent=           7 NGrid=          23
         NMat0=    1 NMatS0=      1 NMatT0=    0 NMatD0=    1 NMtDS0=    0 NMtDT0=    0
 Symmetry not used in FoFCou.
 FoFJK:  IHMeth= 1 ICntrl=    6127 DoSepK=T KAlg= 0 I1Cent=           0 FoldK=F
 IRaf=         1 NMat=       1 IRICut=       1 DoRegI=T DoRafI=F ISym2E= 0 IDoP0=0 IntGTp=1.
          There are     3 degrees of freedom in the 1st order CPHF.  IDoFFX=0 NUNeed=     3.
      3 vectors produced by pass  0 Test12= 2.05D-13 3.33D-08 XBig12= 2.77D+01 1.05D+00.
 AX will form     3 AO Fock derivatives at one time.
      3 vectors produced by pass  1 Test12= 2.05D-13 3.33D-08 XBig12= 4.27D-01 2.26D-01.
      3 vectors produced by pass  2 Test12= 2.05D-13 3.33D-08 XBig12= 6.09D-03 1.69D-02.
      3 vectors produced by pass  3 Test12= 2.05D-13 3.33D-08 XBig12= 4.63D-05 1.31D-03.
      3 vectors produced by pass  4 Test12= 2.05D-13 3.33D-08 XBig12= 7.08D-07 2.82D-04.
      3 vectors produced by pass  5 Test12= 2.05D-13 3.33D-08 XBig12= 1.42D-08 4.94D-05.
      3 vectors produced by pass  6 Test12= 2.05D-13 3.33D-08 XBig12= 2.07D-10 3.71D-06.
      3 vectors produced by pass  7 Test12= 2.05D-13 3.33D-08 XBig12= 2.14D-12 3.08D-07.
      1 vectors produced by pass  8 Test12= 2.05D-13 3.33D-08 XBig12= 3.62D-14 5.90D-08.
 InvSVY:  IOpt=1 It=  1 EMax= 8.88D-16
 Solved reduced A of dimension    25 with     3 vectors.
 Calculating GIAO nuclear magnetic shielding tensors.
 SCF GIAO Magnetic shielding tensor (ppm):
      1  Br   Isotropic =  2183.1109   Anisotropy =  1193.8522
   XX=  2957.6784   YX=  -156.9841   ZX=    -0.0029
   XY=  -152.2049   YY=  1858.7611   ZY=    -0.0020
   XZ=     0.0025   YZ=    -0.0004   ZZ=  1732.8933
   Eigenvalues:  1732.8933  1837.4271  2979.0124
      2  C    Isotropic =    81.0481   Anisotropy =   106.2701
   XX=     3.6777   YX=    11.3071   ZX=    -0.0002
   XY=    13.2113   YY=    87.5718   ZY=     0.0005
   XZ=    -0.0012   YZ=     0.0008   ZZ=   151.8949
   Eigenvalues:     1.9230    89.3265   151.8949
      3  C    Isotropic =    84.9219   Anisotropy =   139.1102
   XX=    51.0189   YX=   -36.2394   ZX=    -0.0001
   XY=   -41.7477   YY=    26.0848   ZY=     0.0013
   XZ=     0.0001   YZ=     0.0012   ZZ=   177.6620
   Eigenvalues:    -2.3862    79.4899   177.6620
      4  C    Isotropic =    93.5206   Anisotropy =   151.4921
   XX=    69.0995   YX=    22.5780   ZX=    -0.0007
   XY=    21.0928   YY=    16.9470   ZY=     0.0019
   XZ=    -0.0005   YZ=     0.0019   ZZ=   194.5154
   Eigenvalues:     9.0121    77.0344   194.5154
      5  C    Isotropic =    76.7246   Anisotropy =   142.5004
   XX=    -1.1597   YX=     3.9423   ZX=     0.0000
   XY=    15.9746   YY=    59.6087   ZY=     0.0009
   XZ=    -0.0001   YZ=     0.0011   ZZ=   171.7249
   Eigenvalues:    -2.7500    61.1990   171.7249
      6  C    Isotropic =    73.6125   Anisotropy =   146.7307
   XX=    32.1727   YX=   -22.0838   ZX=     0.0003
   XY=   -31.5270   YY=    17.2318   ZY=     0.0013
   XZ=     0.0007   YZ=     0.0018   ZZ=   171.4329
   Eigenvalues:    -3.1247    52.5291   171.4329
      7  C    Isotropic =    86.1068   Anisotropy =   129.3811
   XX=    73.0132   YX=    23.7929   ZX=    -0.0007
   XY=    25.7034   YY=    12.9464   ZY=     0.0018
   XZ=    -0.0001   YZ=     0.0012   ZZ=   172.3609
   Eigenvalues:     4.0635    81.8961   172.3609
      8  C    Isotropic =   169.5894   Anisotropy =    29.3002
   XX=   188.9985   YX=     1.6379   ZX=    -0.0000
   XY=     1.5016   YY=   169.3112   ZY=     0.0002
   XZ=    -0.0001   YZ=     0.0001   ZZ=   150.4586
   Eigenvalues:   150.4586   169.1868   189.1229
      9  C    Isotropic =    75.2130   Anisotropy =   149.6339
   XX=    26.4326   YX=    24.7000   ZX=    -0.0007
   XY=    34.7340   YY=    24.2375   ZY=     0.0013
   XZ=    -0.0004   YZ=     0.0005   ZZ=   174.9690
   Eigenvalues:    -4.4022    55.0723   174.9690
     10  C    Isotropic =    90.2752   Anisotropy =   154.5289
   XX=    71.7643   YX=   -17.0255   ZX=    -0.0006
   XY=   -17.0038   YY=     5.7669   ZY=     0.0012
   XZ=    -0.0001   YZ=     0.0021   ZZ=   193.2945
   Eigenvalues:     1.6386    75.8926   193.2945
     11  C    Isotropic =    88.3056   Anisotropy =   163.1944
   XX=     0.0519   YX=   -18.6679   ZX=    -0.0003
   XY=   -21.5951   YY=    67.7629   ZY=     0.0009
   XZ=    -0.0013   YZ=     0.0008   ZZ=   197.1019
   Eigenvalues:    -5.4813    73.2962   197.1019
     12  C    Isotropic =    88.8151   Anisotropy =   164.2356
   XX=    35.4226   YX=    37.1510   ZX=    -0.0008
   XY=    41.0677   YY=    32.7172   ZY=     0.0011
   XZ=    -0.0001   YZ=     0.0009   ZZ=   198.3056
   Eigenvalues:    -5.0628    73.2027   198.3056
     13  C    Isotropic =    94.0958   Anisotropy =   155.5050
   XX=    74.0931   YX=   -15.3090   ZX=    -0.0001
   XY=   -14.1208   YY=    10.4284   ZY=     0.0016
   XZ=    -0.0002   YZ=     0.0016   ZZ=   197.7657
   Eigenvalues:     7.1919    77.3296   197.7657
     14  C    Isotropic =    77.3851   Anisotropy =   142.1352
   XX=     1.5066   YX=   -12.4053   ZX=    -0.0001
   XY=   -24.4795   YY=    58.5068   ZY=     0.0009
   XZ=    -0.0001   YZ=     0.0010   ZZ=   172.1419
   Eigenvalues:    -3.9400    63.9534   172.1419
     15  H    Isotropic =    25.6602   Anisotropy =     7.2969
   XX=    27.9762   YX=    -2.4300   ZX=     0.0000
   XY=    -2.2273   YY=    28.3972   ZY=    -0.0000
   XZ=     0.0000   YZ=    -0.0001   ZZ=    20.6072
   Eigenvalues:    20.6072    25.8486    30.5248
     16  H    Isotropic =    25.2195   Anisotropy =     5.5666
   XX=    28.8155   YX=     0.5516   ZX=     0.0000
   XY=     0.4401   YY=    26.7935   ZY=    -0.0001
   XZ=     0.0000   YZ=    -0.0001   ZZ=    20.0495
   Eigenvalues:    20.0495    26.6785    28.9306
     17  H    Isotropic =    25.6296   Anisotropy =     8.9302
   XX=    30.4789   YX=     2.4464   ZX=    -0.0000
   XY=     2.3362   YY=    26.4040   ZY=    -0.0000
   XZ=     0.0000   YZ=    -0.0001   ZZ=    20.0059
   Eigenvalues:    20.0059    25.2998    31.5830
     18  H    Isotropic =    29.2104   Anisotropy =     9.1837
   XX=    29.7265   YX=     0.2187   ZX=    -0.1469
   XY=     0.1772   YY=    30.6154   ZY=     4.0572
   XZ=    -0.4946   YZ=     8.2623   ZZ=    27.2893
   Eigenvalues:    22.5524    29.7459    35.3329
     19  H    Isotropic =    29.2107   Anisotropy =     9.1837
   XX=    29.7268   YX=     0.2187   ZX=     0.1469
   XY=     0.1772   YY=    30.6155   ZY=    -4.0572
   XZ=     0.4946   YZ=    -8.2623   ZZ=    27.2897
   Eigenvalues:    22.5527    29.7461    35.3331
     20  H    Isotropic =    25.6086   Anisotropy =     5.4327
   XX=    29.2160   YX=     0.3709   ZX=     0.0000
   XY=     0.0618   YY=    25.9780   ZY=    -0.0001
   XZ=     0.0001   YZ=     0.0000   ZZ=    21.6318
   Eigenvalues:    21.6318    25.9636    29.2304
     21  H    Isotropic =    25.7454   Anisotropy =     2.9035
   XX=    27.3131   YX=    -0.3450   ZX=     0.0001
   XY=    -0.3959   YY=    27.3081   ZY=    -0.0000
   XZ=    -0.0001   YZ=    -0.0001   ZZ=    22.6151
   Eigenvalues:    22.6151    26.9401    27.6810
     22  H    Isotropic =    25.6488   Anisotropy =     3.2862
   XX=    27.7872   YX=     0.1030   ZX=     0.0000
   XY=     0.3576   YY=    26.8272   ZY=    -0.0000
   XZ=     0.0001   YZ=    -0.0000   ZZ=    22.3321
   Eigenvalues:    22.3321    26.7748    27.8396
     23  H    Isotropic =    25.1738   Anisotropy =     5.9930
   XX=    28.8473   YX=    -0.9710   ZX=     0.0000
   XY=    -0.9118   YY=    26.4148   ZY=    -0.0000
   XZ=     0.0000   YZ=    -0.0001   ZZ=    20.2592
   Eigenvalues:    20.2592    26.0930    29.1691
 End of Minotr F.D. properties file   721 does not exist.
 End of Minotr F.D. properties file   722 does not exist.
 End of Minotr F.D. properties file   788 does not exist.

 **********************************************************************

            Population analysis using the SCF Density.

 **********************************************************************

 Orbital symmetries:
       Occupied  (A) (A) (A) (A) (A) (A) (A) (A) (A) (A) (A) (A)
                 (A) (A) (A) (A) (A) (A) (A) (A) (A) (A) (A) (A)
                 (A) (A) (A) (A) (A) (A) (A) (A) (A) (A) (A) (A)
                 (A) (A) (A) (A) (A) (A) (A) (A) (A) (A) (A) (A)
                 (A) (A) (A) (A) (A) (A) (A) (A) (A) (A) (A) (A)
                 (A)
       Virtual   (A) (A) (A) (A) (A) (A) (A) (A) (A) (A) (A) (A)
                 (A) (A) (A) (A) (A) (A) (A) (A) (A) (A) (A) (A)
                 (A) (A) (A) (A) (A) (A) (A) (A) (A) (A) (A) (A)
                 (A) (A) (A) (A) (A) (A) (A) (A) (A) (A) (A) (A)
                 (A) (A) (A) (A) (A) (A) (A) (A) (A) (A) (A) (A)
                 (A) (A) (A) (A) (A) (A) (A) (A) (A) (A) (A) (A)
                 (A) (A) (A) (A) (A) (A) (A) (A) (A) (A) (A) (A)
                 (A) (A) (A) (A) (A) (A) (A) (A) (A) (A) (A) (A)
                 (A) (A) (A) (A) (A)
 The electronic state is 1-A.
 Alpha  occ. eigenvalues -- -480.14364 -62.57750 -56.16647 -56.16223 -56.16210
 Alpha  occ. eigenvalues --  -10.29312 -10.25395 -10.25111 -10.24957 -10.24948
 Alpha  occ. eigenvalues --  -10.24779 -10.24739 -10.24721 -10.24693 -10.24047
 Alpha  occ. eigenvalues --  -10.23913 -10.23708 -10.23659  -8.88591  -6.67067
 Alpha  occ. eigenvalues --   -6.65648  -6.65636  -2.77373  -2.76882  -2.76863
 Alpha  occ. eigenvalues --   -2.75696  -2.75692  -1.01771  -0.97832  -0.93311
 Alpha  occ. eigenvalues --   -0.89807  -0.86964  -0.86257  -0.81269  -0.80542
 Alpha  occ. eigenvalues --   -0.74153  -0.69442  -0.68848  -0.67966  -0.62330
 Alpha  occ. eigenvalues --   -0.58875  -0.58078  -0.55052  -0.54832  -0.53658
 Alpha  occ. eigenvalues --   -0.53426  -0.51397  -0.50667  -0.49445  -0.47614
 Alpha  occ. eigenvalues --   -0.46074  -0.44622  -0.44082  -0.42560  -0.42003
 Alpha  occ. eigenvalues --   -0.40055  -0.36031  -0.34851  -0.34119  -0.32708
 Alpha  occ. eigenvalues --   -0.28788
 Alpha virt. eigenvalues --    0.02957   0.05625   0.07684   0.09012   0.11236
 Alpha virt. eigenvalues --    0.17752   0.19290   0.20412   0.20462   0.22962
 Alpha virt. eigenvalues --    0.23480   0.24796   0.26508   0.28333   0.28869
 Alpha virt. eigenvalues --    0.29021   0.31663   0.34042   0.36107   0.37024
 Alpha virt. eigenvalues --    0.37864   0.40173   0.40829   0.46071   0.46587
 Alpha virt. eigenvalues --    0.48229   0.49572   0.53593   0.54473   0.56473
 Alpha virt. eigenvalues --    0.58456   0.59345   0.60554   0.61438   0.64055
 Alpha virt. eigenvalues --    0.64613   0.64691   0.64996   0.65230   0.66804
 Alpha virt. eigenvalues --    0.68100   0.69372   0.71252   0.72118   0.73741
 Alpha virt. eigenvalues --    0.75713   0.77853   0.78285   0.79645   0.81009
 Alpha virt. eigenvalues --    0.84960   0.85396   0.86907   0.91351   0.91704
 Alpha virt. eigenvalues --    0.93282   0.94042   0.95160   0.95508   0.96309
 Alpha virt. eigenvalues --    0.96310   0.97370   0.98121   0.98541   1.00195
 Alpha virt. eigenvalues --    1.00618   1.01008   1.01587   1.02557   1.03322
 Alpha virt. eigenvalues --    1.04424   1.04715   1.05819   1.06352   1.06648
 Alpha virt. eigenvalues --    1.09757   1.09848   1.12401   1.13971   1.14139
 Alpha virt. eigenvalues --    1.16005   1.18193   1.20584   1.23173   1.24128
 Alpha virt. eigenvalues --    1.27435   1.28363   1.36686   1.42158   1.44760
 Alpha virt. eigenvalues --    1.55363   1.58229   1.59705   1.62828   1.67221
 Alpha virt. eigenvalues --    1.68393   1.80570   1.84073   1.85170   1.98676
 Alpha virt. eigenvalues --    2.03612
          Condensed to atoms (all electrons):
               1          2          3          4          5          6
     1  Br  34.937504   0.212626  -0.039099   0.001835   0.000413   0.002381
     2  C    0.212626   5.044066   0.475547  -0.033054  -0.049438  -0.021933
     3  C   -0.039099   0.475547   4.958368   0.502205  -0.033011  -0.040842
     4  C    0.001835  -0.033054   0.502205   4.850467   0.464875  -0.013941
     5  C    0.000413  -0.049438  -0.033011   0.464875   4.991997   0.466512
     6  C    0.002381  -0.021933  -0.040842  -0.013941   0.466512   5.090587
     7  C   -0.040506   0.485530  -0.037226  -0.024069  -0.021758   0.470771
     8  C   -0.000026   0.000255   0.000841   0.000072  -0.050391   0.322076
     9  C    0.000001  -0.000121  -0.000111   0.000999  -0.047540  -0.086868
    10  C   -0.000000  -0.000000   0.000001   0.000021   0.001135   0.001634
    11  C    0.000000   0.000000   0.000000   0.000001   0.001058  -0.000103
    12  C   -0.000000   0.000000  -0.000001   0.000110   0.000432  -0.000129
    13  C   -0.000000   0.000001   0.000112  -0.001973   0.006084   0.001014
    14  C    0.000001   0.001049   0.000412   0.006801   0.343033  -0.046504
    15  H    0.000572  -0.021733   0.394982  -0.017837   0.003037   0.000111
    16  H   -0.000056   0.002900  -0.021135   0.397526  -0.019639   0.002717
    17  H    0.000646  -0.018158   0.002264   0.000035   0.002519  -0.014912
    18  H   -0.000000   0.000048  -0.000005  -0.000017   0.000955  -0.025423
    19  H   -0.000000   0.000048  -0.000005  -0.000017   0.000955  -0.025422
    20  H   -0.000000  -0.000000  -0.000000  -0.000000  -0.000125   0.000117
    21  H   -0.000000   0.000000  -0.000000  -0.000000   0.000002   0.000002
    22  H   -0.000000  -0.000000   0.000000  -0.000000  -0.000032   0.000001
    23  H   -0.000000  -0.000000  -0.000015   0.001526  -0.006916   0.000099
               7          8          9         10         11         12
     1  Br  -0.040506  -0.000026   0.000001  -0.000000   0.000000  -0.000000
     2  C    0.485530   0.000255  -0.000121  -0.000000   0.000000   0.000000
     3  C   -0.037226   0.000841  -0.000111   0.000001   0.000000  -0.000001
     4  C   -0.024069   0.000072   0.000999   0.000021   0.000001   0.000110
     5  C   -0.021758  -0.050391  -0.047540   0.001135   0.001058   0.000432
     6  C    0.470771   0.322076  -0.086868   0.001634  -0.000103  -0.000129
     7  C    4.883711   0.004714   0.001825   0.000030  -0.000000   0.000001
     8  C    0.004714   5.015660   0.326110   0.006388  -0.000028   0.000936
     9  C    0.001825   0.326110   5.086717   0.480438  -0.035965  -0.043664
    10  C    0.000030   0.006388   0.480438   4.873047   0.512703  -0.042685
    11  C   -0.000000  -0.000028  -0.035965   0.512703   4.935144   0.505811
    12  C    0.000001   0.000936  -0.043664  -0.042685   0.505811   4.938860
    13  C    0.000017  -0.000192  -0.012535  -0.027766  -0.048035   0.517716
    14  C    0.001209  -0.052219   0.473112  -0.025228  -0.037708  -0.039215
    15  H    0.002496   0.000004   0.000000  -0.000000  -0.000000   0.000000
    16  H   -0.000090  -0.000080   0.000108   0.000001   0.000000  -0.000016
    17  H    0.389474  -0.004887   0.000111   0.000001  -0.000000  -0.000000
    18  H   -0.004011   0.386810  -0.025554  -0.003914   0.000051  -0.000003
    19  H   -0.004011   0.386811  -0.025554  -0.003914   0.000051  -0.000003
    20  H    0.000001  -0.005190  -0.022758   0.398799  -0.020452   0.002646
    21  H   -0.000000  -0.000031   0.003683  -0.025783   0.403977  -0.024644
    22  H   -0.000000   0.000005   0.000167   0.002893  -0.024324   0.403356
    23  H    0.000001  -0.000084   0.002672  -0.000016   0.002696  -0.020474
              13         14         15         16         17         18
     1  Br  -0.000000   0.000001   0.000572  -0.000056   0.000646  -0.000000
     2  C    0.000001   0.001049  -0.021733   0.002900  -0.018158   0.000048
     3  C    0.000112   0.000412   0.394982  -0.021135   0.002264  -0.000005
     4  C   -0.001973   0.006801  -0.017837   0.397526   0.000035  -0.000017
     5  C    0.006084   0.343033   0.003037  -0.019639   0.002519   0.000955
     6  C    0.001014  -0.046504   0.000111   0.002717  -0.014912  -0.025423
     7  C    0.000017   0.001209   0.002496  -0.000090   0.389474  -0.004011
     8  C   -0.000192  -0.052219   0.000004  -0.000080  -0.004887   0.386810
     9  C   -0.012535   0.473112   0.000000   0.000108   0.000111  -0.025554
    10  C   -0.027766  -0.025228  -0.000000   0.000001   0.000001  -0.003914
    11  C   -0.048035  -0.037708  -0.000000   0.000000  -0.000000   0.000051
    12  C    0.517716  -0.039215   0.000000  -0.000016  -0.000000  -0.000003
    13  C    4.851754   0.469757  -0.000000   0.001545  -0.000000  -0.000013
    14  C    0.469757   4.980571  -0.000025  -0.006624  -0.000113   0.001044
    15  H   -0.000000  -0.000025   0.432522  -0.004017  -0.000057  -0.000000
    16  H    0.001545  -0.006624  -0.004017   0.446550   0.000006   0.000002
    17  H   -0.000000  -0.000113  -0.000057   0.000006   0.434814   0.000785
    18  H   -0.000013   0.001044  -0.000000   0.000002   0.000785   0.461610
    19  H   -0.000013   0.001044  -0.000000   0.000002   0.000785  -0.023186
    20  H    0.000076   0.002882   0.000000   0.000000   0.000000   0.000853
    21  H    0.003034   0.000093  -0.000000  -0.000000  -0.000000  -0.000000
    22  H   -0.025217   0.003595   0.000000   0.000001   0.000000  -0.000000
    23  H    0.397846  -0.020541   0.000001   0.002309   0.000000   0.000003
              19         20         21         22         23
     1  Br  -0.000000  -0.000000  -0.000000  -0.000000  -0.000000
     2  C    0.000048  -0.000000   0.000000  -0.000000  -0.000000
     3  C   -0.000005  -0.000000  -0.000000   0.000000  -0.000015
     4  C   -0.000017  -0.000000  -0.000000  -0.000000   0.001526
     5  C    0.000955  -0.000125   0.000002  -0.000032  -0.006916
     6  C   -0.025422   0.000117   0.000002   0.000001   0.000099
     7  C   -0.004011   0.000001  -0.000000  -0.000000   0.000001
     8  C    0.386811  -0.005190  -0.000031   0.000005  -0.000084
     9  C   -0.025554  -0.022758   0.003683   0.000167   0.002672
    10  C   -0.003914   0.398799  -0.025783   0.002893  -0.000016
    11  C    0.000051  -0.020452   0.403977  -0.024324   0.002696
    12  C   -0.000003   0.002646  -0.024644   0.403356  -0.020474
    13  C   -0.000013   0.000076   0.003034  -0.025217   0.397846
    14  C    0.001044   0.002882   0.000093   0.003595  -0.020541
    15  H   -0.000000   0.000000  -0.000000   0.000000   0.000001
    16  H    0.000002   0.000000  -0.000000   0.000001   0.002309
    17  H    0.000785   0.000000  -0.000000   0.000000   0.000000
    18  H   -0.023186   0.000853  -0.000000  -0.000000   0.000003
    19  H    0.461608   0.000853  -0.000000  -0.000000   0.000003
    20  H    0.000853   0.456562  -0.004048  -0.000067   0.000007
    21  H   -0.000000  -0.004048   0.454846  -0.004082  -0.000065
    22  H   -0.000000  -0.000067  -0.004082   0.454682  -0.004017
    23  H    0.000003   0.000007  -0.000065  -0.004017   0.454285
 Mulliken charges:
               1
     1  Br  -0.076293
     2  C   -0.077631
     3  C   -0.163282
     4  C   -0.135566
     5  C   -0.054155
     6  C   -0.081943
     7  C   -0.108106
     8  C   -0.337554
     9  C   -0.075272
    10  C   -0.147785
    11  C   -0.194876
    12  C   -0.199033
    13  C   -0.133210
    14  C   -0.056427
    15  H    0.209943
    16  H    0.197988
    17  H    0.206686
    18  H    0.229966
    19  H    0.229966
    20  H    0.189844
    21  H    0.193017
    22  H    0.193040
    23  H    0.190683
 Sum of Mulliken charges =  -0.00000
 Mulliken charges with hydrogens summed into heavy atoms:
               1
     1  Br  -0.076293
     2  C   -0.077631
     3  C    0.046661
     4  C    0.062422
     5  C   -0.054155
     6  C   -0.081943
     7  C    0.098579
     8  C    0.122378
     9  C   -0.075272
    10  C    0.042059
    11  C   -0.001859
    12  C   -0.005992
    13  C    0.057472
    14  C   -0.056427
 Electronic spatial extent (au):  <R**2>=           4838.3356
 Charge=             -0.0000 electrons
 Dipole moment (field-independent basis, Debye):
    X=             -1.8416    Y=             -0.3779    Z=              0.0000  Tot=              1.8799
 Quadrupole moment (field-independent basis, Debye-Ang):
   XX=            -89.5174   YY=            -81.2628   ZZ=            -98.1774
   XY=              1.0077   XZ=             -0.0000   YZ=             -0.0002
 Traceless Quadrupole moment (field-independent basis, Debye-Ang):
   XX=              0.1352   YY=              8.3897   ZZ=             -8.5249
   XY=              1.0077   XZ=             -0.0000   YZ=             -0.0002
 Octapole moment (field-independent basis, Debye-Ang**2):
  XXX=             82.5563  YYY=             -0.8896  ZZZ=              0.0003  XYY=             29.8857
  XXY=             -1.6824  XXZ=             -0.0000  XZZ=             52.5630  YZZ=             -5.2300
  YYZ=             -0.0001  XYZ=              0.0001
 Hexadecapole moment (field-independent basis, Debye-Ang**3):
 XXXX=          -4526.7488 YYYY=           -671.5714 ZZZZ=           -108.2691 XXXY=            -22.3437
 XXXZ=             -0.0040 YYYX=             -9.7015 YYYZ=              0.0015 ZZZX=             -0.0043
 ZZZY=              0.0025 XXYY=           -871.9248 XXZZ=           -904.9061 YYZZ=           -148.4918
 XXYZ=             -0.0004 YYXZ=             -0.0009 ZZXY=             -1.2262
 N-N= 1.043688513370D+03 E-N=-9.363595730818D+03  KE= 3.052533144002D+03
 Unable to Open any file for archive entry.
 1\1\GINC-DYNAMO\SP\RwB97XD\MIDIx\C13H9Br1\RPATON\26-Sep-2024\0\\# wb97
 xd midix nmr=giao\\energy: -36.515935481572 gnorm: 0.000782190493 xtb:
  6.7.0 (08769fc)\\0,1\Br,0,3.81427,-0.10734,0.00001\C,0,1.92224,0.1478
 6,0.00001\C,0,1.41994,1.44007,0.\C,0,0.05064,1.64485,-0.00001\C,0,-0.7
 9269,0.54462,0.\C,0,-0.2654,-0.75758,0.00001\C,0,1.09674,-0.96773,0.00
 001\C,0,-1.37291,-1.7686,0.00002\C,0,-2.60087,-0.90514,0.00001\C,0,-3.
 92844,-1.27823,0.00001\C,0,-4.89984,-0.28654,-0.00001\C,0,-4.54677,1.0
 5512,-0.00001\C,0,-3.21601,1.43872,-0.00001\C,0,-2.24257,0.4522,0.\H,0
 ,2.09902,2.27896,-0.00001\H,0,-0.34595,2.64859,-0.00002\H,0,1.51605,-1
 .96257,0.00003\H,0,-1.33053,-2.41484,-0.88042\H,0,-1.33053,-2.41482,0.
 88046\H,0,-4.21017,-2.32134,0.00001\H,0,-5.94384,-0.56324,0.\H,0,-5.32
 047,1.80892,-0.00002\H,0,-2.944,2.48365,-0.00002\\Version=ES64L-G16Rev
 C.01\State=1-A\HF=-3059.7632271\RMSD=6.318e-09\Dipole=-0.724453,-0.149
 0507,0.0000016\Quadrupole=0.0997404,6.2382813,-6.3380216,0.7461274,-0.
 0000013,-0.0001242\PG=C01 [X(C13H9Br1)]\\@
 The archive entry for this job was punched.


 TWO ROADS DIVERGED IN A WOOD, AND I--
 I TOOK THE ONE LESS TRAVELED BY,
 AND THAT HAS MADE ALL THE DIFFERENCE.

                       -- ROBERT FROST
 Job cpu time:       0 days  0 hours  6 minutes 50.6 seconds.
 Elapsed time:       0 days  0 hours  0 minutes 19.2 seconds.
 File lengths (MBytes):  RWF=     19 Int=      0 D2E=      0 Chk=      3 Scr=      1
 Normal termination of Gaussian 16 at Thu Sep 26 13:12:13 2024.
