 Entering Gaussian System, Link 0=/usr/local/Gaussian/G16C/g16/g16
 Input=nmr/arbr79_xtbopt_nmr.com
 Output=nmr/arbr79_xtbopt_nmr.log
 Initial command:
 /usr/local/Gaussian/G16C/g16/l1.exe "/home/rpaton/opt/xtb/Gau-1459384.inp" -scrdir="/home/rpaton/opt/xtb/"
 Entering Link 1 = /usr/local/Gaussian/G16C/g16/l1.exe PID=   1459385.
  
 Copyright (c) 1988-2019, Gaussian, Inc.  All Rights Reserved.
  
 This is part of the Gaussian(R) 16 program.  It is based on
 the Gaussian(R) 09 system (copyright 2009, Gaussian, Inc.),
 the Gaussian(R) 03 system (copyright 2003, Gaussian, Inc.),
 the Gaussian(R) 98 system (copyright 1998, Gaussian, Inc.),
 the Gaussian(R) 94 system (copyright 1995, Gaussian, Inc.),
 the Gaussian 92(TM) system (copyright 1992, Gaussian, Inc.),
 the Gaussian 90(TM) system (copyright 1990, Gaussian, Inc.),
 the Gaussian 88(TM) system (copyright 1988, Gaussian, Inc.),
 the Gaussian 86(TM) system (copyright 1986, Carnegie Mellon
 University), and the Gaussian 82(TM) system (copyright 1983,
 Carnegie Mellon University). Gaussian is a federally registered
 trademark of Gaussian, Inc.
  
 This software contains proprietary and confidential information,
 including trade secrets, belonging to Gaussian, Inc.
  
 This software is provided under written license and may be
 used, copied, transmitted, or stored only in accord with that
 written license.
  
 The following legend is applicable only to US Government
 contracts under FAR:
  
                    RESTRICTED RIGHTS LEGEND
  
 Use, reproduction and disclosure by the US Government is
 subject to restrictions as set forth in subparagraphs (a)
 and (c) of the Commercial Computer Software - Restricted
 Rights clause in FAR 52.227-19.
  
 Gaussian, Inc.
 340 Quinnipiac St., Bldg. 40, Wallingford CT 06492
  
  
 ---------------------------------------------------------------
 Warning -- This program may not be used in any manner that
 competes with the business of Gaussian, Inc. or will provide
 assistance to any competitor of Gaussian, Inc.  The licensee
 of this program is prohibited from giving any competitor of
 Gaussian, Inc. access to this program.  By using this program,
 the user acknowledges that Gaussian, Inc. is engaged in the
 business of creating and licensing software in the field of
 computational chemistry and represents and warrants to the
 licensee that it is not a competitor of Gaussian, Inc. and that
 it will not use this program in any manner prohibited above.
 ---------------------------------------------------------------
  

 Cite this work as:
 Gaussian 16, Revision C.01,
 M. J. Frisch, G. W. Trucks, H. B. Schlegel, G. E. Scuseria, 
 M. A. Robb, J. R. Cheeseman, G. Scalmani, V. Barone, 
 G. A. Petersson, H. Nakatsuji, X. Li, M. Caricato, A. V. Marenich, 
 J. Bloino, B. G. Janesko, R. Gomperts, B. Mennucci, H. P. Hratchian, 
 J. V. Ortiz, A. F. Izmaylov, J. L. Sonnenberg, D. Williams-Young, 
 F. Ding, F. Lipparini, F. Egidi, J. Goings, B. Peng, A. Petrone, 
 T. Henderson, D. Ranasinghe, V. G. Zakrzewski, J. Gao, N. Rega, 
 G. Zheng, W. Liang, M. Hada, M. Ehara, K. Toyota, R. Fukuda, 
 J. Hasegawa, M. Ishida, T. Nakajima, Y. Honda, O. Kitao, H. Nakai, 
 T. Vreven, K. Throssell, J. A. Montgomery, Jr., J. E. Peralta, 
 F. Ogliaro, M. J. Bearpark, J. J. Heyd, E. N. Brothers, K. N. Kudin, 
 V. N. Staroverov, T. A. Keith, R. Kobayashi, J. Normand, 
 K. Raghavachari, A. P. Rendell, J. C. Burant, S. S. Iyengar, 
 J. Tomasi, M. Cossi, J. M. Millam, M. Klene, C. Adamo, R. Cammi, 
 J. W. Ochterski, R. L. Martin, K. Morokuma, O. Farkas, 
 J. B. Foresman, and D. J. Fox, Gaussian, Inc., Wallingford CT, 2019.
 
 ******************************************
 Gaussian 16:  ES64L-G16RevC.01  3-Jul-2019
                26-Sep-2024 
 ******************************************
 %nprocshared=24
 Will use up to   24 processors via shared memory.
 -----------------------
 # wb97xd midix nmr=giao
 -----------------------
 1/38=1,172=1/1;
 2/12=2,17=6,18=5,40=1/2;
 3/5=20,11=2,25=1,30=1,74=-58/1,2,3,8;
 4//1;
 5/5=2,38=5/2;
 8/6=1,10=90,11=11/1;
 10/13=100,45=16/2;
 6/7=2,8=2,9=2,10=2,28=1/1;
 99/9=1/99;
 -------------------------------------------------------------------
 energy: -30.071168380890 gnorm: 0.000653469021 xtb: 6.7.0 (08769fc)
 -------------------------------------------------------------------
 Symbolic Z-matrix:
 Charge =  0 Multiplicity = 1
 C                    -3.95261   1.37087  -0.0836 
 C                    -3.08472   0.36984   0.00706 
 C                    -3.44273  -1.09413   0.12662 
 C                    -2.12894  -1.86972  -0.07084 
 C                    -1.06756  -0.81339  -0.02446 
 C                     0.30108  -0.98564  -0.02751 
 C                     1.09697   0.15017   0.00147 
 Br                    2.99506  -0.0527    0.00488 
 C                     0.55823   1.42709   0.02873 
 C                    -0.8164    1.58945   0.02866 
 C                    -1.63093   0.46661   0.00371 
 H                    -3.63378   2.39548  -0.16331 
 H                    -5.01506   1.19716  -0.08267 
 H                    -3.85342  -1.28186   1.12134 
 H                    -4.2028   -1.37728  -0.60113 
 H                    -2.10807  -2.37277  -1.04087 
 H                    -1.97422  -2.62973   0.69621 
 H                     0.74537  -1.96921  -0.05069 
 H                     1.21194   2.28551   0.05219 
 H                    -1.24159   2.58082   0.05369 
 
                          Input orientation:                          
 ---------------------------------------------------------------------
 Center     Atomic      Atomic             Coordinates (Angstroms)
 Number     Number       Type             X           Y           Z
 ---------------------------------------------------------------------
      1          6           0       -3.952610    1.370870   -0.083600
      2          6           0       -3.084720    0.369840    0.007060
      3          6           0       -3.442730   -1.094130    0.126620
      4          6           0       -2.128940   -1.869720   -0.070840
      5          6           0       -1.067560   -0.813390   -0.024460
      6          6           0        0.301080   -0.985640   -0.027510
      7          6           0        1.096970    0.150170    0.001470
      8         35           0        2.995060   -0.052700    0.004880
      9          6           0        0.558230    1.427090    0.028730
     10          6           0       -0.816400    1.589450    0.028660
     11          6           0       -1.630930    0.466610    0.003710
     12          1           0       -3.633780    2.395480   -0.163310
     13          1           0       -5.015060    1.197160   -0.082670
     14          1           0       -3.853420   -1.281860    1.121340
     15          1           0       -4.202800   -1.377280   -0.601130
     16          1           0       -2.108070   -2.372770   -1.040870
     17          1           0       -1.974220   -2.629730    0.696210
     18          1           0        0.745370   -1.969210   -0.050690
     19          1           0        1.211940    2.285510    0.052190
     20          1           0       -1.241590    2.580820    0.053690
 ---------------------------------------------------------------------
                    Distance matrix (angstroms):
                    1          2          3          4          5
     1  C    0.000000
     2  C    1.327973   0.000000
     3  C    2.525944   1.511845   0.000000
     4  C    3.718516   2.436229   1.538367   0.000000
     5  C    3.619116   2.338795   2.396471   1.498169   0.000000
     6  C    4.863143   3.647213   3.748552   2.586208   1.379440
     7  C    5.195729   4.187460   4.708803   3.806794   2.369454
     8  Br   7.092566   6.094446   6.522617   5.437157   4.133327
     9  C    4.512589   3.793327   4.730097   4.254380   2.768713
    10  C    3.145821   2.575498   3.756169   3.701151   2.416515
    11  C    2.493092   1.457011   2.394501   2.389981   1.398778
    12  H    1.076026   2.105638   3.506842   4.523829   4.111157
    13  H    1.076557   2.102076   2.786760   4.211363   4.430401
    14  H    2.915252   2.135564   1.092418   2.177316   3.048498
    15  H    2.807625   2.161580   1.089725   2.196497   3.237321
    16  H    4.281768   3.094174   2.186154   1.092910   2.132467
    17  H    4.530666   3.271935   2.199778   1.090834   2.154179
    18  H    5.764394   4.488216   4.282217   2.876102   2.150191
    19  H    5.246673   4.704585   5.752691   5.333156   3.847750
    20  H    2.971945   2.878843   4.284343   4.539846   3.399567
                    6          7          8          9         10
     6  C    0.000000
     7  C    1.387208   0.000000
     8  Br   2.851132   1.908904   0.000000
     9  C    2.427047   1.386185   2.851050   0.000000
    10  C    2.807669   2.394421   4.150235   1.384185   0.000000
    11  C    2.417161   2.746193   4.655048   2.390726   1.387390
    12  H    5.189753   5.239138   7.068479   4.306693   2.936693
    13  H    5.747086   6.201627   8.107517   5.579143   4.218416
    14  H    4.320587   5.273631   7.046914   5.291017   4.319938
    15  H    4.557122   5.548314   7.343769   5.561351   4.545968
    16  H    2.958890   4.209986   5.702478   4.763626   4.302498
    17  H    2.898930   4.200323   5.640281   4.828729   4.425794
    18  H    1.079510   2.148980   2.955876   3.402379   3.887092
    19  H    3.396534   2.139034   2.940915   1.079246   2.144578
    20  H    3.886652   3.373374   4.988689   2.138006   1.078994
                   11         12         13         14         15
    11  C    0.000000
    12  H    2.785650   0.000000
    13  H    3.463163   1.830412   0.000000
    14  H    3.040675   3.901461   2.990750   0.000000
    15  H    3.221844   3.840467   2.748874   1.760135   0.000000
    16  H    3.062824   5.082727   4.702461   2.985211   2.360565
    17  H    3.191352   5.361497   4.949591   2.351357   2.866756
    18  H    3.403378   6.183863   6.573391   4.795307   5.013756
    19  H    3.375301   4.851756   6.322833   6.287057   6.569800
    20  H    2.150341   2.409152   4.021466   4.783496   4.986392
                   16         17         18         19         20
    16  H    0.000000
    17  H    1.761077   0.000000
    18  H    3.047201   2.896604   0.000000
    19  H    5.823815   5.892874   4.281462   0.000000
    20  H    5.146543   5.300888   4.966053   2.471238   0.000000
 Stoichiometry    C10H9Br
 Framework group  C1[X(C10H9Br)]
 Deg. of freedom    54
 Full point group                 C1      NOp   1
 Largest Abelian subgroup         C1      NOp   1
 Largest concise Abelian subgroup C1      NOp   1
                         Standard orientation:                         
 ---------------------------------------------------------------------
 Center     Atomic      Atomic             Coordinates (Angstroms)
 Number     Number       Type             X           Y           Z
 ---------------------------------------------------------------------
      1          6           0       -3.943562    1.383938   -0.080415
      2          6           0       -3.080490    0.378664    0.009279
      3          6           0       -3.445540   -1.083549    0.129060
      4          6           0       -2.135760   -1.865539   -0.069792
      5          6           0       -1.069178   -0.814420   -0.024378
      6          6           0        0.298599   -0.993365   -0.028818
      7          6           0        1.100067    0.138533   -0.000530
      8         35           0        2.997144   -0.073623    0.000955
      9          6           0        0.567610    1.418072    0.027392
     10          6           0       -0.806209    1.587157    0.028717
     11          6           0       -1.626248    0.468319    0.004479
     12          1           0       -3.619802    2.406983   -0.160348
     13          1           0       -5.006848    1.215429   -0.078434
     14          1           0       -3.856146   -1.269366    1.124174
     15          1           0       -4.207717   -1.362903   -0.597953
     16          1           0       -2.118326   -2.368588   -1.039890
     17          1           0       -1.983992   -2.626373    0.697030
     18          1           0        0.738047   -1.979096   -0.052537
     19          1           0        1.225536    2.273280    0.050277
     20          1           0       -1.226517    2.580593    0.054268
 ---------------------------------------------------------------------
 Rotational constants (GHZ):           2.5156325           0.3727280           0.3261492
 Standard basis: MIDIx (5D, 7F)
 There are   137 symmetry adapted cartesian basis functions of A   symmetry.
 There are   135 symmetry adapted basis functions of A   symmetry.
   135 basis functions,   240 primitive gaussians,   137 cartesian basis functions
    52 alpha electrons       52 beta electrons
       nuclear repulsion energy       787.6656810611 Hartrees.
 NAtoms=   20 NActive=   20 NUniq=   20 SFac= 1.00D+00 NAtFMM=   60 NAOKFM=F Big=F
 Integral buffers will be    131072 words long.
 Raffenetti 2 integral format.
 Two-electron integral symmetry is turned on.
 Nuclear repulsion after empirical dispersion term =      787.6533002744 Hartrees.
 One-electron integrals computed using PRISM.
 NBasis=   135 RedAO= T EigKep=  1.10D-03  NBF=   135
 NBsUse=   135 1.00D-06 EigRej= -1.00D+00 NBFU=   135
 ExpMin= 1.47D-01 ExpMax= 6.10D+03 ExpMxC= 6.10D+03 IAcc=3 IRadAn=         5 AccDes= 0.00D+00
 Harris functional with IExCor= 4639 and IRadAn=       5 diagonalized for initial guess.
 HarFok:  IExCor= 4639 AccDes= 0.00D+00 IRadAn=         5 IDoV= 1 UseB2=F ITyADJ=14
 ICtDFT=  3500011 ScaDFX=  1.000000  1.000000  1.000000  1.000000
 FoFCou: FMM=F IPFlag=           0 FMFlag=      100000 FMFlg1=           0
         NFxFlg=           0 DoJE=T BraDBF=F KetDBF=T FulRan=T
         wScrn=  0.000000 ICntrl=       500 IOpCl=  0 I1Cent=   200000004 NGrid=           0
         NMat0=    1 NMatS0=      1 NMatT0=    0 NMatD0=    1 NMtDS0=    0 NMtDT0=    0
 Petite list used in FoFCou.
 Requested convergence on RMS density matrix=1.00D-08 within 128 cycles.
 Requested convergence on MAX density matrix=1.00D-06.
 Requested convergence on             energy=1.00D-06.
 No special actions if energy rises.
 Integral accuracy reduced to 1.0D-05 until final iterations.
 Initial convergence to 1.0D-05 achieved.  Increase integral accuracy.
 SCF Done:  E(RwB97XD) =  -2946.12430121     A.U. after   15 cycles
            NFock= 15  Conv=0.89D-08     -V/T= 2.0019
 DoSCS=F DFT=T ScalE2(SS,OS)=  1.000000  1.000000
 Range of M.O.s used for correlation:     1   135
 NBasis=   135 NAE=    52 NBE=    52 NFC=     0 NFV=     0
 NROrb=    135 NOA=    52 NOB=    52 NVA=    83 NVB=    83
          Differentiating once with respect to magnetic field using GIAOs.
          Electric field/nuclear overlap derivatives assumed to be zero.
 FoFCou: FMM=F IPFlag=           0 FMFlag=      100000 FMFlg1=           0
         NFxFlg=           0 DoJE=F BraDBF=F KetDBF=T FulRan=T
         wScrn=  0.000000 ICntrl=      6100 IOpCl=  0 I1Cent=           7 NGrid=          20
         NMat0=    1 NMatS0=      1 NMatT0=    0 NMatD0=    1 NMtDS0=    0 NMtDT0=    0
 Symmetry not used in FoFCou.
 FoFJK:  IHMeth= 1 ICntrl=    6127 DoSepK=T KAlg= 0 I1Cent=           0 FoldK=F
 IRaf=         1 NMat=       1 IRICut=       1 DoRegI=T DoRafI=F ISym2E= 0 IDoP0=0 IntGTp=1.
          There are     3 degrees of freedom in the 1st order CPHF.  IDoFFX=0 NUNeed=     3.
      3 vectors produced by pass  0 Test12= 1.44D-13 3.33D-08 XBig12= 1.42D+01 6.20D-01.
 AX will form     3 AO Fock derivatives at one time.
      3 vectors produced by pass  1 Test12= 1.44D-13 3.33D-08 XBig12= 1.19D-01 1.16D-01.
      3 vectors produced by pass  2 Test12= 1.44D-13 3.33D-08 XBig12= 2.57D-03 1.75D-02.
      3 vectors produced by pass  3 Test12= 1.44D-13 3.33D-08 XBig12= 3.20D-05 1.97D-03.
      3 vectors produced by pass  4 Test12= 1.44D-13 3.33D-08 XBig12= 5.41D-07 4.09D-04.
      3 vectors produced by pass  5 Test12= 1.44D-13 3.33D-08 XBig12= 1.23D-08 4.91D-05.
      3 vectors produced by pass  6 Test12= 1.44D-13 3.33D-08 XBig12= 1.49D-10 3.22D-06.
      3 vectors produced by pass  7 Test12= 1.44D-13 3.33D-08 XBig12= 1.73D-12 5.07D-07.
      1 vectors produced by pass  8 Test12= 1.44D-13 3.33D-08 XBig12= 2.62D-14 6.52D-08.
 InvSVY:  IOpt=1 It=  1 EMax= 1.33D-15
 Solved reduced A of dimension    25 with     3 vectors.
 Calculating GIAO nuclear magnetic shielding tensors.
 SCF GIAO Magnetic shielding tensor (ppm):
      1  C    Isotropic =   105.9745   Anisotropy =   120.3599
   XX=    58.8531   YX=   -53.0930   ZX=     2.6283
   XY=   -49.8841   YY=    74.3184   ZY=     9.1689
   XZ=    -0.8404   YZ=    14.5869   ZZ=   184.7519
   Eigenvalues:    14.1019   117.6071   186.2144
      2  C    Isotropic =    69.2849   Anisotropy =   121.3502
   XX=    21.2272   YX=   -54.4405   ZX=     0.7218
   XY=   -53.2151   YY=    37.7413   ZY=    10.8159
   XZ=     1.0047   YZ=    11.4773   ZZ=   148.8862
   Eigenvalues:   -25.3339    83.0036   150.1850
      3  C    Isotropic =   175.2384   Anisotropy =    31.8992
   XX=   179.9307   YX=    -0.2913   ZX=    -2.1283
   XY=    -0.8821   YY=   196.4833   ZY=     1.3900
   XZ=    -4.5467   YZ=    -1.3362   ZZ=   149.3013
   Eigenvalues:   148.9418   180.2689   196.5045
      4  C    Isotropic =   176.4362   Anisotropy =    29.3793
   XX=   193.0984   YX=     7.0814   ZX=    -2.2914
   XY=     5.1531   YY=   182.9445   ZY=     0.1061
   XZ=    -2.3694   YZ=     2.8724   ZZ=   153.2657
   Eigenvalues:   153.0129   180.2733   196.0225
      5  C    Isotropic =    70.9921   Anisotropy =   141.8150
   XX=    32.7606   YX=   -21.3652   ZX=    -1.1862
   XY=   -32.3595   YY=    14.8105   ZY=    -4.7662
   XZ=    -6.2999   YZ=    -0.5354   ZZ=   165.4053
   Eigenvalues:    -4.6472    52.0881   165.5355
      6  C    Isotropic =    86.1116   Anisotropy =   128.4701
   XX=    72.3985   YX=    26.3937   ZX=     0.1752
   XY=    26.8748   YY=    14.3111   ZY=    -3.7907
   XZ=    -0.8680   YZ=    -4.9348   ZZ=   171.6250
   Eigenvalues:     3.8552    82.7212   171.7583
      7  C    Isotropic =    79.5891   Anisotropy =   108.5111
   XX=     1.1280   YX=    10.1324   ZX=    -0.2856
   XY=    12.0148   YY=    85.7590   ZY=    -1.4849
   XZ=     1.9636   YZ=    -2.0638   ZZ=   151.8803
   Eigenvalues:    -0.3043    87.1418   151.9298
      8  Br   Isotropic =  2180.2952   Anisotropy =  1190.6107
   XX=  2959.1267   YX=  -132.6704   ZX=     0.6360
   XY=  -127.0891   YY=  1842.4153   ZY=     2.4762
   XZ=     3.0211   YZ=     0.0553   ZZ=  1739.3436
   Eigenvalues:  1739.3170  1827.5329  2974.0357
      9  C    Isotropic =    85.3224   Anisotropy =   138.5734
   XX=    53.8794   YX=   -35.6659   ZX=    -1.3263
   XY=   -40.6512   YY=    24.4534   ZY=    -3.7851
   XZ=    -0.8484   YZ=    -2.7439   ZZ=   177.6345
   Eigenvalues:    -1.7913    80.0539   177.7047
     10  C    Isotropic =    92.9753   Anisotropy =   154.2132
   XX=    66.6407   YX=    24.6083   ZX=     0.4450
   XY=    22.0419   YY=    16.6992   ZY=    -4.3036
   XZ=    -2.8936   YZ=    -6.6732   ZZ=   195.5861
   Eigenvalues:     7.3845    75.7574   195.7841
     11  C    Isotropic =    77.8004   Anisotropy =   146.6065
   XX=     0.3619   YX=     1.8526   ZX=     0.1955
   XY=    14.2193   YY=    57.8410   ZY=    -3.2096
   XZ=     0.1565   YZ=    -9.4284   ZZ=   175.1984
   Eigenvalues:    -0.7465    58.6098   175.5381
     12  H    Isotropic =    27.1729   Anisotropy =     6.6792
   XX=    27.8102   YX=    -4.0818   ZX=     0.3216
   XY=    -1.8140   YY=    29.2835   ZY=    -0.1961
   XZ=     0.7343   YZ=    -0.3454   ZZ=    24.4249
   Eigenvalues:    24.3321    25.5608    31.6257
     13  H    Isotropic =    27.7971   Anisotropy =     6.4726
   XX=    29.2832   YX=    -2.0289   ZX=     0.2179
   XY=    -4.4871   YY=    28.3467   ZY=    -0.1274
   XZ=     0.1772   YZ=    -0.0012   ZZ=    25.7615
   Eigenvalues:    25.4982    25.7810    32.1122
     14  H    Isotropic =    30.2362   Anisotropy =     9.5389
   XX=    30.5004   YX=    -0.2183   ZX=    -4.5188
   XY=     0.2845   YY=    29.2324   ZY=    -1.8868
   XZ=    -6.2239   YZ=    -3.1631   ZZ=    30.9760
   Eigenvalues:    24.6670    29.4462    36.5955
     15  H    Isotropic =    30.3696   Anisotropy =     9.2267
   XX=    33.9893   YX=     0.5942   ZX=     3.9184
   XY=     1.5688   YY=    29.8485   ZY=     1.9184
   XZ=     4.4078   YZ=     2.2508   ZZ=    27.2710
   Eigenvalues:    24.8533    29.7347    36.5207
     16  H    Isotropic =    30.1154   Anisotropy =     9.6679
   XX=    29.7806   YX=     0.3806   ZX=    -0.4656
   XY=    -0.0364   YY=    30.6794   ZY=     5.0087
   XZ=     0.5110   YZ=     7.5160   ZZ=    29.8861
   Eigenvalues:    24.0061    29.7794    36.5606
     17  H    Isotropic =    30.2457   Anisotropy =     9.4347
   XX=    30.1723   YX=    -0.4802   ZX=     0.3012
   XY=    -1.1220   YY=    33.5393   ZY=    -4.5709
   XZ=    -0.1693   YZ=    -5.9068   ZZ=    27.0256
   Eigenvalues:    24.0955    30.1061    36.5355
     18  H    Isotropic =    25.8798   Anisotropy =     8.5379
   XX=    30.3424   YX=     2.5070   ZX=     0.0963
   XY=     2.4861   YY=    26.4963   ZY=     0.1230
   XZ=     0.0177   YZ=     0.1080   ZZ=    20.8005
   Eigenvalues:    20.7982    25.2694    31.5717
     19  H    Isotropic =    25.8658   Anisotropy =     7.0347
   XX=    28.1009   YX=    -2.4463   ZX=    -0.0357
   XY=    -2.2240   YY=    28.3302   ZY=     0.1251
   XZ=    -0.0269   YZ=     0.2048   ZZ=    21.1664
   Eigenvalues:    21.1625    25.8793    30.5556
     20  H    Isotropic =    25.5922   Anisotropy =     4.8759
   XX=    28.7040   YX=     0.6768   ZX=     0.0631
   XY=     0.4030   YY=    26.6498   ZY=     0.0219
   XZ=     0.3008   YZ=     0.1973   ZZ=    21.4228
   Eigenvalues:    21.4165    26.5173    28.8428
 End of Minotr F.D. properties file   721 does not exist.
 End of Minotr F.D. properties file   722 does not exist.
 End of Minotr F.D. properties file   788 does not exist.

 **********************************************************************

            Population analysis using the SCF Density.

 **********************************************************************

 Orbital symmetries:
       Occupied  (A) (A) (A) (A) (A) (A) (A) (A) (A) (A) (A) (A)
                 (A) (A) (A) (A) (A) (A) (A) (A) (A) (A) (A) (A)
                 (A) (A) (A) (A) (A) (A) (A) (A) (A) (A) (A) (A)
                 (A) (A) (A) (A) (A) (A) (A) (A) (A) (A) (A) (A)
                 (A) (A) (A) (A)
       Virtual   (A) (A) (A) (A) (A) (A) (A) (A) (A) (A) (A) (A)
                 (A) (A) (A) (A) (A) (A) (A) (A) (A) (A) (A) (A)
                 (A) (A) (A) (A) (A) (A) (A) (A) (A) (A) (A) (A)
                 (A) (A) (A) (A) (A) (A) (A) (A) (A) (A) (A) (A)
                 (A) (A) (A) (A) (A) (A) (A) (A) (A) (A) (A) (A)
                 (A) (A) (A) (A) (A) (A) (A) (A) (A) (A) (A) (A)
                 (A) (A) (A) (A) (A) (A) (A) (A) (A) (A) (A)
 The electronic state is 1-A.
 Alpha  occ. eigenvalues -- -480.14403 -62.57790 -56.16687 -56.16263 -56.16250
 Alpha  occ. eigenvalues --  -10.29393 -10.25156 -10.24779 -10.24722 -10.24693
 Alpha  occ. eigenvalues --  -10.24674 -10.24613 -10.24139 -10.23732 -10.21971
 Alpha  occ. eigenvalues --   -8.88632  -6.67107  -6.65690  -6.65674  -2.77413
 Alpha  occ. eigenvalues --   -2.76921  -2.76905  -2.75737  -2.75732  -1.00776
 Alpha  occ. eigenvalues --   -0.95422  -0.89437  -0.88397  -0.83647  -0.81974
 Alpha  occ. eigenvalues --   -0.75034  -0.72495  -0.67743  -0.65254  -0.59093
 Alpha  occ. eigenvalues --   -0.57610  -0.56323  -0.54438  -0.53541  -0.51598
 Alpha  occ. eigenvalues --   -0.49336  -0.48244  -0.46152  -0.45603  -0.44168
 Alpha  occ. eigenvalues --   -0.43246  -0.41686  -0.40610  -0.36044  -0.35104
 Alpha  occ. eigenvalues --   -0.33554  -0.28946
 Alpha virt. eigenvalues --    0.03218   0.06380   0.09004   0.13505   0.18458
 Alpha virt. eigenvalues --    0.19387   0.20511   0.21665   0.22670   0.23936
 Alpha virt. eigenvalues --    0.25982   0.27099   0.27880   0.30790   0.31197
 Alpha virt. eigenvalues --    0.34477   0.36554   0.38414   0.40390   0.44235
 Alpha virt. eigenvalues --    0.45035   0.48748   0.50600   0.54476   0.56482
 Alpha virt. eigenvalues --    0.57016   0.59815   0.62406   0.63419   0.64581
 Alpha virt. eigenvalues --    0.64655   0.65487   0.67600   0.68522   0.72007
 Alpha virt. eigenvalues --    0.72208   0.73120   0.75875   0.76687   0.78195
 Alpha virt. eigenvalues --    0.80338   0.84841   0.86199   0.87544   0.89129
 Alpha virt. eigenvalues --    0.89261   0.93130   0.94780   0.96015   0.96778
 Alpha virt. eigenvalues --    0.97020   0.97856   0.99136   0.99271   1.00474
 Alpha virt. eigenvalues --    1.00664   1.01621   1.03958   1.04194   1.05296
 Alpha virt. eigenvalues --    1.06606   1.07083   1.07906   1.10285   1.10448
 Alpha virt. eigenvalues --    1.13208   1.14124   1.16337   1.20724   1.21368
 Alpha virt. eigenvalues --    1.25442   1.30630   1.30837   1.35848   1.40625
 Alpha virt. eigenvalues --    1.47626   1.56608   1.62471   1.62971   1.68495
 Alpha virt. eigenvalues --    1.81660   1.85245   2.02121
          Condensed to atoms (all electrons):
               1          2          3          4          5          6
     1  C    4.977454   0.619808  -0.025431   0.002928   0.000942   0.000067
     2  C    0.619808   5.005987   0.319368  -0.077837  -0.037805   0.000398
     3  C   -0.025431   0.319368   5.178390   0.328947  -0.076305   0.003001
     4  C    0.002928  -0.077837   0.328947   5.135382   0.286665   0.001600
     5  C    0.000942  -0.037805  -0.076305   0.286665   5.130593   0.465826
     6  C    0.000067   0.000398   0.003001   0.001600   0.465826   4.894896
     7  C   -0.000013   0.000953  -0.000172   0.000280  -0.019779   0.483960
     8  Br  -0.000000   0.000001   0.000001  -0.000025   0.002331  -0.040445
     9  C    0.000172   0.000124  -0.000073   0.000725  -0.040532  -0.037967
    10  C   -0.004884   0.006737   0.001717   0.000660  -0.016784  -0.024140
    11  C   -0.033444   0.334564  -0.073433  -0.043574   0.461277  -0.021627
    12  H    0.396531  -0.023815   0.003397  -0.000185   0.000294  -0.000000
    13  H    0.398225  -0.027492  -0.008430   0.000194  -0.000116  -0.000000
    14  H   -0.005084  -0.029714   0.390022  -0.032184   0.002247  -0.000128
    15  H   -0.003570  -0.030775   0.394277  -0.029592   0.003715  -0.000051
    16  H   -0.000015   0.002316  -0.030356   0.389193  -0.028264  -0.004993
    17  H   -0.000033   0.003931  -0.030831   0.397718  -0.029666  -0.004335
    18  H    0.000000  -0.000072   0.000058  -0.004444  -0.015995   0.390588
    19  H    0.000001  -0.000023   0.000001   0.000004   0.000098   0.002522
    20  H    0.002475  -0.006536   0.000086  -0.000079   0.002791  -0.000071
               7          8          9         10         11         12
     1  C   -0.000013  -0.000000   0.000172  -0.004884  -0.033444   0.396531
     2  C    0.000953   0.000001   0.000124   0.006737   0.334564  -0.023815
     3  C   -0.000172   0.000001  -0.000073   0.001717  -0.073433   0.003397
     4  C    0.000280  -0.000025   0.000725   0.000660  -0.043574  -0.000185
     5  C   -0.019779   0.002331  -0.040532  -0.016784   0.461277   0.000294
     6  C    0.483960  -0.040445  -0.037967  -0.024140  -0.021627  -0.000000
     7  C    5.046193   0.213099   0.470490  -0.031168  -0.050745  -0.000002
     8  Br   0.213099  34.935832  -0.039105   0.001841   0.000399  -0.000000
     9  C    0.470490  -0.039105   4.961417   0.501862  -0.030526  -0.000000
    10  C   -0.031168   0.001841   0.501862   4.858425   0.460350   0.001209
    11  C   -0.050745   0.000399  -0.030526   0.460350   5.065632  -0.010875
    12  H   -0.000002  -0.000000  -0.000000   0.001209  -0.010875   0.482226
    13  H    0.000000  -0.000000  -0.000002   0.000101   0.004088  -0.026926
    14  H    0.000006  -0.000000   0.000002  -0.000106   0.002488  -0.000114
    15  H    0.000003  -0.000000   0.000002  -0.000050   0.003690  -0.000085
    16  H    0.000082   0.000000  -0.000003  -0.000071  -0.000239   0.000004
    17  H    0.000113  -0.000001  -0.000006  -0.000040   0.001307   0.000003
    18  H   -0.018465   0.000566   0.002324   0.000011   0.002521   0.000000
    19  H   -0.021934   0.000589   0.395308  -0.017881   0.003031   0.000001
    20  H    0.002856  -0.000056  -0.021256   0.396211  -0.019538   0.003799
              13         14         15         16         17         18
     1  C    0.398225  -0.005084  -0.003570  -0.000015  -0.000033   0.000000
     2  C   -0.027492  -0.029714  -0.030775   0.002316   0.003931  -0.000072
     3  C   -0.008430   0.390022   0.394277  -0.030356  -0.030831   0.000058
     4  C    0.000194  -0.032184  -0.029592   0.389193   0.397718  -0.004444
     5  C   -0.000116   0.002247   0.003715  -0.028264  -0.029666  -0.015995
     6  C   -0.000000  -0.000128  -0.000051  -0.004993  -0.004335   0.390588
     7  C    0.000000   0.000006   0.000003   0.000082   0.000113  -0.018465
     8  Br  -0.000000  -0.000000  -0.000000   0.000000  -0.000001   0.000566
     9  C   -0.000002   0.000002   0.000002  -0.000003  -0.000006   0.002324
    10  C    0.000101  -0.000106  -0.000050  -0.000071  -0.000040   0.000011
    11  C    0.004088   0.002488   0.003690  -0.000239   0.001307   0.002521
    12  H   -0.026926  -0.000114  -0.000085   0.000004   0.000003   0.000000
    13  H    0.481693   0.000961   0.001898  -0.000006  -0.000004  -0.000000
    14  H    0.000961   0.479533  -0.022662   0.002906  -0.006115  -0.000002
    15  H    0.001898  -0.022662   0.477667  -0.005547   0.001607  -0.000002
    16  H   -0.000006   0.002906  -0.005547   0.483889  -0.025767   0.000655
    17  H   -0.000004  -0.006115   0.001607  -0.025767   0.480255   0.001167
    18  H   -0.000000  -0.000002  -0.000002   0.000655   0.001167   0.434451
    19  H   -0.000000  -0.000000  -0.000000  -0.000000  -0.000000  -0.000057
    20  H   -0.000072  -0.000003  -0.000001   0.000002   0.000003   0.000006
              19         20
     1  C    0.000001   0.002475
     2  C   -0.000023  -0.006536
     3  C    0.000001   0.000086
     4  C    0.000004  -0.000079
     5  C    0.000098   0.002791
     6  C    0.002522  -0.000071
     7  C   -0.021934   0.002856
     8  Br   0.000589  -0.000056
     9  C    0.395308  -0.021256
    10  C   -0.017881   0.396211
    11  C    0.003031  -0.019538
    12  H    0.000001   0.003799
    13  H   -0.000000  -0.000072
    14  H   -0.000000  -0.000003
    15  H   -0.000000  -0.000001
    16  H   -0.000000   0.000002
    17  H   -0.000000   0.000003
    18  H   -0.000057   0.000006
    19  H    0.432542  -0.004012
    20  H   -0.004012   0.444085
 Mulliken charges:
               1
     1  C   -0.326127
     2  C   -0.060116
     3  C   -0.374234
     4  C   -0.356377
     5  C   -0.091531
     6  C   -0.109098
     7  C   -0.075757
     8  Br  -0.075028
     9  C   -0.162957
    10  C   -0.134000
    11  C   -0.055345
    12  H    0.174540
    13  H    0.175887
    14  H    0.217947
    15  H    0.209478
    16  H    0.216214
    17  H    0.210693
    18  H    0.206690
    19  H    0.209810
    20  H    0.199311
 Sum of Mulliken charges =  -0.00000
 Mulliken charges with hydrogens summed into heavy atoms:
               1
     1  C    0.024299
     2  C   -0.060116
     3  C    0.053191
     4  C    0.070531
     5  C   -0.091531
     6  C    0.097592
     7  C   -0.075757
     8  Br  -0.075028
     9  C    0.046853
    10  C    0.065311
    11  C   -0.055345
 Electronic spatial extent (au):  <R**2>=           3036.3672
 Charge=              0.0000 electrons
 Dipole moment (field-independent basis, Debye):
    X=             -1.7620    Y=             -0.4430    Z=              0.0190  Tot=              1.8169
 Quadrupole moment (field-independent basis, Debye-Ang):
   XX=            -73.8208   YY=            -69.5136   ZZ=            -80.3054
   XY=              1.8813   XZ=             -0.0223   YZ=              0.0158
 Traceless Quadrupole moment (field-independent basis, Debye-Ang):
   XX=              0.7258   YY=              5.0330   ZZ=             -5.7588
   XY=              1.8813   XZ=             -0.0223   YZ=              0.0158
 Octapole moment (field-independent basis, Debye-Ang**2):
  XXX=             83.1745  YYY=              3.3190  ZZZ=              0.4357  XYY=             27.7530
  XXY=             -6.1972  XXZ=             -0.1974  XZZ=             35.2579  YZZ=             -6.1700
  YYZ=             -0.1643  XYZ=              0.5587
 Hexadecapole moment (field-independent basis, Debye-Ang**3):
 XXXX=          -2695.3092 YYYY=           -595.2149 ZZZZ=            -96.7871 XXXY=              0.6589
 XXXZ=              3.6946 YYYX=            -14.3036 YYYZ=             -1.1110 ZZZX=             -2.3349
 ZZZY=              0.2534 XXYY=           -566.7529 XXZZ=           -512.5135 YYZZ=           -126.5614
 XXYZ=             -1.2252 YYXZ=              2.0504 ZZXY=             11.0169
 N-N= 7.876533002744D+02 E-N=-8.588896570522D+03  KE= 2.940556299272D+03
 Unable to Open any file for archive entry.
 1\1\GINC-DYNAMO\SP\RwB97XD\MIDIx\C10H9Br1\RPATON\26-Sep-2024\0\\# wb97
 xd midix nmr=giao\\energy: -30.071168380890 gnorm: 0.000653469021 xtb:
  6.7.0 (08769fc)\\0,1\C,0,-3.95261,1.37087,-0.0836\C,0,-3.08472,0.3698
 4,0.00706\C,0,-3.44273,-1.09413,0.12662\C,0,-2.12894,-1.86972,-0.07084
 \C,0,-1.06756,-0.81339,-0.02446\C,0,0.30108,-0.98564,-0.02751\C,0,1.09
 697,0.15017,0.00147\Br,0,2.99506,-0.0527,0.00488\C,0,0.55823,1.42709,0
 .02873\C,0,-0.8164,1.58945,0.02866\C,0,-1.63093,0.46661,0.00371\H,0,-3
 .63378,2.39548,-0.16331\H,0,-5.01506,1.19716,-0.08267\H,0,-3.85342,-1.
 28186,1.12134\H,0,-4.2028,-1.37728,-0.60113\H,0,-2.10807,-2.37277,-1.0
 4087\H,0,-1.97422,-2.62973,0.69621\H,0,0.74537,-1.96921,-0.05069\H,0,1
 .21194,2.28551,0.05219\H,0,-1.24159,2.58082,0.05369\\Version=ES64L-G16
 RevC.01\State=1-A\HF=-2946.1243012\RMSD=8.925e-09\Dipole=-0.6923746,-0
 .1776722,0.0068076\Quadrupole=0.526037,3.7555167,-4.2815537,1.3829176,
 -0.0119231,0.012284\PG=C01 [X(C10H9Br1)]\\@
 The archive entry for this job was punched.


 THE FIRST MORNING OF CREATION WROTE WHAT THE LAST DAWN OF
 RECKONING SHALL READ. -- OMAR KHAYYAM
 Job cpu time:       0 days  0 hours  3 minutes 45.5 seconds.
 Elapsed time:       0 days  0 hours  0 minutes 10.9 seconds.
 File lengths (MBytes):  RWF=     16 Int=      0 D2E=      0 Chk=      3 Scr=      1
 Normal termination of Gaussian 16 at Thu Sep 26 14:12:30 2024.
