 Entering Gaussian System, Link 0=/usr/local/Gaussian/G16C/g16/g16
 Input=arbr35_wb97xd_nmr.com
 Output=arbr35_wb97xd_nmr.log
 Initial command:
 /usr/local/Gaussian/G16C/g16/l1.exe "/home/rpaton/opt/midi/nmr/Gau-1263201.inp" -scrdir="/home/rpaton/opt/midi/nmr/"
 Entering Link 1 = /usr/local/Gaussian/G16C/g16/l1.exe PID=   1263202.
  
 Copyright (c) 1988-2019, Gaussian, Inc.  All Rights Reserved.
  
 This is part of the Gaussian(R) 16 program.  It is based on
 the Gaussian(R) 09 system (copyright 2009, Gaussian, Inc.),
 the Gaussian(R) 03 system (copyright 2003, Gaussian, Inc.),
 the Gaussian(R) 98 system (copyright 1998, Gaussian, Inc.),
 the Gaussian(R) 94 system (copyright 1995, Gaussian, Inc.),
 the Gaussian 92(TM) system (copyright 1992, Gaussian, Inc.),
 the Gaussian 90(TM) system (copyright 1990, Gaussian, Inc.),
 the Gaussian 88(TM) system (copyright 1988, Gaussian, Inc.),
 the Gaussian 86(TM) system (copyright 1986, Carnegie Mellon
 University), and the Gaussian 82(TM) system (copyright 1983,
 Carnegie Mellon University). Gaussian is a federally registered
 trademark of Gaussian, Inc.
  
 This software contains proprietary and confidential information,
 including trade secrets, belonging to Gaussian, Inc.
  
 This software is provided under written license and may be
 used, copied, transmitted, or stored only in accord with that
 written license.
  
 The following legend is applicable only to US Government
 contracts under FAR:
  
                    RESTRICTED RIGHTS LEGEND
  
 Use, reproduction and disclosure by the US Government is
 subject to restrictions as set forth in subparagraphs (a)
 and (c) of the Commercial Computer Software - Restricted
 Rights clause in FAR 52.227-19.
  
 Gaussian, Inc.
 340 Quinnipiac St., Bldg. 40, Wallingford CT 06492
  
  
 ---------------------------------------------------------------
 Warning -- This program may not be used in any manner that
 competes with the business of Gaussian, Inc. or will provide
 assistance to any competitor of Gaussian, Inc.  The licensee
 of this program is prohibited from giving any competitor of
 Gaussian, Inc. access to this program.  By using this program,
 the user acknowledges that Gaussian, Inc. is engaged in the
 business of creating and licensing software in the field of
 computational chemistry and represents and warrants to the
 licensee that it is not a competitor of Gaussian, Inc. and that
 it will not use this program in any manner prohibited above.
 ---------------------------------------------------------------
  

 Cite this work as:
 Gaussian 16, Revision C.01,
 M. J. Frisch, G. W. Trucks, H. B. Schlegel, G. E. Scuseria, 
 M. A. Robb, J. R. Cheeseman, G. Scalmani, V. Barone, 
 G. A. Petersson, H. Nakatsuji, X. Li, M. Caricato, A. V. Marenich, 
 J. Bloino, B. G. Janesko, R. Gomperts, B. Mennucci, H. P. Hratchian, 
 J. V. Ortiz, A. F. Izmaylov, J. L. Sonnenberg, D. Williams-Young, 
 F. Ding, F. Lipparini, F. Egidi, J. Goings, B. Peng, A. Petrone, 
 T. Henderson, D. Ranasinghe, V. G. Zakrzewski, J. Gao, N. Rega, 
 G. Zheng, W. Liang, M. Hada, M. Ehara, K. Toyota, R. Fukuda, 
 J. Hasegawa, M. Ishida, T. Nakajima, Y. Honda, O. Kitao, H. Nakai, 
 T. Vreven, K. Throssell, J. A. Montgomery, Jr., J. E. Peralta, 
 F. Ogliaro, M. J. Bearpark, J. J. Heyd, E. N. Brothers, K. N. Kudin, 
 V. N. Staroverov, T. A. Keith, R. Kobayashi, J. Normand, 
 K. Raghavachari, A. P. Rendell, J. C. Burant, S. S. Iyengar, 
 J. Tomasi, M. Cossi, J. M. Millam, M. Klene, C. Adamo, R. Cammi, 
 J. W. Ochterski, R. L. Martin, K. Morokuma, O. Farkas, 
 J. B. Foresman, and D. J. Fox, Gaussian, Inc., Wallingford CT, 2019.
 
 ******************************************
 Gaussian 16:  ES64L-G16RevC.01  3-Jul-2019
                26-Sep-2024 
 ******************************************
 %chk=arbr35_wb97xd_nmr.chk
 %mem=48GB
 %nprocshared=24
 Will use up to   24 processors via shared memory.
 -------------------------
 # nmr=giao mpw1pw91/midix
 -------------------------
 1/38=1,172=1/1;
 2/12=2,17=6,18=5,40=1/2;
 3/5=20,11=2,25=1,30=1,74=-7/1,2,3,8;
 4//1;
 5/5=2,38=5/2;
 8/6=1,10=90,11=11/1;
 10/13=100,45=16/2;
 6/7=2,8=2,9=2,10=2,28=1/1;
 99/9=1/99;
 ----------------------------------------
 arbr35_wb97xd_nmrcreated by GaussianPrep
 ----------------------------------------
 Symbolic Z-matrix:
 Charge =  0 Multiplicity = 1
 Br                    5.9094   -0.30755  0. 
 C                     4.05286   0.08795  0. 
 C                     3.63851   1.41715   0. 
 C                     2.28042   1.72066   0. 
 C                     1.35618   0.68495   0. 
 C                     1.78628  -0.6495    0. 
 C                     3.13431  -0.95876   0. 
 C                     0.5926   -1.58668   0.00001 
 C                    -0.57521  -0.61706   0. 
 C                    -1.93094  -0.88998   0. 
 C                    -2.82997   0.1766    0. 
 I                    -4.90362  -0.20778  0. 
 C                    -2.37171   1.49368   0. 
 C                    -1.00614   1.76275   0. 
 C                    -0.1088    0.70447   0. 
 H                     4.37917   2.21063   0. 
 H                     1.95652   2.75863   0. 
 H                     3.47859  -1.98932   0. 
 H                     0.58396  -2.23626   0.8871 
 H                     0.58396  -2.23627  -0.88709 
 H                    -2.29064  -1.91567   0. 
 H                    -3.08216   2.31471   0. 
 H                    -0.65682   2.79252   0. 
 
                          Input orientation:                          
 ---------------------------------------------------------------------
 Center     Atomic      Atomic             Coordinates (Angstroms)
 Number     Number       Type             X           Y           Z
 ---------------------------------------------------------------------
      1         35           0        5.909399   -0.307550   -0.000002
      2          6           0        4.052858    0.087953   -0.000004
      3          6           0        3.638512    1.417152    0.000001
      4          6           0        2.280421    1.720656    0.000002
      5          6           0        1.356175    0.684952    0.000002
      6          6           0        1.786282   -0.649499    0.000003
      7          6           0        3.134311   -0.958761    0.000000
      8          6           0        0.592604   -1.586681    0.000005
      9          6           0       -0.575212   -0.617062    0.000003
     10          6           0       -1.930942   -0.889980    0.000002
     11          6           0       -2.829974    0.176601    0.000000
     12         53           0       -4.903621   -0.207775   -0.000002
     13          6           0       -2.371709    1.493678    0.000001
     14          6           0       -1.006136    1.762752    0.000002
     15          6           0       -0.108798    0.704467    0.000003
     16          1           0        4.379174    2.210631    0.000001
     17          1           0        1.956516    2.758625    0.000003
     18          1           0        3.478587   -1.989323    0.000000
     19          1           0        0.583958   -2.236262    0.887102
     20          1           0        0.583956   -2.236270   -0.887085
     21          1           0       -2.290637   -1.915668    0.000002
     22          1           0       -3.082159    2.314710    0.000000
     23          1           0       -0.656816    2.792520    0.000000
 ---------------------------------------------------------------------
                    Distance matrix (angstroms):
                    1          2          3          4          5
     1  Br   0.000000
     2  C    1.898201   0.000000
     3  C    2.851583   1.392283   0.000000
     4  C    4.157295   2.409824   1.391591   0.000000
     5  C    4.660140   2.761975   2.396910   1.388133   0.000000
     6  C    4.137272   2.383527   2.775212   2.421117   1.402053
     7  C    2.850472   1.392601   2.428823   2.812188   2.421479
     8  C    5.468499   3.844185   4.277916   3.713112   2.396530
     9  C    6.491993   4.681461   4.679049   3.690470   2.329269
    10  C    7.861945   6.063185   6.028406   4.954896   3.644935
    11  C    8.752773   6.883403   6.586371   5.338562   4.216902
    12  I   10.813480   8.961360   8.695310   7.438367   6.323133
    13  C    8.474737   6.576559   6.010708   4.657664   3.814598
    14  C    7.218779   5.329012   4.657488   3.286827   2.596568
    15  C    6.102694   4.207074   3.814479   2.596345   1.465103
    16  H    2.946663   2.147614   1.085444   2.155189   3.386181
    17  H    5.002671   3.395164   2.151432   1.087333   2.158826
    18  H    2.955877   2.155194   3.410227   3.898660   3.414144
    19  H    5.732993   4.268747   4.844036   4.395695   3.149088
    20  H    5.732994   4.268748   4.844040   4.395700   3.149092
    21  H    8.356233   6.652400   6.801654   5.841012   4.479114
    22  H    9.366128   7.474417   6.780341   5.395384   4.728099
    23  H    7.261240   5.430995   4.510153   3.126700   2.914443
                    6          7          8          9         10
     6  C    0.000000
     7  C    1.383049   0.000000
     8  C    1.517622   2.618121   0.000000
     9  C    2.361717   3.725227   1.517879   0.000000
    10  C    3.724995   5.065720   2.617953   1.382927   0.000000
    11  C    4.689591   6.071387   3.850091   2.390367   1.394939
    12  I    6.704470   8.072938   5.666557   4.347717   3.049955
    13  C    4.677830   6.027496   4.275016   2.771755   2.424067
    14  C    3.690061   4.954789   3.711424   2.418514   2.809315
    15  C    2.329067   3.644734   2.396106   1.401421   2.421254
    16  H    3.860496   3.405103   5.362620   5.704541   7.030743
    17  H    3.412373   3.899508   4.554332   4.219586   5.331477
    18  H    2.158477   1.086547   2.913935   4.279765   5.520105
    19  H    2.179528   2.987182   1.099532   2.180007   2.987331
    20  H    2.179531   2.987183   1.099531   2.180007   2.987329
    21  H    4.269011   5.508696   2.901950   2.151525   1.086930
    22  H    5.699847   7.025675   5.359546   3.857469   3.405193
    23  H    4.220927   5.333362   4.553949   3.410558   3.896691
                   11         12         13         14         15
    11  C    0.000000
    12  I    2.108971   0.000000
    13  C    1.394525   3.050495   0.000000
    14  C    2.417077   4.367306   1.391830   0.000000
    15  C    2.771902   4.880831   2.396585   1.387510   0.000000
    16  H    7.490600   9.592652   6.788847   5.403902   4.733965
    17  H    5.438505   7.474022   4.509282   3.125551   2.912917
    18  H    6.670020   8.569441   6.808617   5.847291   4.486183
    19  H    4.273616   5.917367   4.841009   4.394025   3.148768
    20  H    4.273615   5.917365   4.841011   4.394029   3.148772
    21  H    2.160665   3.121632   3.410310   3.896244   3.409623
    22  H    2.152930   3.111375   1.085741   2.148146   3.381384
    23  H    3.400830   5.199723   2.151243   1.087404   2.158770
                   16         17         18         19         20
    16  H    0.000000
    17  H    2.483862   0.000000
    18  H    4.295424   4.985951   0.000000
    19  H    5.913161   5.255450   3.037566   0.000000
    20  H    5.913166   5.255456   3.037563   1.774187   0.000000
    21  H    7.843005   6.315641   5.769694   3.025396   3.025392
    22  H    7.462059   5.058192   7.846534   5.910898   5.910900
    23  H    5.069496   2.613552   6.321992   5.255009   5.255013
                   21         22         23
    21  H    0.000000
    22  H    4.303790   0.000000
    23  H    4.983614   2.471961   0.000000
 Stoichiometry    C13H8BrI
 Framework group  C1[X(C13H8BrI)]
 Deg. of freedom    63
 Full point group                 C1      NOp   1
 Largest Abelian subgroup         C1      NOp   1
 Largest concise Abelian subgroup C1      NOp   1
                         Standard orientation:                         
 ---------------------------------------------------------------------
 Center     Atomic      Atomic             Coordinates (Angstroms)
 Number     Number       Type             X           Y           Z
 ---------------------------------------------------------------------
      1         35           0        5.909399   -0.307550   -0.000002
      2          6           0        4.052858    0.087953   -0.000004
      3          6           0        3.638512    1.417152    0.000001
      4          6           0        2.280421    1.720656    0.000002
      5          6           0        1.356175    0.684952    0.000002
      6          6           0        1.786282   -0.649499    0.000003
      7          6           0        3.134311   -0.958761    0.000000
      8          6           0        0.592604   -1.586681    0.000005
      9          6           0       -0.575212   -0.617062    0.000003
     10          6           0       -1.930942   -0.889980    0.000002
     11          6           0       -2.829974    0.176601    0.000000
     12         53           0       -4.903621   -0.207775   -0.000002
     13          6           0       -2.371709    1.493678    0.000001
     14          6           0       -1.006136    1.762752    0.000002
     15          6           0       -0.108798    0.704467    0.000003
     16          1           0        4.379174    2.210631    0.000001
     17          1           0        1.956516    2.758625    0.000003
     18          1           0        3.478587   -1.989323    0.000000
     19          1           0        0.583958   -2.236262    0.887102
     20          1           0        0.583956   -2.236270   -0.887085
     21          1           0       -2.290637   -1.915668    0.000002
     22          1           0       -3.082159    2.314710    0.000000
     23          1           0       -0.656816    2.792520    0.000000
 ---------------------------------------------------------------------
 Rotational constants (GHZ):           1.9892233           0.0756827           0.0729422
 Standard basis: MIDIx (5D, 7F)
 There are   201 symmetry adapted cartesian basis functions of A   symmetry.
 There are   196 symmetry adapted basis functions of A   symmetry.
   196 basis functions,   375 primitive gaussians,   201 cartesian basis functions
    87 alpha electrons       87 beta electrons
       nuclear repulsion energy      1623.7147976735 Hartrees.
 NAtoms=   23 NActive=   23 NUniq=   23 SFac= 1.00D+00 NAtFMM=   60 NAOKFM=F Big=F
 Integral buffers will be    131072 words long.
 Raffenetti 2 integral format.
 Two-electron integral symmetry is turned on.
 One-electron integrals computed using PRISM.
 NBasis=   196 RedAO= T EigKep=  1.02D-03  NBF=   196
 NBsUse=   196 1.00D-06 EigRej= -1.00D+00 NBFU=   196
 Defaulting to unpruned grid for atomic number  53.
 ExpMin= 1.15D-01 ExpMax= 1.44D+04 ExpMxC= 1.44D+04 IAcc=3 IRadAn=         5 AccDes= 0.00D+00
 Harris functional with IExCor=  908 and IRadAn=       5 diagonalized for initial guess.
 HarFok:  IExCor=  908 AccDes= 0.00D+00 IRadAn=         5 IDoV= 1 UseB2=F ITyADJ=14
 ICtDFT=  3500011 ScaDFX=  1.000000  1.000000  1.000000  1.000000
 Defaulting to unpruned grid for atomic number  53.
 FoFCou: FMM=F IPFlag=           0 FMFlag=      100000 FMFlg1=           0
         NFxFlg=           0 DoJE=T BraDBF=F KetDBF=T FulRan=T
         wScrn=  0.000000 ICntrl=       500 IOpCl=  0 I1Cent=   200000004 NGrid=           0
         NMat0=    1 NMatS0=      1 NMatT0=    0 NMatD0=    1 NMtDS0=    0 NMtDT0=    0
 Petite list used in FoFCou.
 Requested convergence on RMS density matrix=1.00D-08 within 128 cycles.
 Requested convergence on MAX density matrix=1.00D-06.
 Requested convergence on             energy=1.00D-06.
 No special actions if energy rises.
 Integral accuracy reduced to 1.0D-05 until final iterations.
 Defaulting to unpruned grid for atomic number  53.
 Defaulting to unpruned grid for atomic number  53.
 Defaulting to unpruned grid for atomic number  53.
 Defaulting to unpruned grid for atomic number  53.
 Defaulting to unpruned grid for atomic number  53.
 Defaulting to unpruned grid for atomic number  53.
 Defaulting to unpruned grid for atomic number  53.
 Defaulting to unpruned grid for atomic number  53.
 Defaulting to unpruned grid for atomic number  53.
 Defaulting to unpruned grid for atomic number  53.
 Defaulting to unpruned grid for atomic number  53.
 Defaulting to unpruned grid for atomic number  53.
 Defaulting to unpruned grid for atomic number  53.
 Defaulting to unpruned grid for atomic number  53.
 Defaulting to unpruned grid for atomic number  53.
 Defaulting to unpruned grid for atomic number  53.
 Defaulting to unpruned grid for atomic number  53.
 Defaulting to unpruned grid for atomic number  53.
 Defaulting to unpruned grid for atomic number  53.
 Defaulting to unpruned grid for atomic number  53.
 Defaulting to unpruned grid for atomic number  53.
 Defaulting to unpruned grid for atomic number  53.
 Defaulting to unpruned grid for atomic number  53.
 Defaulting to unpruned grid for atomic number  53.
 Initial convergence to 1.0D-05 achieved.  Increase integral accuracy.
 SCF Done:  E(RmPW1PW91) =  -9949.92199196     A.U. after   16 cycles
            NFock= 16  Conv=0.26D-08     -V/T= 1.9997
 DoSCS=F DFT=T ScalE2(SS,OS)=  1.000000  1.000000
 Range of M.O.s used for correlation:     1   196
 NBasis=   196 NAE=    87 NBE=    87 NFC=     0 NFV=     0
 NROrb=    196 NOA=    87 NOB=    87 NVA=   109 NVB=   109
          Differentiating once with respect to magnetic field using GIAOs.
          Electric field/nuclear overlap derivatives assumed to be zero.
 Defaulting to unpruned grid for atomic number  53.
 FoFCou: FMM=F IPFlag=           0 FMFlag=      100000 FMFlg1=           0
         NFxFlg=           0 DoJE=F BraDBF=F KetDBF=T FulRan=T
         wScrn=  0.000000 ICntrl=      6100 IOpCl=  0 I1Cent=           7 NGrid=          23
         NMat0=    1 NMatS0=      1 NMatT0=    0 NMatD0=    1 NMtDS0=    0 NMtDT0=    0
 Symmetry not used in FoFCou.
 FoFJK:  IHMeth= 1 ICntrl=    6127 DoSepK=F KAlg= 0 I1Cent=           0 FoldK=F
 IRaf=         1 NMat=       1 IRICut=       1 DoRegI=T DoRafI=F ISym2E= 0 IDoP0=0 IntGTp=1.
 Defaulting to unpruned grid for atomic number  53.
 Defaulting to unpruned grid for atomic number  53.
 Defaulting to unpruned grid for atomic number  53.
 Defaulting to unpruned grid for atomic number  53.
 Defaulting to unpruned grid for atomic number  53.
 Defaulting to unpruned grid for atomic number  53.
 Defaulting to unpruned grid for atomic number  53.
 Defaulting to unpruned grid for atomic number  53.
 Defaulting to unpruned grid for atomic number  53.
 Defaulting to unpruned grid for atomic number  53.
 Defaulting to unpruned grid for atomic number  53.
 Defaulting to unpruned grid for atomic number  53.
 Defaulting to unpruned grid for atomic number  53.
 Defaulting to unpruned grid for atomic number  53.
 Defaulting to unpruned grid for atomic number  53.
 Defaulting to unpruned grid for atomic number  53.
 Defaulting to unpruned grid for atomic number  53.
 Defaulting to unpruned grid for atomic number  53.
 Defaulting to unpruned grid for atomic number  53.
 Defaulting to unpruned grid for atomic number  53.
 Defaulting to unpruned grid for atomic number  53.
 Defaulting to unpruned grid for atomic number  53.
 Defaulting to unpruned grid for atomic number  53.
 Defaulting to unpruned grid for atomic number  53.
          There are     3 degrees of freedom in the 1st order CPHF.  IDoFFX=0 NUNeed=     3.
      3 vectors produced by pass  0 Test12= 3.16D-13 3.33D-08 XBig12= 3.82D+01 1.62D+00.
 AX will form     3 AO Fock derivatives at one time.
      3 vectors produced by pass  1 Test12= 3.16D-13 3.33D-08 XBig12= 1.73D-01 1.71D-01.
      3 vectors produced by pass  2 Test12= 3.16D-13 3.33D-08 XBig12= 7.25D-04 7.60D-03.
      3 vectors produced by pass  3 Test12= 3.16D-13 3.33D-08 XBig12= 2.35D-06 9.30D-04.
      3 vectors produced by pass  4 Test12= 3.16D-13 3.33D-08 XBig12= 2.06D-08 8.42D-05.
      3 vectors produced by pass  5 Test12= 3.16D-13 3.33D-08 XBig12= 9.85D-11 2.89D-06.
      2 vectors produced by pass  6 Test12= 3.16D-13 3.33D-08 XBig12= 3.19D-13 1.52D-07.
 InvSVY:  IOpt=1 It=  1 EMax= 8.88D-16
 Solved reduced A of dimension    20 with     3 vectors.
 Calculating GIAO nuclear magnetic shielding tensors.
 SCF GIAO Magnetic shielding tensor (ppm):
      1  Br   Isotropic =  2165.3230   Anisotropy =  1143.3480
   XX=  2878.1190   YX=  -231.4610   ZX=     0.0032
   XY=  -227.4808   YY=  1862.4004   ZY=    -0.0007
   XZ=     0.0005   YZ=     0.0008   ZZ=  1755.4494
   Eigenvalues:  1755.4494  1812.9645  2927.5550
      2  C    Isotropic =    79.4559   Anisotropy =   106.6801
   XX=     7.2526   YX=    16.4046   ZX=     0.0002
   XY=    17.6980   YY=    80.5392   ZY=    -0.0001
   XZ=     0.0002   YZ=    -0.0000   ZZ=   150.5760
   Eigenvalues:     3.4796    84.3122   150.5760
      3  C    Isotropic =    84.1016   Anisotropy =   136.9539
   XX=    45.0357   YX=   -36.8888   ZX=     0.0001
   XY=   -40.8943   YY=    31.8648   ZY=    -0.0003
   XZ=    -0.0002   YZ=    -0.0004   ZZ=   175.4042
   Eigenvalues:    -0.9949    77.8954   175.4042
      4  C    Isotropic =    93.3527   Anisotropy =   147.7965
   XX=    72.6527   YX=    18.0284   ZX=     0.0001
   XY=    16.2076   YY=    15.5216   ZY=    -0.0002
   XZ=     0.0002   YZ=    -0.0002   ZZ=   191.8836
   Eigenvalues:    10.7853    77.3891   191.8836
      5  C    Isotropic =    78.7337   Anisotropy =   137.5763
   XX=     6.6925   YX=     9.3234   ZX=     0.0001
   XY=    19.5284   YY=    59.0573   ZY=     0.0000
   XZ=     0.0002   YZ=     0.0001   ZZ=   170.4512
   Eigenvalues:     2.9813    62.7685   170.4512
      6  C    Isotropic =    75.1737   Anisotropy =   141.2872
   XX=    31.5610   YX=   -23.3366   ZX=     0.0002
   XY=   -31.2228   YY=    24.5949   ZY=     0.0001
   XZ=     0.0006   YZ=    -0.0003   ZZ=   169.3652
   Eigenvalues:     0.5768    55.5791   169.3652
      7  C    Isotropic =    86.0556   Anisotropy =   126.6097
   XX=    75.4815   YX=    18.7399   ZX=     0.0003
   XY=    19.8382   YY=    12.2233   ZY=     0.0001
   XZ=    -0.0000   YZ=     0.0003   ZZ=   170.4620
   Eigenvalues:     6.8056    80.8992   170.4620
      8  C    Isotropic =   165.5850   Anisotropy =    31.1641
   XX=   186.3592   YX=    -0.2173   ZX=    -0.0001
   XY=    -0.1763   YY=   165.7776   ZY=    -0.0000
   XZ=    -0.0001   YZ=    -0.0001   ZZ=   144.6182
   Eigenvalues:   144.6182   165.7758   186.3611
      9  C    Isotropic =    75.1824   Anisotropy =   139.7653
   XX=    33.3816   YX=    25.2958   ZX=    -0.0001
   XY=    30.5779   YY=    23.8063   ZY=     0.0001
   XZ=    -0.0003   YZ=    -0.0003   ZZ=   168.3593
   Eigenvalues:     0.2499    56.9380   168.3593
     10  C    Isotropic =    81.8581   Anisotropy =   125.6519
   XX=    74.6080   YX=   -20.2170   ZX=    -0.0001
   XY=   -25.7621   YY=     5.3403   ZY=     0.0001
   XZ=    -0.0001   YZ=     0.0001   ZZ=   165.6260
   Eigenvalues:    -1.5954    81.5437   165.6260
     11  C    Isotropic =    89.8363   Anisotropy =   105.0102
   XX=    13.6770   YX=   -15.9220   ZX=    -0.0002
   XY=   -16.9749   YY=    95.9888   ZY=    -0.0000
   XZ=    -0.0002   YZ=     0.0000   ZZ=   159.8431
   Eigenvalues:    10.5118    99.1540   159.8431
     12  I    Isotropic =  3787.9375   Anisotropy =  2345.0238
   XX=  5276.9421   YX=   398.4033   ZX=     0.0021
   XY=   392.4385   YY=  3248.1385   ZY=     0.0003
   XZ=     0.0022   YZ=     0.0010   ZZ=  2838.7318
   Eigenvalues:  2838.7318  3173.7939  5351.2867
     13  C    Isotropic =    79.8940   Anisotropy =   136.2511
   XX=    44.5834   YX=    38.5826   ZX=    -0.0001
   XY=    47.2434   YY=    24.3705   ZY=     0.0001
   XZ=    -0.0001   YZ=     0.0002   ZZ=   170.7281
   Eigenvalues:    -9.6101    78.5640   170.7281
     14  C    Isotropic =    93.4211   Anisotropy =   145.6867
   XX=    73.0724   YX=   -21.4939   ZX=    -0.0000
   XY=   -17.0592   YY=    16.6453   ZY=     0.0002
   XZ=    -0.0001   YZ=     0.0002   ZZ=   190.5455
   Eigenvalues:    10.6888    79.0288   190.5455
     15  C    Isotropic =    77.9430   Anisotropy =   140.0290
   XX=     4.8306   YX=    -7.5183   ZX=    -0.0000
   XY=   -17.7319   YY=    57.7027   ZY=     0.0001
   XZ=     0.0000   YZ=     0.0003   ZZ=   171.2957
   Eigenvalues:     1.9706    60.5626   171.2957
     16  H    Isotropic =    25.5358   Anisotropy =     7.0862
   XX=    27.6192   YX=    -2.2974   ZX=    -0.0000
   XY=    -1.9581   YY=    28.5454   ZY=     0.0000
   XZ=    -0.0000   YZ=     0.0000   ZZ=    20.4428
   Eigenvalues:    20.4428    25.9047    30.2599
     17  H    Isotropic =    25.1526   Anisotropy =     5.9424
   XX=    29.0072   YX=     0.5839   ZX=    -0.0000
   XY=     0.4396   YY=    26.6643   ZY=     0.0000
   XZ=     0.0000   YZ=     0.0000   ZZ=    19.7861
   Eigenvalues:    19.7861    26.5574    29.1141
     18  H    Isotropic =    25.5426   Anisotropy =     8.9306
   XX=    30.8271   YX=     2.0204   ZX=    -0.0000
   XY=     1.7943   YY=    26.0598   ZY=     0.0000
   XZ=    -0.0000   YZ=    -0.0000   ZZ=    19.7407
   Eigenvalues:    19.7407    25.3906    31.4963
     19  H    Isotropic =    28.9245   Anisotropy =     8.6479
   XX=    29.9801   YX=    -0.0857   ZX=    -0.0213
   XY=    -0.0517   YY=    30.1486   ZY=    -4.0938
   XZ=    -0.0871   YZ=    -7.9947   ZZ=    26.6446
   Eigenvalues:    22.1027    29.9809    34.6898
     20  H    Isotropic =    28.9245   Anisotropy =     8.6479
   XX=    29.9802   YX=    -0.0857   ZX=     0.0213
   XY=    -0.0517   YY=    30.1487   ZY=     4.0937
   XZ=     0.0871   YZ=     7.9947   ZZ=    26.6446
   Eigenvalues:    22.1027    29.9810    34.6898
     21  H    Isotropic =    25.5092   Anisotropy =    11.0958
   XX=    31.8056   YX=    -3.0893   ZX=     0.0000
   XY=    -2.5465   YY=    25.6933   ZY=    -0.0000
   XZ=     0.0000   YZ=    -0.0000   ZZ=    19.0288
   Eigenvalues:    19.0288    24.5924    32.9064
     22  H    Isotropic =    25.5189   Anisotropy =     9.2744
   XX=    28.1097   YX=     3.6189   ZX=     0.0000
   XY=     2.9564   YY=    28.6928   ZY=     0.0000
   XZ=     0.0000   YZ=     0.0000   ZZ=    19.7542
   Eigenvalues:    19.7542    25.1007    31.7018
     23  H    Isotropic =    25.1871   Anisotropy =     5.9518
   XX=    29.0935   YX=    -0.4935   ZX=     0.0000
   XY=    -0.2790   YY=    26.7280   ZY=     0.0000
   XZ=     0.0000   YZ=    -0.0000   ZZ=    19.7398
   Eigenvalues:    19.7398    26.6665    29.1549
 End of Minotr F.D. properties file   721 does not exist.
 End of Minotr F.D. properties file   722 does not exist.
 End of Minotr F.D. properties file   788 does not exist.

 **********************************************************************

            Population analysis using the SCF Density.

 **********************************************************************

 Orbital symmetries:
       Occupied  (A) (A) (A) (A) (A) (A) (A) (A) (A) (A) (A) (A)
                 (A) (A) (A) (A) (A) (A) (A) (A) (A) (A) (A) (A)
                 (A) (A) (A) (A) (A) (A) (A) (A) (A) (A) (A) (A)
                 (A) (A) (A) (A) (A) (A) (A) (A) (A) (A) (A) (A)
                 (A) (A) (A) (A) (A) (A) (A) (A) (A) (A) (A) (A)
                 (A) (A) (A) (A) (A) (A) (A) (A) (A) (A) (A) (A)
                 (A) (A) (A) (A) (A) (A) (A) (A) (A) (A) (A) (A)
                 (A) (A) (A)
       Virtual   (A) (A) (A) (A) (A) (A) (A) (A) (A) (A) (A) (A)
                 (A) (A) (A) (A) (A) (A) (A) (A) (A) (A) (A) (A)
                 (A) (A) (A) (A) (A) (A) (A) (A) (A) (A) (A) (A)
                 (A) (A) (A) (A) (A) (A) (A) (A) (A) (A) (A) (A)
                 (A) (A) (A) (A) (A) (A) (A) (A) (A) (A) (A) (A)
                 (A) (A) (A) (A) (A) (A) (A) (A) (A) (A) (A) (A)
                 (A) (A) (A) (A) (A) (A) (A) (A) (A) (A) (A) (A)
                 (A) (A) (A) (A) (A) (A) (A) (A) (A) (A) (A) (A)
                 (A) (A) (A) (A) (A) (A) (A) (A) (A) (A) (A) (A)
                 (A)
 The electronic state is 1-A.
 Alpha  occ. eigenvalues -- **********-480.36675-175.95780-164.69448-164.69223
 Alpha  occ. eigenvalues -- -164.69211 -62.57607 -56.15702 -56.15287 -56.15277
 Alpha  occ. eigenvalues --  -35.92392 -31.07310 -31.06817 -31.06810 -22.98728
 Alpha  occ. eigenvalues --  -22.98507 -22.98480 -22.98096 -22.98092 -10.25339
 Alpha  occ. eigenvalues --  -10.24604 -10.21633 -10.21560 -10.21448 -10.21354
 Alpha  occ. eigenvalues --  -10.21265 -10.21039 -10.20978 -10.20859 -10.20847
 Alpha  occ. eigenvalues --  -10.20782 -10.20768  -8.85500  -6.62991  -6.61607
 Alpha  occ. eigenvalues --   -6.61581  -6.44265  -4.73829  -4.72431  -4.72426
 Alpha  occ. eigenvalues --   -2.71581  -2.71091  -2.71083  -2.69930  -2.69925
 Alpha  occ. eigenvalues --   -2.09100  -2.08605  -2.08590  -2.07371  -2.07369
 Alpha  occ. eigenvalues --   -0.95042  -0.91449  -0.86969  -0.82958  -0.80865
 Alpha  occ. eigenvalues --   -0.79664  -0.75401  -0.73916  -0.68976  -0.66047
 Alpha  occ. eigenvalues --   -0.63257  -0.61413  -0.60553  -0.55723  -0.52626
 Alpha  occ. eigenvalues --   -0.50031  -0.48218  -0.48014  -0.47596  -0.47096
 Alpha  occ. eigenvalues --   -0.44770  -0.44291  -0.42640  -0.40867  -0.40419
 Alpha  occ. eigenvalues --   -0.38487  -0.37260  -0.36644  -0.35667  -0.34491
 Alpha  occ. eigenvalues --   -0.30563  -0.29732  -0.28347  -0.27437  -0.27315
 Alpha  occ. eigenvalues --   -0.26625  -0.23031
 Alpha virt. eigenvalues --   -0.04276  -0.02492  -0.01944  -0.00065   0.01714
 Alpha virt. eigenvalues --    0.02932   0.10794   0.11813   0.11959   0.12427
 Alpha virt. eigenvalues --    0.15190   0.15815   0.16533   0.19691   0.19955
 Alpha virt. eigenvalues --    0.20010   0.22513   0.25045   0.27136   0.28088
 Alpha virt. eigenvalues --    0.29146   0.30444   0.30718   0.35589   0.36556
 Alpha virt. eigenvalues --    0.37515   0.38960   0.39684   0.42350   0.42362
 Alpha virt. eigenvalues --    0.43345   0.45566   0.46460   0.48268   0.49598
 Alpha virt. eigenvalues --    0.50655   0.52415   0.53615   0.53709   0.55917
 Alpha virt. eigenvalues --    0.56495   0.56555   0.56699   0.57535   0.57908
 Alpha virt. eigenvalues --    0.58268   0.59182   0.60363   0.60539   0.62005
 Alpha virt. eigenvalues --    0.64290   0.65347   0.68026   0.69576   0.70856
 Alpha virt. eigenvalues --    0.71052   0.74820   0.77056   0.77316   0.78871
 Alpha virt. eigenvalues --    0.82769   0.83455   0.84135   0.84948   0.85042
 Alpha virt. eigenvalues --    0.86232   0.86874   0.87379   0.89182   0.89641
 Alpha virt. eigenvalues --    0.89990   0.90113   0.90930   0.91868   0.92554
 Alpha virt. eigenvalues --    0.93798   0.95105   0.95161   0.96473   0.97241
 Alpha virt. eigenvalues --    0.98155   0.98205   0.99676   1.02191   1.03050
 Alpha virt. eigenvalues --    1.03883   1.06775   1.07695   1.08169   1.10312
 Alpha virt. eigenvalues --    1.12404   1.14598   1.16519   1.19594   1.23917
 Alpha virt. eigenvalues --    1.30710   1.34145   1.37904   1.47988   1.49807
 Alpha virt. eigenvalues --    1.51781   1.55341   1.59033   1.60148   1.71670
 Alpha virt. eigenvalues --    1.74778   1.76244   1.89061   1.93943
          Condensed to atoms (all electrons):
               1          2          3          4          5          6
     1  Br  34.919977   0.214688  -0.040748   0.002060   0.000402   0.002590
     2  C    0.214688   5.056581   0.471557  -0.031836  -0.048902  -0.017882
     3  C   -0.040748   0.471557   4.968188   0.503249  -0.032039  -0.041349
     4  C    0.002060  -0.031836   0.503249   4.847437   0.464090  -0.015033
     5  C    0.000402  -0.048902  -0.032039   0.464090   4.992642   0.465779
     6  C    0.002590  -0.017882  -0.041349  -0.015033   0.465779   5.082278
     7  C   -0.042325   0.482759  -0.041355  -0.024864  -0.023196   0.471147
     8  C   -0.000030   0.000391   0.000828   0.000277  -0.051959   0.323774
     9  C    0.000001  -0.000130  -0.000122   0.001211  -0.045481  -0.081820
    10  C   -0.000000  -0.000000   0.000001   0.000014   0.001365   0.001848
    11  C    0.000000   0.000000   0.000000   0.000001   0.001033  -0.000128
    12  I   -0.000000   0.000000  -0.000000  -0.000000   0.000004   0.000002
    13  C   -0.000000   0.000000  -0.000001   0.000114   0.000732  -0.000138
    14  C   -0.000000   0.000001   0.000110  -0.001647   0.007581   0.001244
    15  C    0.000002   0.001067   0.000652   0.007705   0.348474  -0.045317
    16  H    0.001084  -0.022343   0.390300  -0.017866   0.003218   0.000130
    17  H   -0.000065   0.003041  -0.021117   0.392983  -0.020644   0.003001
    18  H    0.001094  -0.018972   0.002642   0.000043   0.002822  -0.015223
    19  H    0.000000   0.000038  -0.000004  -0.000023   0.001124  -0.026442
    20  H    0.000000   0.000038  -0.000004  -0.000023   0.001124  -0.026441
    21  H   -0.000000  -0.000000  -0.000000   0.000000  -0.000130   0.000101
    22  H   -0.000000  -0.000000   0.000000  -0.000000  -0.000036   0.000001
    23  H   -0.000000   0.000000  -0.000023   0.001578  -0.006807   0.000111
               7          8          9         10         11         12
     1  Br  -0.042325  -0.000030   0.000001  -0.000000   0.000000  -0.000000
     2  C    0.482759   0.000391  -0.000130  -0.000000   0.000000   0.000000
     3  C   -0.041355   0.000828  -0.000122   0.000001   0.000000  -0.000000
     4  C   -0.024864   0.000277   0.001211   0.000014   0.000001  -0.000000
     5  C   -0.023196  -0.051959  -0.045481   0.001365   0.001033   0.000004
     6  C    0.471147   0.323774  -0.081820   0.001848  -0.000128   0.000002
     7  C    4.891175   0.006212   0.001844   0.000020  -0.000000  -0.000000
     8  C    0.006212   5.036367   0.323976   0.006136   0.000391  -0.000055
     9  C    0.001844   0.323976   5.075815   0.480978  -0.023104   0.003818
    10  C    0.000020   0.006136   0.480978   4.886558   0.482991  -0.049827
    11  C   -0.000000   0.000391  -0.023104   0.482991   5.217611   0.265252
    12  I   -0.000000  -0.000055   0.003818  -0.049827   0.265252  52.685848
    13  C    0.000001   0.000898  -0.041741  -0.041032   0.471364  -0.048225
    14  C    0.000015   0.000196  -0.016166  -0.025525  -0.036251   0.003176
    15  C    0.001358  -0.052253   0.465644  -0.022064  -0.048044   0.000429
    16  H    0.002877   0.000005   0.000001  -0.000000  -0.000000  -0.000000
    17  H   -0.000091  -0.000099   0.000116   0.000001   0.000000  -0.000000
    18  H    0.384425  -0.005073   0.000103   0.000001  -0.000000  -0.000000
    19  H   -0.003790   0.381311  -0.026458  -0.003801   0.000039  -0.000001
    20  H   -0.003789   0.381311  -0.026458  -0.003801   0.000039  -0.000001
    21  H    0.000001  -0.005073  -0.017445   0.389332  -0.020308   0.000329
    22  H   -0.000000   0.000005   0.000196   0.002767  -0.023627   0.000463
    23  H    0.000001  -0.000099   0.003011  -0.000060   0.003103  -0.000118
              13         14         15         16         17         18
     1  Br  -0.000000  -0.000000   0.000002   0.001084  -0.000065   0.001094
     2  C    0.000000   0.000001   0.001067  -0.022343   0.003041  -0.018972
     3  C   -0.000001   0.000110   0.000652   0.390300  -0.021117   0.002642
     4  C    0.000114  -0.001647   0.007705  -0.017866   0.392983   0.000043
     5  C    0.000732   0.007581   0.348474   0.003218  -0.020644   0.002822
     6  C   -0.000138   0.001244  -0.045317   0.000130   0.003001  -0.015223
     7  C    0.000001   0.000015   0.001358   0.002877  -0.000091   0.384425
     8  C    0.000898   0.000196  -0.052253   0.000005  -0.000099  -0.005073
     9  C   -0.041741  -0.016166   0.465644   0.000001   0.000116   0.000103
    10  C   -0.041032  -0.025525  -0.022064  -0.000000   0.000001   0.000001
    11  C    0.471364  -0.036251  -0.048044  -0.000000   0.000000  -0.000000
    12  I   -0.048225   0.003176   0.000429  -0.000000  -0.000000  -0.000000
    13  C    4.966645   0.510996  -0.031780   0.000000  -0.000024  -0.000000
    14  C    0.510996   4.842571   0.464274  -0.000000   0.001582  -0.000000
    15  C   -0.031780   0.464274   4.990211  -0.000034  -0.006826  -0.000128
    16  H    0.000000  -0.000000  -0.000034   0.434450  -0.004142  -0.000074
    17  H   -0.000024   0.001582  -0.006826  -0.004142   0.448514   0.000008
    18  H   -0.000000  -0.000000  -0.000128  -0.000074   0.000008   0.437759
    19  H   -0.000005  -0.000022   0.001144  -0.000000   0.000003   0.000840
    20  H   -0.000005  -0.000022   0.001144  -0.000000   0.000003   0.000840
    21  H    0.002536   0.000095   0.002865   0.000000   0.000000   0.000000
    22  H    0.394956  -0.020123   0.003324   0.000000   0.000001   0.000000
    23  H   -0.021511   0.393143  -0.020715   0.000001   0.002533   0.000000
              19         20         21         22         23
     1  Br   0.000000   0.000000  -0.000000  -0.000000  -0.000000
     2  C    0.000038   0.000038  -0.000000  -0.000000   0.000000
     3  C   -0.000004  -0.000004  -0.000000   0.000000  -0.000023
     4  C   -0.000023  -0.000023   0.000000  -0.000000   0.001578
     5  C    0.001124   0.001124  -0.000130  -0.000036  -0.006807
     6  C   -0.026442  -0.026441   0.000101   0.000001   0.000111
     7  C   -0.003790  -0.003789   0.000001  -0.000000   0.000001
     8  C    0.381311   0.381311  -0.005073   0.000005  -0.000099
     9  C   -0.026458  -0.026458  -0.017445   0.000196   0.003011
    10  C   -0.003801  -0.003801   0.389332   0.002767  -0.000060
    11  C    0.000039   0.000039  -0.020308  -0.023627   0.003103
    12  I   -0.000001  -0.000001   0.000329   0.000463  -0.000118
    13  C   -0.000005  -0.000005   0.002536   0.394956  -0.021511
    14  C   -0.000022  -0.000022   0.000095  -0.020123   0.393143
    15  C    0.001144   0.001144   0.002865   0.003324  -0.020715
    16  H   -0.000000  -0.000000   0.000000   0.000000   0.000001
    17  H    0.000003   0.000003   0.000000   0.000001   0.002533
    18  H    0.000840   0.000840   0.000000   0.000000   0.000000
    19  H    0.461197  -0.024199   0.000877  -0.000000   0.000003
    20  H   -0.024199   0.461197   0.000877  -0.000000   0.000003
    21  H    0.000877   0.000877   0.438735  -0.000067   0.000008
    22  H   -0.000000  -0.000000  -0.000067   0.435294  -0.004032
    23  H    0.000003   0.000003   0.000008  -0.004032   0.449221
 Mulliken charges:
               1
     1  Br  -0.058730
     2  C   -0.090097
     3  C   -0.160764
     4  C   -0.129468
     5  C   -0.061198
     6  C   -0.082231
     7  C   -0.102425
     8  C   -0.347437
     9  C   -0.077788
    10  C   -0.105902
    11  C   -0.290362
    12  I    0.138905
    13  C   -0.163779
    14  C   -0.125230
    15  C   -0.061131
    16  H    0.212395
    17  H    0.201223
    18  H    0.208893
    19  H    0.238167
    20  H    0.238166
    21  H    0.207268
    22  H    0.210880
    23  H    0.200647
 Sum of Mulliken charges =  -0.00000
 Mulliken charges with hydrogens summed into heavy atoms:
               1
     1  Br  -0.058730
     2  C   -0.090097
     3  C    0.051631
     4  C    0.071754
     5  C   -0.061198
     6  C   -0.082231
     7  C    0.106467
     8  C    0.128896
     9  C   -0.077788
    10  C    0.101366
    11  C   -0.290362
    12  I    0.138905
    13  C    0.047101
    14  C    0.075418
    15  C   -0.061131
 Electronic spatial extent (au):  <R**2>=          11372.1473
 Charge=             -0.0000 electrons
 Dipole moment (field-independent basis, Debye):
    X=              0.0738    Y=             -0.0028    Z=              0.0000  Tot=              0.0738
 Quadrupole moment (field-independent basis, Debye-Ang):
   XX=           -128.8451   YY=           -108.2049   ZZ=           -126.4431
   XY=              0.4641   XZ=              0.0000   YZ=             -0.0000
 Traceless Quadrupole moment (field-independent basis, Debye-Ang):
   XX=             -7.6807   YY=             12.9595   ZZ=             -5.2787
   XY=              0.4641   XZ=              0.0000   YZ=             -0.0000
 Octapole moment (field-independent basis, Debye-Ang**2):
  XXX=            -65.1408  YYY=            -10.1783  ZZZ=             -0.0001  XYY=             -3.5843
  XXY=             -3.4723  XXZ=              0.0000  XZZ=            -14.3700  YZZ=            -12.0609
  YYZ=             -0.0000  XYZ=             -0.0000
 Hexadecapole moment (field-independent basis, Debye-Ang**3):
 XXXX=         -10130.1314 YYYY=           -737.3891 ZZZZ=           -146.6793 XXXY=             19.2127
 XXXZ=              0.0007 YYYX=             -9.4774 YYYZ=              0.0000 ZZZX=             -0.0001
 ZZZY=             -0.0001 XXYY=          -1796.7633 XXZZ=          -1818.6683 YYZZ=           -169.4429
 XXYZ=             -0.0000 YYXZ=              0.0000 ZZXY=             -7.2786
 N-N= 1.623714797674D+03 E-N=-2.689793576777D+04  KE= 9.952494367531D+03
 Unable to Open any file for archive entry.
 1\1\GINC-DYNAMO\SP\RmPW1PW91\MIDIx\C13H8Br1I1\RPATON\26-Sep-2024\0\\# 
 nmr=giao mpw1pw91/midix\\arbr35_wb97xd_nmrcreated by GaussianPrep\\0,1
 \Br,0,5.909399,-0.30755,-0.000002\C,0,4.052858,0.087953,-0.000004\C,0,
 3.638512,1.417152,0.000001\C,0,2.280421,1.720656,0.000002\C,0,1.356175
 ,0.684952,0.000002\C,0,1.786282,-0.649499,0.000003\C,0,3.134311,-0.958
 761,0.\C,0,0.592604,-1.586681,0.000005\C,0,-0.575212,-0.617062,0.00000
 3\C,0,-1.930942,-0.88998,0.000002\C,0,-2.829974,0.176601,0.\I,0,-4.903
 621,-0.207775,-0.000002\C,0,-2.371709,1.493678,0.000001\C,0,-1.006136,
 1.762752,0.000002\C,0,-0.108798,0.704467,0.000003\H,0,4.379174,2.21063
 1,0.000001\H,0,1.956516,2.758625,0.000003\H,0,3.478587,-1.989323,0.\H,
 0,0.583958,-2.236262,0.887102\H,0,0.583956,-2.23627,-0.887085\H,0,-2.2
 90637,-1.915668,0.000002\H,0,-3.082159,2.31471,0.\H,0,-0.656816,2.7925
 2,0.\\Version=ES64L-G16RevC.01\State=1-A\HF=-9949.921992\RMSD=2.616e-0
 9\Dipole=0.0290309,-0.0011122,0.0000025\Quadrupole=-5.7104455,9.635057
 5,-3.9246119,0.3450699,0.0000163,-0.0000094\PG=C01 [X(C13H8Br1I1)]\\@
 The archive entry for this job was punched.


 NEVER LISTEN TO CRITICISM
 OR YOU'LL BE DOIN' EVERYBODY ELSE'S THING BUT BUT YOUR OWN.

                                               -- ANDY CAPP
 Job cpu time:       0 days  0 hours  7 minutes  6.5 seconds.
 Elapsed time:       0 days  0 hours  0 minutes 20.0 seconds.
 File lengths (MBytes):  RWF=     25 Int=      0 D2E=      0 Chk=      4 Scr=      1
 Normal termination of Gaussian 16 at Thu Sep 26 12:58:23 2024.
