 Entering Gaussian System, Link 0=/usr/local/Gaussian/G16C/g16/g16
 Input=arbr79_wb97xd_nmr.com
 Output=arbr79_wb97xd_nmr.log
 Initial command:
 /usr/local/Gaussian/G16C/g16/l1.exe "/home/rpaton/opt/midi/nmr/Gau-1412337.inp" -scrdir="/home/rpaton/opt/midi/nmr/"
 Entering Link 1 = /usr/local/Gaussian/G16C/g16/l1.exe PID=   1412338.
  
 Copyright (c) 1988-2019, Gaussian, Inc.  All Rights Reserved.
  
 This is part of the Gaussian(R) 16 program.  It is based on
 the Gaussian(R) 09 system (copyright 2009, Gaussian, Inc.),
 the Gaussian(R) 03 system (copyright 2003, Gaussian, Inc.),
 the Gaussian(R) 98 system (copyright 1998, Gaussian, Inc.),
 the Gaussian(R) 94 system (copyright 1995, Gaussian, Inc.),
 the Gaussian 92(TM) system (copyright 1992, Gaussian, Inc.),
 the Gaussian 90(TM) system (copyright 1990, Gaussian, Inc.),
 the Gaussian 88(TM) system (copyright 1988, Gaussian, Inc.),
 the Gaussian 86(TM) system (copyright 1986, Carnegie Mellon
 University), and the Gaussian 82(TM) system (copyright 1983,
 Carnegie Mellon University). Gaussian is a federally registered
 trademark of Gaussian, Inc.
  
 This software contains proprietary and confidential information,
 including trade secrets, belonging to Gaussian, Inc.
  
 This software is provided under written license and may be
 used, copied, transmitted, or stored only in accord with that
 written license.
  
 The following legend is applicable only to US Government
 contracts under FAR:
  
                    RESTRICTED RIGHTS LEGEND
  
 Use, reproduction and disclosure by the US Government is
 subject to restrictions as set forth in subparagraphs (a)
 and (c) of the Commercial Computer Software - Restricted
 Rights clause in FAR 52.227-19.
  
 Gaussian, Inc.
 340 Quinnipiac St., Bldg. 40, Wallingford CT 06492
  
  
 ---------------------------------------------------------------
 Warning -- This program may not be used in any manner that
 competes with the business of Gaussian, Inc. or will provide
 assistance to any competitor of Gaussian, Inc.  The licensee
 of this program is prohibited from giving any competitor of
 Gaussian, Inc. access to this program.  By using this program,
 the user acknowledges that Gaussian, Inc. is engaged in the
 business of creating and licensing software in the field of
 computational chemistry and represents and warrants to the
 licensee that it is not a competitor of Gaussian, Inc. and that
 it will not use this program in any manner prohibited above.
 ---------------------------------------------------------------
  

 Cite this work as:
 Gaussian 16, Revision C.01,
 M. J. Frisch, G. W. Trucks, H. B. Schlegel, G. E. Scuseria, 
 M. A. Robb, J. R. Cheeseman, G. Scalmani, V. Barone, 
 G. A. Petersson, H. Nakatsuji, X. Li, M. Caricato, A. V. Marenich, 
 J. Bloino, B. G. Janesko, R. Gomperts, B. Mennucci, H. P. Hratchian, 
 J. V. Ortiz, A. F. Izmaylov, J. L. Sonnenberg, D. Williams-Young, 
 F. Ding, F. Lipparini, F. Egidi, J. Goings, B. Peng, A. Petrone, 
 T. Henderson, D. Ranasinghe, V. G. Zakrzewski, J. Gao, N. Rega, 
 G. Zheng, W. Liang, M. Hada, M. Ehara, K. Toyota, R. Fukuda, 
 J. Hasegawa, M. Ishida, T. Nakajima, Y. Honda, O. Kitao, H. Nakai, 
 T. Vreven, K. Throssell, J. A. Montgomery, Jr., J. E. Peralta, 
 F. Ogliaro, M. J. Bearpark, J. J. Heyd, E. N. Brothers, K. N. Kudin, 
 V. N. Staroverov, T. A. Keith, R. Kobayashi, J. Normand, 
 K. Raghavachari, A. P. Rendell, J. C. Burant, S. S. Iyengar, 
 J. Tomasi, M. Cossi, J. M. Millam, M. Klene, C. Adamo, R. Cammi, 
 J. W. Ochterski, R. L. Martin, K. Morokuma, O. Farkas, 
 J. B. Foresman, and D. J. Fox, Gaussian, Inc., Wallingford CT, 2019.
 
 ******************************************
 Gaussian 16:  ES64L-G16RevC.01  3-Jul-2019
                26-Sep-2024 
 ******************************************
 %chk=arbr79_wb97xd_nmr.chk
 %mem=48GB
 %nprocshared=24
 Will use up to   24 processors via shared memory.
 -------------------------
 # nmr=giao mpw1pw91/midix
 -------------------------
 1/38=1,172=1/1;
 2/12=2,17=6,18=5,40=1/2;
 3/5=20,11=2,25=1,30=1,74=-7/1,2,3,8;
 4//1;
 5/5=2,38=5/2;
 8/6=1,10=90,11=11/1;
 10/13=100,45=16/2;
 6/7=2,8=2,9=2,10=2,28=1/1;
 99/9=1/99;
 ----------------------------------------
 arbr79_wb97xd_nmrcreated by GaussianPrep
 ----------------------------------------
 Symbolic Z-matrix:
 Charge =  0 Multiplicity = 1
 C                    -3.95403   1.40146  -0.09124 
 C                    -3.09825   0.38779   0.00782 
 C                    -3.4717   -1.08946   0.14188 
 C                    -2.14257  -1.88223  -0.0773 
 C                    -1.07005  -0.81402  -0.02583 
 C                     0.30452  -0.98927  -0.03035 
 C                     1.11819   0.13833  -0.00039 
 Br                    3.00496  -0.07419   0.00022 
 C                     0.57541   1.42033   0.03142 
 C                    -0.80507   1.5845    0.03503 
 C                    -1.62906   0.46463   0.00737 
 H                    -3.61539   2.43187  -0.18096 
 H                    -5.03025   1.24092  -0.08892 
 H                    -3.86503  -1.28118   1.14963 
 H                    -4.24622  -1.37795  -0.5777 
 H                    -2.13887  -2.38338  -1.05542 
 H                    -1.99219  -2.65321   0.68833 
 H                     0.74525  -1.98222  -0.05668 
 H                     1.23276   2.28373   0.05708 
 H                    -1.22808   2.58581   0.06653 
 
                          Input orientation:                          
 ---------------------------------------------------------------------
 Center     Atomic      Atomic             Coordinates (Angstroms)
 Number     Number       Type             X           Y           Z
 ---------------------------------------------------------------------
      1          6           0       -3.954031    1.401458   -0.091240
      2          6           0       -3.098252    0.387789    0.007816
      3          6           0       -3.471698   -1.089460    0.141875
      4          6           0       -2.142573   -1.882227   -0.077304
      5          6           0       -1.070048   -0.814024   -0.025833
      6          6           0        0.304518   -0.989267   -0.030351
      7          6           0        1.118190    0.138326   -0.000392
      8         35           0        3.004963   -0.074191    0.000222
      9          6           0        0.575408    1.420329    0.031421
     10          6           0       -0.805067    1.584504    0.035028
     11          6           0       -1.629059    0.464626    0.007367
     12          1           0       -3.615388    2.431866   -0.180957
     13          1           0       -5.030253    1.240916   -0.088923
     14          1           0       -3.865030   -1.281180    1.149627
     15          1           0       -4.246225   -1.377947   -0.577697
     16          1           0       -2.138869   -2.383376   -1.055416
     17          1           0       -1.992185   -2.653211    0.688326
     18          1           0        0.745247   -1.982218   -0.056676
     19          1           0        1.232760    2.283725    0.057079
     20          1           0       -1.228075    2.585806    0.066532
 ---------------------------------------------------------------------
                    Distance matrix (angstroms):
                    1          2          3          4          5
     1  C    0.000000
     2  C    1.330299   0.000000
     3  C    2.547874   1.529607   0.000000
     4  C    3.750222   2.464455   1.563039   0.000000
     5  C    3.637306   2.357774   2.423203   1.514601   0.000000
     6  C    4.884108   3.671047   3.781469   2.605348   1.385699
     7  C    5.227923   4.223823   4.753396   3.836812   2.386630
     8  Br   7.114317   6.120679   6.557284   5.456384   4.141708
     9  C    4.531139   3.816081   4.763434   4.278565   2.775453
    10  C    3.156806   2.586806   3.777886   3.717494   2.413888
    11  C    2.508560   1.471201   2.414248   2.403869   1.395902
    12  H    1.088333   2.116912   3.539012   4.559751   4.127786
    13  H    1.088133   2.114193   2.813008   4.253569   4.462060
    14  H    2.957063   2.162669   1.098649   2.198517   3.067876
    15  H    2.836743   2.185976   1.095856   2.220370   3.272715
    16  H    4.306903   3.119332   2.210013   1.099030   2.159927
    17  H    4.571313   3.306684   2.221010   1.096915   2.177836
    18  H    5.790827   4.515925   4.314981   2.889624   2.158917
    19  H    5.263382   4.728072   5.789429   5.363403   3.860809
    20  H    2.976308   2.886570   4.306635   4.562928   3.404754
                    6          7          8          9         10
     6  C    0.000000
     7  C    1.390836   0.000000
     8  Br   2.851439   1.898704   0.000000
     9  C    2.425562   1.392536   2.852595   0.000000
    10  C    2.803525   2.406575   4.155576   1.390208   0.000000
    11  C    2.419493   2.766570   4.665248   2.402836   1.390631
    12  H    5.205045   5.263050   7.081115   4.316374   2.943225
    13  H    5.782467   6.247151   8.142613   5.609822   4.240945
    14  H    4.343120   5.307544   7.069283   5.316580   4.337955
    15  H    4.599991   5.604401   7.390095   5.607987   4.581825
    16  H    2.994067   4.252116   5.736350   4.797571   4.325756
    17  H    2.925756   4.235734   5.665361   4.859813   4.449076
    18  H    1.086686   2.153825   2.958060   3.407922   3.890166
    19  H    3.403198   2.149225   2.950204   1.085460   2.154561
    20  H    3.890935   3.391106   4.999859   2.147585   1.087444
                   11         12         13         14         15
    11  C    0.000000
    12  H    2.801964   0.000000
    13  H    3.489988   1.851668   0.000000
    14  H    3.058131   3.952149   3.041828   0.000000
    15  H    3.253757   3.882014   2.777057   1.771531   0.000000
    16  H    3.082293   5.111882   4.736001   3.009432   2.383286
    17  H    3.211927   5.408184   4.999820   2.367027   2.882674
    18  H    3.410055   6.206023   6.614078   4.816770   5.054839
    19  H    3.391401   4.856248   6.350913   6.315827   6.620427
    20  H    2.159559   2.405039   4.036019   4.804186   5.023505
                   16         17         18         19         20
    16  H    0.000000
    17  H    1.770583   0.000000
    18  H    3.078398   2.915269   0.000000
    19  H    5.864074   5.930605   4.295216   0.000000
    20  H    5.175044   5.330834   4.977552   2.479325   0.000000
 Stoichiometry    C10H9Br
 Framework group  C1[X(C10H9Br)]
 Deg. of freedom    54
 Full point group                 C1      NOp   1
 Largest Abelian subgroup         C1      NOp   1
 Largest concise Abelian subgroup C1      NOp   1
                         Standard orientation:                         
 ---------------------------------------------------------------------
 Center     Atomic      Atomic             Coordinates (Angstroms)
 Number     Number       Type             X           Y           Z
 ---------------------------------------------------------------------
      1          6           0       -3.954031    1.401458   -0.091240
      2          6           0       -3.098252    0.387789    0.007816
      3          6           0       -3.471698   -1.089460    0.141875
      4          6           0       -2.142573   -1.882227   -0.077304
      5          6           0       -1.070048   -0.814024   -0.025833
      6          6           0        0.304518   -0.989267   -0.030351
      7          6           0        1.118190    0.138326   -0.000392
      8         35           0        3.004963   -0.074191    0.000222
      9          6           0        0.575408    1.420329    0.031421
     10          6           0       -0.805067    1.584504    0.035028
     11          6           0       -1.629059    0.464626    0.007367
     12          1           0       -3.615388    2.431866   -0.180957
     13          1           0       -5.030253    1.240916   -0.088923
     14          1           0       -3.865030   -1.281180    1.149627
     15          1           0       -4.246225   -1.377947   -0.577697
     16          1           0       -2.138869   -2.383376   -1.055416
     17          1           0       -1.992185   -2.653211    0.688326
     18          1           0        0.745247   -1.982218   -0.056676
     19          1           0        1.232760    2.283725    0.057079
     20          1           0       -1.228075    2.585806    0.066532
 ---------------------------------------------------------------------
 Rotational constants (GHZ):           2.4893700           0.3699673           0.3236572
 Standard basis: MIDIx (5D, 7F)
 There are   137 symmetry adapted cartesian basis functions of A   symmetry.
 There are   135 symmetry adapted basis functions of A   symmetry.
   135 basis functions,   240 primitive gaussians,   137 cartesian basis functions
    52 alpha electrons       52 beta electrons
       nuclear repulsion energy       784.6075535962 Hartrees.
 NAtoms=   20 NActive=   20 NUniq=   20 SFac= 1.00D+00 NAtFMM=   60 NAOKFM=F Big=F
 Integral buffers will be    131072 words long.
 Raffenetti 2 integral format.
 Two-electron integral symmetry is turned on.
 One-electron integrals computed using PRISM.
 NBasis=   135 RedAO= T EigKep=  1.13D-03  NBF=   135
 NBsUse=   135 1.00D-06 EigRej= -1.00D+00 NBFU=   135
 ExpMin= 1.47D-01 ExpMax= 6.10D+03 ExpMxC= 6.10D+03 IAcc=3 IRadAn=         5 AccDes= 0.00D+00
 Harris functional with IExCor=  908 and IRadAn=       5 diagonalized for initial guess.
 HarFok:  IExCor=  908 AccDes= 0.00D+00 IRadAn=         5 IDoV= 1 UseB2=F ITyADJ=14
 ICtDFT=  3500011 ScaDFX=  1.000000  1.000000  1.000000  1.000000
 FoFCou: FMM=F IPFlag=           0 FMFlag=      100000 FMFlg1=           0
         NFxFlg=           0 DoJE=T BraDBF=F KetDBF=T FulRan=T
         wScrn=  0.000000 ICntrl=       500 IOpCl=  0 I1Cent=   200000004 NGrid=           0
         NMat0=    1 NMatS0=      1 NMatT0=    0 NMatD0=    1 NMtDS0=    0 NMtDT0=    0
 Petite list used in FoFCou.
 Requested convergence on RMS density matrix=1.00D-08 within 128 cycles.
 Requested convergence on MAX density matrix=1.00D-06.
 Requested convergence on             energy=1.00D-06.
 No special actions if energy rises.
 Integral accuracy reduced to 1.0D-05 until final iterations.
 Initial convergence to 1.0D-05 achieved.  Increase integral accuracy.
 SCF Done:  E(RmPW1PW91) =  -2946.29603548     A.U. after   14 cycles
            NFock= 14  Conv=0.35D-08     -V/T= 2.0020
 DoSCS=F DFT=T ScalE2(SS,OS)=  1.000000  1.000000
 Range of M.O.s used for correlation:     1   135
 NBasis=   135 NAE=    52 NBE=    52 NFC=     0 NFV=     0
 NROrb=    135 NOA=    52 NOB=    52 NVA=    83 NVB=    83
          Differentiating once with respect to magnetic field using GIAOs.
          Electric field/nuclear overlap derivatives assumed to be zero.
 FoFCou: FMM=F IPFlag=           0 FMFlag=      100000 FMFlg1=           0
         NFxFlg=           0 DoJE=F BraDBF=F KetDBF=T FulRan=T
         wScrn=  0.000000 ICntrl=      6100 IOpCl=  0 I1Cent=           7 NGrid=          20
         NMat0=    1 NMatS0=      1 NMatT0=    0 NMatD0=    1 NMtDS0=    0 NMtDT0=    0
 Symmetry not used in FoFCou.
 FoFJK:  IHMeth= 1 ICntrl=    6127 DoSepK=F KAlg= 0 I1Cent=           0 FoldK=F
 IRaf=         1 NMat=       1 IRICut=       1 DoRegI=T DoRafI=F ISym2E= 0 IDoP0=0 IntGTp=1.
          There are     3 degrees of freedom in the 1st order CPHF.  IDoFFX=0 NUNeed=     3.
      3 vectors produced by pass  0 Test12= 1.44D-13 3.33D-08 XBig12= 2.18D+01 8.83D-01.
 AX will form     3 AO Fock derivatives at one time.
      3 vectors produced by pass  1 Test12= 1.44D-13 3.33D-08 XBig12= 5.56D-02 8.13D-02.
      3 vectors produced by pass  2 Test12= 1.44D-13 3.33D-08 XBig12= 3.87D-04 7.40D-03.
      3 vectors produced by pass  3 Test12= 1.44D-13 3.33D-08 XBig12= 1.01D-06 4.12D-04.
      3 vectors produced by pass  4 Test12= 1.44D-13 3.33D-08 XBig12= 5.58D-09 3.88D-05.
      3 vectors produced by pass  5 Test12= 1.44D-13 3.33D-08 XBig12= 2.93D-11 1.48D-06.
      1 vectors produced by pass  6 Test12= 1.44D-13 3.33D-08 XBig12= 7.95D-14 8.71D-08.
 InvSVY:  IOpt=1 It=  1 EMax= 1.33D-15
 Solved reduced A of dimension    19 with     3 vectors.
 Calculating GIAO nuclear magnetic shielding tensors.
 SCF GIAO Magnetic shielding tensor (ppm):
      1  C    Isotropic =   104.6557   Anisotropy =   118.2705
   XX=    57.6851   YX=   -51.3615   ZX=     2.8116
   XY=   -48.1425   YY=    74.5392   ZY=     9.9790
   XZ=    -1.2525   YZ=    15.6743   ZZ=   181.7428
   Eigenvalues:    15.1764   115.2880   183.5027
      2  C    Isotropic =    69.1379   Anisotropy =   116.2022
   XX=    23.2879   YX=   -52.2982   ZX=     0.5550
   XY=   -50.5381   YY=    39.0837   ZY=    11.5787
   XZ=     0.8104   YZ=    12.1677   ZZ=   145.0423
   Eigenvalues:   -21.2465    82.0542   146.6061
      3  C    Isotropic =   171.6012   Anisotropy =    31.7485
   XX=   176.1011   YX=    -0.5859   ZX=    -2.6480
   XY=    -0.8220   YY=   192.7340   ZY=     1.5770
   XZ=    -5.2343   YZ=    -1.1497   ZZ=   145.9686
   Eigenvalues:   145.4613   176.5755   192.7669
      4  C    Isotropic =   172.1526   Anisotropy =    30.5008
   XX=   189.5079   YX=     7.3522   ZX=    -2.6313
   XY=     5.2574   YY=   178.7196   ZY=     0.3049
   XZ=    -2.9055   YZ=     3.0307   ZZ=   148.2304
   Eigenvalues:   147.9004   176.0711   192.4865
      5  C    Isotropic =    72.3798   Anisotropy =   137.0935
   XX=    35.6144   YX=   -21.4779   ZX=    -1.4713
   XY=   -30.0062   YY=    17.9347   ZY=    -5.3536
   XZ=    -7.1696   YZ=    -1.0947   ZZ=   163.5904
   Eigenvalues:    -0.6036    53.9677   163.7755
      6  C    Isotropic =    85.8492   Anisotropy =   125.2715
   XX=    71.6327   YX=    26.3839   ZX=     0.2566
   XY=    25.6342   YY=    16.7087   ZY=    -4.0200
   XZ=    -0.9699   YZ=    -5.3287   ZZ=   169.2061
   Eigenvalues:     6.2382    81.9458   169.3635
      7  C    Isotropic =    78.9318   Anisotropy =   106.7645
   XX=     3.4065   YX=    10.2006   ZX=    -0.1622
   XY=    11.0322   YY=    83.3464   ZY=    -1.6522
   XZ=     2.4172   YZ=    -2.3910   ZZ=   150.0424
   Eigenvalues:     2.0077    84.6795   150.1081
      8  Br   Isotropic =  2171.3558   Anisotropy =  1135.7835
   XX=  2913.7294   YX=  -129.8330   ZX=    -0.0752
   XY=  -125.0155   YY=  1832.4819   ZY=     1.8427
   XZ=     2.7113   YZ=    -1.6016   ZZ=  1767.8560
   Eigenvalues:  1767.8531  1817.6695  2928.5448
      9  C    Isotropic =    84.7057   Anisotropy =   135.6510
   XX=    54.1048   YX=   -35.3931   ZX=    -1.2850
   XY=   -38.5488   YY=    24.9619   ZY=    -4.1437
   XZ=    -0.8140   YZ=    -3.1711   ZZ=   175.0504
   Eigenvalues:    -0.2801    79.2575   175.1397
     10  C    Isotropic =    92.9980   Anisotropy =   150.0663
   XX=    68.0637   YX=    23.9528   ZX=     0.6582
   XY=    20.8370   YY=    18.1509   ZY=    -4.9793
   XZ=    -3.5989   YZ=    -7.4494   ZZ=   192.7793
   Eigenvalues:     9.4239    76.5278   193.0422
     11  C    Isotropic =    78.8380   Anisotropy =   143.8698
   XX=     4.8694   YX=     2.8769   ZX=    -0.2102
   XY=    13.2473   YY=    57.2894   ZY=    -3.5807
   XZ=     0.2445   YZ=   -10.0396   ZZ=   174.3552
   Eigenvalues:     3.6513    58.1115   174.7512
     12  H    Isotropic =    26.8916   Anisotropy =     6.5407
   XX=    27.4928   YX=    -3.8465   ZX=     0.3503
   XY=    -1.7730   YY=    29.0692   ZY=    -0.2290
   XZ=     0.8046   YZ=    -0.4355   ZZ=    24.1127
   Eigenvalues:    24.0106    25.4121    31.2521
     13  H    Isotropic =    27.5217   Anisotropy =     6.3111
   XX=    29.0398   YX=    -1.9996   ZX=     0.2324
   XY=    -4.2526   YY=    28.0820   ZY=    -0.1415
   XZ=     0.1502   YZ=     0.0112   ZZ=    25.4432
   Eigenvalues:    25.3403    25.4956    31.7291
     14  H    Isotropic =    29.9629   Anisotropy =     9.4140
   XX=    30.1524   YX=    -0.1670   ZX=    -4.4299
   XY=     0.2959   YY=    28.9305   ZY=    -1.8923
   XZ=    -6.0661   YZ=    -3.1480   ZZ=    30.8059
   Eigenvalues:    24.5309    29.1191    36.2389
     15  H    Isotropic =    30.1078   Anisotropy =     9.0316
   XX=    33.7562   YX=     0.6937   ZX=     3.7256
   XY=     1.6613   YY=    29.6096   ZY=     1.8823
   XZ=     4.1455   YZ=     2.1329   ZZ=    26.9574
   Eigenvalues:    24.7611    29.4333    36.1288
     16  H    Isotropic =    29.7866   Anisotropy =     9.5194
   XX=    29.4456   YX=     0.4176   ZX=    -0.4040
   XY=     0.0446   YY=    30.3887   ZY=     4.9178
   XZ=     0.5452   YZ=     7.3894   ZZ=    29.5253
   Eigenvalues:    23.7863    29.4406    36.1328
     17  H    Isotropic =    29.9302   Anisotropy =     9.2225
   XX=    29.8501   YX=    -0.4601   ZX=     0.2291
   XY=    -1.0787   YY=    33.2922   ZY=    -4.4096
   XZ=    -0.1926   YZ=    -5.6614   ZZ=    26.6483
   Eigenvalues:    23.9171    29.7950    36.0785
     18  H    Isotropic =    25.7709   Anisotropy =     8.4268
   XX=    30.1684   YX=     2.4956   ZX=     0.1001
   XY=     2.3627   YY=    26.5481   ZY=     0.1463
   XZ=     0.0137   YZ=     0.1242   ZZ=    20.5963
   Eigenvalues:    20.5932    25.3308    31.3888
     19  H    Isotropic =    25.7464   Anisotropy =     6.9012
   XX=    27.9435   YX=    -2.4225   ZX=    -0.0421
   XY=    -2.0815   YY=    28.2319   ZY=     0.1439
   XZ=    -0.0430   YZ=     0.2248   ZZ=    21.0638
   Eigenvalues:    21.0591    25.8330    30.3472
     20  H    Isotropic =    25.4762   Anisotropy =     4.8540
   XX=    28.5953   YX=     0.6268   ZX=     0.0732
   XY=     0.3272   YY=    26.6299   ZY=     0.0414
   XZ=     0.3324   YZ=     0.2720   ZZ=    21.2033
   Eigenvalues:    21.1940    26.5224    28.7122
 End of Minotr F.D. properties file   721 does not exist.
 End of Minotr F.D. properties file   722 does not exist.
 End of Minotr F.D. properties file   788 does not exist.

 **********************************************************************

            Population analysis using the SCF Density.

 **********************************************************************

 Orbital symmetries:
       Occupied  (A) (A) (A) (A) (A) (A) (A) (A) (A) (A) (A) (A)
                 (A) (A) (A) (A) (A) (A) (A) (A) (A) (A) (A) (A)
                 (A) (A) (A) (A) (A) (A) (A) (A) (A) (A) (A) (A)
                 (A) (A) (A) (A) (A) (A) (A) (A) (A) (A) (A) (A)
                 (A) (A) (A) (A)
       Virtual   (A) (A) (A) (A) (A) (A) (A) (A) (A) (A) (A) (A)
                 (A) (A) (A) (A) (A) (A) (A) (A) (A) (A) (A) (A)
                 (A) (A) (A) (A) (A) (A) (A) (A) (A) (A) (A) (A)
                 (A) (A) (A) (A) (A) (A) (A) (A) (A) (A) (A) (A)
                 (A) (A) (A) (A) (A) (A) (A) (A) (A) (A) (A) (A)
                 (A) (A) (A) (A) (A) (A) (A) (A) (A) (A) (A) (A)
                 (A) (A) (A) (A) (A) (A) (A) (A) (A) (A) (A)
 The electronic state is 1-A.
 Alpha  occ. eigenvalues -- -480.36260 -62.57192 -56.15286 -56.14872 -56.14863
 Alpha  occ. eigenvalues --  -10.24830 -10.20706 -10.20330 -10.20220 -10.20185
 Alpha  occ. eigenvalues --  -10.20162 -10.20151 -10.19894 -10.19517 -10.17627
 Alpha  occ. eigenvalues --   -8.85086  -6.62573  -6.61195  -6.61168  -2.71163
 Alpha  occ. eigenvalues --   -2.70674  -2.70667  -2.69519  -2.69514  -0.93052
 Alpha  occ. eigenvalues --   -0.87654  -0.81877  -0.80818  -0.75984  -0.74557
 Alpha  occ. eigenvalues --   -0.67411  -0.64985  -0.60420  -0.57738  -0.51716
 Alpha  occ. eigenvalues --   -0.50337  -0.48628  -0.47137  -0.46246  -0.44477
 Alpha  occ. eigenvalues --   -0.42394  -0.40838  -0.39011  -0.38514  -0.37592
 Alpha  occ. eigenvalues --   -0.36380  -0.34891  -0.33713  -0.29307  -0.28393
 Alpha  occ. eigenvalues --   -0.27074  -0.22987
 Alpha virt. eigenvalues --   -0.03124  -0.00330   0.02162   0.06203   0.10938
 Alpha virt. eigenvalues --    0.11679   0.13003   0.13931   0.14841   0.16188
 Alpha virt. eigenvalues --    0.18033   0.19204   0.19991   0.22783   0.23191
 Alpha virt. eigenvalues --    0.26322   0.28770   0.30614   0.32957   0.36128
 Alpha virt. eigenvalues --    0.37342   0.40453   0.43182   0.47079   0.49300
 Alpha virt. eigenvalues --    0.49576   0.52376   0.54911   0.56014   0.56955
 Alpha virt. eigenvalues --    0.57099   0.57918   0.60330   0.61238   0.64420
 Alpha virt. eigenvalues --    0.64713   0.65813   0.68227   0.69178   0.70656
 Alpha virt. eigenvalues --    0.72828   0.77354   0.78025   0.79898   0.80875
 Alpha virt. eigenvalues --    0.81274   0.85628   0.86775   0.88304   0.88575
 Alpha virt. eigenvalues --    0.88936   0.89847   0.91128   0.91370   0.92406
 Alpha virt. eigenvalues --    0.92613   0.93576   0.95913   0.96021   0.97635
 Alpha virt. eigenvalues --    0.98834   0.99344   1.00247   1.02375   1.03064
 Alpha virt. eigenvalues --    1.05436   1.06674   1.08364   1.12717   1.13121
 Alpha virt. eigenvalues --    1.17746   1.22740   1.22883   1.28621   1.32828
 Alpha virt. eigenvalues --    1.39688   1.48729   1.54073   1.54782   1.60931
 Alpha virt. eigenvalues --    1.73421   1.77056   1.93877
          Condensed to atoms (all electrons):
               1          2          3          4          5          6
     1  C    4.979010   0.621854  -0.024029   0.002789   0.001139   0.000057
     2  C    0.621854   4.992790   0.321392  -0.075750  -0.035277   0.000520
     3  C   -0.024029   0.321392   5.200208   0.330391  -0.074990   0.002919
     4  C    0.002789  -0.075750   0.330391   5.154074   0.289195   0.002747
     5  C    0.001139  -0.035277  -0.074990   0.289195   5.120506   0.467002
     6  C    0.000057   0.000520   0.002919   0.002747   0.467002   4.900885
     7  C   -0.000013   0.000947  -0.000171   0.000378  -0.015905   0.482782
     8  Br  -0.000000   0.000002   0.000001  -0.000028   0.002532  -0.042118
     9  C    0.000167   0.000303  -0.000087   0.000718  -0.040955  -0.042317
    10  C   -0.004670   0.006727   0.001962   0.001011  -0.018281  -0.025008
    11  C   -0.033614   0.342039  -0.075286  -0.044548   0.463150  -0.022601
    12  H    0.392923  -0.025494   0.003609  -0.000190   0.000301  -0.000001
    13  H    0.394393  -0.028420  -0.008692   0.000162  -0.000119  -0.000000
    14  H   -0.004633  -0.030254   0.383897  -0.033498   0.002348  -0.000127
    15  H   -0.003224  -0.031309   0.388059  -0.030142   0.003771  -0.000053
    16  H   -0.000006   0.002299  -0.031115   0.382656  -0.028543  -0.004587
    17  H   -0.000038   0.003942  -0.031517   0.392075  -0.030342  -0.004148
    18  H    0.000000  -0.000080   0.000047  -0.004611  -0.016466   0.385802
    19  H    0.000002  -0.000032   0.000001   0.000005   0.000107   0.002925
    20  H    0.002640  -0.006587   0.000094  -0.000098   0.003112  -0.000064
               7          8          9         10         11         12
     1  C   -0.000013  -0.000000   0.000167  -0.004670  -0.033614   0.392923
     2  C    0.000947   0.000002   0.000303   0.006727   0.342039  -0.025494
     3  C   -0.000171   0.000001  -0.000087   0.001962  -0.075286   0.003609
     4  C    0.000378  -0.000028   0.000718   0.001011  -0.044548  -0.000190
     5  C   -0.015905   0.002532  -0.040955  -0.018281   0.463150   0.000301
     6  C    0.482782  -0.042118  -0.042317  -0.025008  -0.022601  -0.000001
     7  C    5.060768   0.214164   0.465950  -0.030027  -0.050467  -0.000002
     8  Br   0.214164  34.924533  -0.040669   0.002071   0.000381  -0.000000
     9  C    0.465950  -0.040669   4.971174   0.503761  -0.029233  -0.000015
    10  C   -0.030027   0.002071   0.503761   4.859487   0.460497   0.001221
    11  C   -0.050467   0.000381  -0.029233   0.460497   5.066480  -0.011046
    12  H   -0.000002  -0.000000  -0.000015   0.001221  -0.011046   0.484703
    13  H    0.000000  -0.000000  -0.000002   0.000105   0.004383  -0.027637
    14  H    0.000006  -0.000000   0.000003  -0.000115   0.002576  -0.000125
    15  H    0.000003  -0.000000   0.000003  -0.000056   0.003872  -0.000097
    16  H    0.000071   0.000000  -0.000001  -0.000083  -0.000102   0.000004
    17  H    0.000107  -0.000001  -0.000006  -0.000052   0.001446   0.000003
    18  H   -0.019682   0.000954   0.002746   0.000010   0.002827   0.000000
    19  H   -0.022806   0.001074   0.390927  -0.018186   0.003249   0.000002
    20  H    0.003023  -0.000066  -0.021777   0.391565  -0.020536   0.004325
              13         14         15         16         17         18
     1  C    0.394393  -0.004633  -0.003224  -0.000006  -0.000038   0.000000
     2  C   -0.028420  -0.030254  -0.031309   0.002299   0.003942  -0.000080
     3  C   -0.008692   0.383897   0.388059  -0.031115  -0.031517   0.000047
     4  C    0.000162  -0.033498  -0.030142   0.382656   0.392075  -0.004611
     5  C   -0.000119   0.002348   0.003771  -0.028543  -0.030342  -0.016466
     6  C   -0.000000  -0.000127  -0.000053  -0.004587  -0.004148   0.385802
     7  C    0.000000   0.000006   0.000003   0.000071   0.000107  -0.019682
     8  Br  -0.000000  -0.000000  -0.000000   0.000000  -0.000001   0.000954
     9  C   -0.000002   0.000003   0.000003  -0.000001  -0.000006   0.002746
    10  C    0.000105  -0.000115  -0.000056  -0.000083  -0.000052   0.000010
    11  C    0.004383   0.002576   0.003872  -0.000102   0.001446   0.002827
    12  H   -0.027637  -0.000125  -0.000097   0.000004   0.000003   0.000000
    13  H    0.484760   0.000967   0.002034  -0.000006  -0.000003  -0.000000
    14  H    0.000967   0.483601  -0.024106   0.003113  -0.005903  -0.000002
    15  H    0.002034  -0.024106   0.481681  -0.005174   0.001675  -0.000002
    16  H   -0.000006   0.003113  -0.005174   0.487924  -0.027602   0.000682
    17  H   -0.000003  -0.005903   0.001675  -0.027602   0.484458   0.001280
    18  H   -0.000000  -0.000002  -0.000002   0.000682   0.001280   0.439904
    19  H   -0.000000  -0.000000  -0.000000  -0.000000  -0.000000  -0.000075
    20  H   -0.000089  -0.000004  -0.000002   0.000003   0.000003   0.000009
              19         20
     1  C    0.000002   0.002640
     2  C   -0.000032  -0.006587
     3  C    0.000001   0.000094
     4  C    0.000005  -0.000098
     5  C    0.000107   0.003112
     6  C    0.002925  -0.000064
     7  C   -0.022806   0.003023
     8  Br   0.001074  -0.000066
     9  C    0.390927  -0.021777
    10  C   -0.018186   0.391565
    11  C    0.003249  -0.020536
    12  H    0.000002   0.004325
    13  H   -0.000000  -0.000089
    14  H   -0.000000  -0.000004
    15  H   -0.000000  -0.000002
    16  H   -0.000000   0.000003
    17  H   -0.000000   0.000003
    18  H   -0.000075   0.000009
    19  H    0.437102  -0.004188
    20  H   -0.004188   0.447931
 Mulliken charges:
               1
     1  C   -0.324746
     2  C   -0.059613
     3  C   -0.386692
     4  C   -0.367339
     5  C   -0.092284
     6  C   -0.104615
     7  C   -0.089127
     8  Br  -0.062830
     9  C   -0.160689
    10  C   -0.131939
    11  C   -0.063466
    12  H    0.177514
    13  H    0.178163
    14  H    0.222257
    15  H    0.213066
    16  H    0.220466
    17  H    0.214621
    18  H    0.206655
    19  H    0.209894
    20  H    0.200705
 Sum of Mulliken charges =  -0.00000
 Mulliken charges with hydrogens summed into heavy atoms:
               1
     1  C    0.030931
     2  C   -0.059613
     3  C    0.048631
     4  C    0.067748
     5  C   -0.092284
     6  C    0.102040
     7  C   -0.089127
     8  Br  -0.062830
     9  C    0.049204
    10  C    0.068765
    11  C   -0.063466
 Electronic spatial extent (au):  <R**2>=           3059.6196
 Charge=             -0.0000 electrons
 Dipole moment (field-independent basis, Debye):
    X=             -1.6475    Y=             -0.4258    Z=              0.0235  Tot=              1.7018
 Quadrupole moment (field-independent basis, Debye-Ang):
   XX=            -73.3069   YY=            -69.5637   ZZ=            -80.6060
   XY=              1.8300   XZ=             -0.0260   YZ=              0.0160
 Traceless Quadrupole moment (field-independent basis, Debye-Ang):
   XX=              1.1853   YY=              4.9285   ZZ=             -6.1138
   XY=              1.8300   XZ=             -0.0260   YZ=              0.0160
 Octapole moment (field-independent basis, Debye-Ang**2):
  XXX=             84.9175  YYY=              3.2504  ZZZ=              0.4552  XYY=             27.8662
  XXY=             -6.0385  XXZ=             -0.2177  XZZ=             36.1860  YZZ=             -6.2055
  YYZ=             -0.2014  XYZ=              0.6576
 Hexadecapole moment (field-independent basis, Debye-Ang**3):
 XXXX=          -2709.8545 YYYY=           -602.8707 ZZZZ=            -97.8148 XXXY=             -0.8610
 XXXZ=              3.8777 YYYX=            -14.1800 YYYZ=             -1.0736 ZZZX=             -2.6886
 ZZZY=              0.2551 XXYY=           -570.8180 XXZZ=           -517.8236 YYZZ=           -128.3421
 XXYZ=             -1.5760 YYXZ=              2.2978 ZZXY=             11.0700
 N-N= 7.846075535962D+02 E-N=-8.582593731565D+03  KE= 2.940325034713D+03
 Unable to Open any file for archive entry.
 1\1\GINC-DYNAMO\SP\RmPW1PW91\MIDIx\C10H9Br1\RPATON\26-Sep-2024\0\\# nm
 r=giao mpw1pw91/midix\\arbr79_wb97xd_nmrcreated by GaussianPrep\\0,1\C
 ,0,-3.954031,1.401458,-0.09124\C,0,-3.098252,0.387789,0.007816\C,0,-3.
 471698,-1.08946,0.141875\C,0,-2.142573,-1.882227,-0.077304\C,0,-1.0700
 48,-0.814024,-0.025833\C,0,0.304518,-0.989267,-0.030351\C,0,1.11819,0.
 138326,-0.000392\Br,0,3.004963,-0.074191,0.000222\C,0,0.575408,1.42032
 9,0.031421\C,0,-0.805067,1.584504,0.035028\C,0,-1.629059,0.464626,0.00
 7367\H,0,-3.615388,2.431866,-0.180957\H,0,-5.030253,1.240916,-0.088923
 \H,0,-3.86503,-1.28118,1.149627\H,0,-4.246225,-1.377947,-0.577697\H,0,
 -2.138869,-2.383376,-1.055416\H,0,-1.992185,-2.653211,0.688326\H,0,0.7
 45247,-1.982218,-0.056676\H,0,1.23276,2.283725,0.057079\H,0,-1.228075,
 2.585806,0.066532\\Version=ES64L-G16RevC.01\State=1-A\HF=-2946.2960355
 \RMSD=3.485e-09\Dipole=-0.6481792,-0.1675316,0.0092474\Quadrupole=0.88
 12166,3.664219,-4.5454356,1.3605748,-0.0193404,0.0119201\PG=C01 [X(C10
 H9Br1)]\\@
 The archive entry for this job was punched.


 THAT'S WHAT MAKES US A GREAT COUNTRY.
 THE LITTLE THINGS ARE SERIOUS AND THE BIG ONES ARE NOT.
           WILL ROGERS
 Job cpu time:       0 days  0 hours  2 minutes 53.9 seconds.
 Elapsed time:       0 days  0 hours  0 minutes  8.9 seconds.
 File lengths (MBytes):  RWF=     16 Int=      0 D2E=      0 Chk=      3 Scr=      1
 Normal termination of Gaussian 16 at Thu Sep 26 13:45:46 2024.
