 Entering Gaussian System, Link 0=/usr/local/Gaussian/G16C/g16/g16
 Input=arbr42_wb97xd_nmr.com
 Output=arbr42_wb97xd_nmr.log
 Initial command:
 /usr/local/Gaussian/G16C/g16/l1.exe "/home/rpaton/opt/midi/nmr/Gau-1274651.inp" -scrdir="/home/rpaton/opt/midi/nmr/"
 Entering Link 1 = /usr/local/Gaussian/G16C/g16/l1.exe PID=   1274652.
  
 Copyright (c) 1988-2019, Gaussian, Inc.  All Rights Reserved.
  
 This is part of the Gaussian(R) 16 program.  It is based on
 the Gaussian(R) 09 system (copyright 2009, Gaussian, Inc.),
 the Gaussian(R) 03 system (copyright 2003, Gaussian, Inc.),
 the Gaussian(R) 98 system (copyright 1998, Gaussian, Inc.),
 the Gaussian(R) 94 system (copyright 1995, Gaussian, Inc.),
 the Gaussian 92(TM) system (copyright 1992, Gaussian, Inc.),
 the Gaussian 90(TM) system (copyright 1990, Gaussian, Inc.),
 the Gaussian 88(TM) system (copyright 1988, Gaussian, Inc.),
 the Gaussian 86(TM) system (copyright 1986, Carnegie Mellon
 University), and the Gaussian 82(TM) system (copyright 1983,
 Carnegie Mellon University). Gaussian is a federally registered
 trademark of Gaussian, Inc.
  
 This software contains proprietary and confidential information,
 including trade secrets, belonging to Gaussian, Inc.
  
 This software is provided under written license and may be
 used, copied, transmitted, or stored only in accord with that
 written license.
  
 The following legend is applicable only to US Government
 contracts under FAR:
  
                    RESTRICTED RIGHTS LEGEND
  
 Use, reproduction and disclosure by the US Government is
 subject to restrictions as set forth in subparagraphs (a)
 and (c) of the Commercial Computer Software - Restricted
 Rights clause in FAR 52.227-19.
  
 Gaussian, Inc.
 340 Quinnipiac St., Bldg. 40, Wallingford CT 06492
  
  
 ---------------------------------------------------------------
 Warning -- This program may not be used in any manner that
 competes with the business of Gaussian, Inc. or will provide
 assistance to any competitor of Gaussian, Inc.  The licensee
 of this program is prohibited from giving any competitor of
 Gaussian, Inc. access to this program.  By using this program,
 the user acknowledges that Gaussian, Inc. is engaged in the
 business of creating and licensing software in the field of
 computational chemistry and represents and warrants to the
 licensee that it is not a competitor of Gaussian, Inc. and that
 it will not use this program in any manner prohibited above.
 ---------------------------------------------------------------
  

 Cite this work as:
 Gaussian 16, Revision C.01,
 M. J. Frisch, G. W. Trucks, H. B. Schlegel, G. E. Scuseria, 
 M. A. Robb, J. R. Cheeseman, G. Scalmani, V. Barone, 
 G. A. Petersson, H. Nakatsuji, X. Li, M. Caricato, A. V. Marenich, 
 J. Bloino, B. G. Janesko, R. Gomperts, B. Mennucci, H. P. Hratchian, 
 J. V. Ortiz, A. F. Izmaylov, J. L. Sonnenberg, D. Williams-Young, 
 F. Ding, F. Lipparini, F. Egidi, J. Goings, B. Peng, A. Petrone, 
 T. Henderson, D. Ranasinghe, V. G. Zakrzewski, J. Gao, N. Rega, 
 G. Zheng, W. Liang, M. Hada, M. Ehara, K. Toyota, R. Fukuda, 
 J. Hasegawa, M. Ishida, T. Nakajima, Y. Honda, O. Kitao, H. Nakai, 
 T. Vreven, K. Throssell, J. A. Montgomery, Jr., J. E. Peralta, 
 F. Ogliaro, M. J. Bearpark, J. J. Heyd, E. N. Brothers, K. N. Kudin, 
 V. N. Staroverov, T. A. Keith, R. Kobayashi, J. Normand, 
 K. Raghavachari, A. P. Rendell, J. C. Burant, S. S. Iyengar, 
 J. Tomasi, M. Cossi, J. M. Millam, M. Klene, C. Adamo, R. Cammi, 
 J. W. Ochterski, R. L. Martin, K. Morokuma, O. Farkas, 
 J. B. Foresman, and D. J. Fox, Gaussian, Inc., Wallingford CT, 2019.
 
 ******************************************
 Gaussian 16:  ES64L-G16RevC.01  3-Jul-2019
                26-Sep-2024 
 ******************************************
 %chk=arbr42_wb97xd_nmr.chk
 %mem=48GB
 %nprocshared=24
 Will use up to   24 processors via shared memory.
 -------------------------
 # nmr=giao mpw1pw91/midix
 -------------------------
 1/38=1,172=1/1;
 2/12=2,17=6,18=5,40=1/2;
 3/5=20,11=2,25=1,30=1,74=-7/1,2,3,8;
 4//1;
 5/5=2,38=5/2;
 8/6=1,10=90,11=11/1;
 10/13=100,45=16/2;
 6/7=2,8=2,9=2,10=2,28=1/1;
 99/9=1/99;
 ----------------------------------------
 arbr42_wb97xd_nmrcreated by GaussianPrep
 ----------------------------------------
 Symbolic Z-matrix:
 Charge =  0 Multiplicity = 1
 Br                   -3.42809  -0.4731   -0.05693 
 C                    -1.75863   0.43068   0.00655 
 C                    -1.72173   1.79812   0.24613 
 C                    -0.49474   2.44698   0.26083 
 C                     0.69824   1.75321   0.06046 
 C                     0.64163   0.37328  -0.14397 
 C                    -0.58678  -0.27837  -0.19491 
 C                     1.91622  -0.44742  -0.25554 
 C                     3.08099   0.37761  -0.7935 
 C                     3.25398   1.6214    0.09467 
 C                     2.00703   2.52074  -0.00046 
 O                     1.66823  -1.61197  -1.05042 
 C                     2.06168  -2.7519   -0.26945 
 C                     1.84523  -2.25049   1.16111 
 O                     2.30744  -0.90149   1.05498 
 H                    -2.64243   2.35047   0.40703 
 H                    -0.46432   3.52228   0.42682 
 H                    -0.61176  -1.33742  -0.42399 
 H                     3.97722  -0.25252  -0.77582 
 H                     2.8685    0.65685  -1.8341 
 H                     4.14314   2.18861  -0.2058 
 H                     3.40215   1.28481   1.12839 
 H                     2.02878   3.27858   0.79427 
 H                     2.0359    3.06659  -0.95791 
 H                     1.42479  -3.59362  -0.55766 
 H                     3.11779  -3.00718  -0.44019 
 H                     2.45556  -2.75596   1.91479 
 H                     0.78365  -2.29811   1.44857 
 
                          Input orientation:                          
 ---------------------------------------------------------------------
 Center     Atomic      Atomic             Coordinates (Angstroms)
 Number     Number       Type             X           Y           Z
 ---------------------------------------------------------------------
      1         35           0       -3.428086   -0.473102   -0.056927
      2          6           0       -1.758628    0.430680    0.006550
      3          6           0       -1.721726    1.798121    0.246126
      4          6           0       -0.494740    2.446975    0.260833
      5          6           0        0.698240    1.753207    0.060461
      6          6           0        0.641628    0.373279   -0.143968
      7          6           0       -0.586783   -0.278374   -0.194909
      8          6           0        1.916216   -0.447422   -0.255539
      9          6           0        3.080987    0.377608   -0.793501
     10          6           0        3.253980    1.621395    0.094670
     11          6           0        2.007033    2.520736   -0.000455
     12          8           0        1.668228   -1.611971   -1.050421
     13          6           0        2.061675   -2.751903   -0.269453
     14          6           0        1.845227   -2.250489    1.161109
     15          8           0        2.307444   -0.901489    1.054982
     16          1           0       -2.642427    2.350472    0.407026
     17          1           0       -0.464315    3.522278    0.426823
     18          1           0       -0.611760   -1.337419   -0.423990
     19          1           0        3.977216   -0.252524   -0.775823
     20          1           0        2.868497    0.656852   -1.834095
     21          1           0        4.143143    2.188614   -0.205796
     22          1           0        3.402147    1.284806    1.128387
     23          1           0        2.028781    3.278576    0.794271
     24          1           0        2.035903    3.066586   -0.957911
     25          1           0        1.424791   -3.593616   -0.557662
     26          1           0        3.117791   -3.007177   -0.440188
     27          1           0        2.455556   -2.755956    1.914793
     28          1           0        0.783648   -2.298113    1.448565
 ---------------------------------------------------------------------
                    Distance matrix (angstroms):
                    1          2          3          4          5
     1  Br   0.000000
     2  C    1.899458   0.000000
     3  C    2.856914   1.388760   0.000000
     4  C    4.151185   2.393223   1.388064   0.000000
     5  C    4.690074   2.790732   2.427493   1.394512   0.000000
     6  C    4.157705   2.405656   2.787076   2.399044   1.396137
     7  C    2.851309   1.384400   2.407164   2.764724   2.417399
     8  C    5.348053   3.787378   4.304504   3.802221   2.534973
     9  C    6.605625   4.905586   5.115147   4.263769   2.880800
    10  C    7.004278   5.152844   4.981147   3.842147   2.559365
    11  C    6.205383   4.306807   3.806129   2.516462   1.518470
    12  O    5.315681   4.127100   4.980115   4.782558   3.674147
    13  C    5.947737   4.979932   5.939921   5.817628   4.718455
    14  C    5.696538   4.637828   5.472805   5.324670   4.307736
    15  O    5.858000   4.405318   4.916946   4.437918   3.259758
    16  H    2.967336   2.151066   1.085666   2.154819   3.411288
    17  H    4.998101   3.377847   2.141600   1.088464   2.148341
    18  H    2.968749   2.151010   3.393036   3.847637   3.391572
    19  H    7.443384   5.829132   6.142269   5.325443   3.933702
    20  H    6.639434   4.984919   5.167201   4.347945   3.082426
    21  H    8.026855   6.161682   5.895202   4.668453   3.482503
    22  H    7.151734   5.349920   5.224553   4.158006   2.944653
    23  H    6.676603   4.803695   4.069215   2.710032   2.153037
    24  H    6.572392   4.719815   4.144694   2.876353   2.133398
    25  H    5.791266   5.162117   6.294241   6.390874   5.431249
    26  H    7.029718   5.983134   6.854403   6.579482   5.363407
    27  H    6.611834   5.617418   6.401074   6.205668   5.182592
    28  H    4.830722   3.998610   4.949939   5.055773   4.283377
                    6          7          8          9         10
     6  C    0.000000
     7  C    1.391488   0.000000
     8  C    1.520057   2.509434   0.000000
     9  C    2.524358   3.773746   1.525375   0.000000
    10  C    2.905017   4.294699   2.488426   1.538109   0.000000
    11  C    2.548823   3.821088   2.980483   2.524935   1.540370
    12  O    2.411801   2.755986   1.431611   2.453634   3.778955
    13  C    3.434973   3.624670   2.309109   3.332786   4.547517
    14  C    3.167970   3.412139   2.294119   3.500642   4.255980
    15  O    2.416083   3.213573   1.441077   2.377256   2.860607
    16  H    3.872713   3.390992   5.389659   6.171785   5.949516
    17  H    3.386016   3.853116   4.678789   4.893599   4.189200
    18  H    2.139131   1.083826   2.685355   4.088305   4.895665
    19  H    3.452103   4.600893   2.134573   1.095721   2.189155
    20  H    2.809962   3.937072   2.148976   1.098164   2.190679
    21  H    3.944600   5.334637   3.451140   2.180210   1.096644
    22  H    3.173363   4.483994   2.669055   2.149373   1.097186
    23  H    3.353392   4.524549   3.872704   3.470414   2.176420
    24  H    3.140129   4.318496   3.585513   2.889608   2.163381
    25  H    4.064572   3.894721   3.198642   4.309202   5.564873
    26  H    4.200787   4.607645   2.833765   3.403374   4.661362
    27  H    4.161844   4.454782   3.214119   4.188704   4.807445
    28  H    3.113305   2.942522   2.758938   4.179008   4.826812
                   11         12         13         14         15
    11  C    0.000000
    12  O    4.277439   0.000000
    13  C    5.279779   1.436717   0.000000
    14  C    4.913247   2.308657   1.531265   0.000000
    15  O    3.593858   2.312164   2.288791   1.429933   0.000000
    16  H    4.670386   6.033809   6.972835   6.471207   5.957879
    17  H    2.700595   5.752434   6.799322   6.260831   5.258036
    18  H    4.682181   2.380365   3.028515   3.063172   3.301385
    19  H    3.489096   2.693497   3.189452   3.505559   2.561472
    20  H    2.752893   2.683719   3.836493   4.297785   3.330161
    21  H    2.171505   4.613355   5.361462   5.182131   3.808948
    22  H    2.179025   4.018084   4.477258   3.863079   2.446150
    23  H    1.098355   5.239307   6.123665   5.544260   4.197448
    24  H    1.102501   4.693894   5.859134   5.726944   4.457700
    25  H    6.167235   2.056451   1.094151   2.221470   3.259946
    26  H    5.655526   2.102431   1.099862   2.180859   2.706680
    27  H    5.631414   3.274306   2.219480   1.093635   2.049454
    28  H    5.178575   2.738285   2.188804   1.100840   2.104144
                   16         17         18         19         20
    16  H    0.000000
    17  H    2.473397   0.000000
    18  H    4.291239   4.935816   0.000000
    19  H    7.210714   5.951696   4.728582   0.000000
    20  H    6.185568   4.942677   4.251788   1.782179   0.000000
    21  H    6.815109   4.838133   5.923649   2.512293   2.573398
    22  H    6.180039   4.521947   5.039582   2.513982   3.074965
    23  H    4.778234   2.531785   5.455642   4.327847   3.806162
    24  H    4.925713   2.894172   5.166280   3.849460   2.695873
    25  H    7.266710   7.427912   3.042340   4.210150   4.666910
    26  H    7.912161   7.497798   4.086307   2.905060   3.928133
    27  H    7.371458   7.082085   4.109815   3.977692   5.086447
    28  H    5.867890   6.039728   2.525185   4.396728   4.884083
                   21         22         23         24         25
    21  H    0.000000
    22  H    1.773693   0.000000
    23  H    2.580441   2.443949   0.000000
    24  H    2.403533   3.064964   1.764974   0.000000
    25  H    6.399018   5.527359   7.029904   6.700145   0.000000
    26  H    5.301182   4.578472   6.497732   6.191051   1.795539
    27  H    5.638583   4.224006   6.152502   6.506192   2.806632
    28  H    5.844128   4.449310   5.751340   6.011594   2.472719
                   26         27         28
    26  H    0.000000
    27  H    2.459187   0.000000
    28  H    3.085188   1.795067   0.000000
 Stoichiometry    C12H13BrO2
 Framework group  C1[X(C12H13BrO2)]
 Deg. of freedom    78
 Full point group                 C1      NOp   1
 Largest Abelian subgroup         C1      NOp   1
 Largest concise Abelian subgroup C1      NOp   1
                         Standard orientation:                         
 ---------------------------------------------------------------------
 Center     Atomic      Atomic             Coordinates (Angstroms)
 Number     Number       Type             X           Y           Z
 ---------------------------------------------------------------------
      1         35           0       -3.428086   -0.473102   -0.056927
      2          6           0       -1.758628    0.430680    0.006550
      3          6           0       -1.721726    1.798121    0.246126
      4          6           0       -0.494740    2.446975    0.260833
      5          6           0        0.698240    1.753207    0.060461
      6          6           0        0.641628    0.373279   -0.143968
      7          6           0       -0.586783   -0.278374   -0.194909
      8          6           0        1.916216   -0.447422   -0.255539
      9          6           0        3.080987    0.377608   -0.793501
     10          6           0        3.253980    1.621395    0.094670
     11          6           0        2.007033    2.520736   -0.000455
     12          8           0        1.668228   -1.611971   -1.050421
     13          6           0        2.061675   -2.751903   -0.269453
     14          6           0        1.845227   -2.250489    1.161109
     15          8           0        2.307444   -0.901489    1.054982
     16          1           0       -2.642427    2.350472    0.407026
     17          1           0       -0.464315    3.522278    0.426823
     18          1           0       -0.611760   -1.337419   -0.423990
     19          1           0        3.977216   -0.252524   -0.775823
     20          1           0        2.868497    0.656852   -1.834095
     21          1           0        4.143143    2.188614   -0.205796
     22          1           0        3.402147    1.284806    1.128387
     23          1           0        2.028781    3.278576    0.794271
     24          1           0        2.035903    3.066586   -0.957911
     25          1           0        1.424791   -3.593616   -0.557662
     26          1           0        3.117791   -3.007177   -0.440188
     27          1           0        2.455556   -2.755956    1.914793
     28          1           0        0.783648   -2.298113    1.448565
 ---------------------------------------------------------------------
 Rotational constants (GHZ):           0.7808609           0.2925381           0.2276085
 Standard basis: MIDIx (5D, 7F)
 There are   193 symmetry adapted cartesian basis functions of A   symmetry.
 There are   189 symmetry adapted basis functions of A   symmetry.
   189 basis functions,   324 primitive gaussians,   193 cartesian basis functions
    68 alpha electrons       68 beta electrons
       nuclear repulsion energy      1334.7905113630 Hartrees.
 NAtoms=   28 NActive=   28 NUniq=   28 SFac= 1.00D+00 NAtFMM=   60 NAOKFM=F Big=F
 Integral buffers will be    131072 words long.
 Raffenetti 2 integral format.
 Two-electron integral symmetry is turned on.
 One-electron integrals computed using PRISM.
 NBasis=   189 RedAO= T EigKep=  1.14D-03  NBF=   189
 NBsUse=   189 1.00D-06 EigRej= -1.00D+00 NBFU=   189
 ExpMin= 1.47D-01 ExpMax= 6.10D+03 ExpMxC= 6.10D+03 IAcc=3 IRadAn=         5 AccDes= 0.00D+00
 Harris functional with IExCor=  908 and IRadAn=       5 diagonalized for initial guess.
 HarFok:  IExCor=  908 AccDes= 0.00D+00 IRadAn=         5 IDoV= 1 UseB2=F ITyADJ=14
 ICtDFT=  3500011 ScaDFX=  1.000000  1.000000  1.000000  1.000000
 FoFCou: FMM=F IPFlag=           0 FMFlag=      100000 FMFlg1=           0
         NFxFlg=           0 DoJE=T BraDBF=F KetDBF=T FulRan=T
         wScrn=  0.000000 ICntrl=       500 IOpCl=  0 I1Cent=   200000004 NGrid=           0
         NMat0=    1 NMatS0=      1 NMatT0=    0 NMatD0=    1 NMtDS0=    0 NMtDT0=    0
 Petite list used in FoFCou.
 Requested convergence on RMS density matrix=1.00D-08 within 128 cycles.
 Requested convergence on MAX density matrix=1.00D-06.
 Requested convergence on             energy=1.00D-06.
 No special actions if energy rises.
 Integral accuracy reduced to 1.0D-05 until final iterations.
 Initial convergence to 1.0D-05 achieved.  Increase integral accuracy.
 SCF Done:  E(RmPW1PW91) =  -3174.01857236     A.U. after   14 cycles
            NFock= 14  Conv=0.35D-08     -V/T= 2.0030
 DoSCS=F DFT=T ScalE2(SS,OS)=  1.000000  1.000000
 Range of M.O.s used for correlation:     1   189
 NBasis=   189 NAE=    68 NBE=    68 NFC=     0 NFV=     0
 NROrb=    189 NOA=    68 NOB=    68 NVA=   121 NVB=   121
          Differentiating once with respect to magnetic field using GIAOs.
          Electric field/nuclear overlap derivatives assumed to be zero.
 FoFCou: FMM=F IPFlag=           0 FMFlag=      100000 FMFlg1=           0
         NFxFlg=           0 DoJE=F BraDBF=F KetDBF=T FulRan=T
         wScrn=  0.000000 ICntrl=      6100 IOpCl=  0 I1Cent=           7 NGrid=          28
         NMat0=    1 NMatS0=      1 NMatT0=    0 NMatD0=    1 NMtDS0=    0 NMtDT0=    0
 Symmetry not used in FoFCou.
 FoFJK:  IHMeth= 1 ICntrl=    6127 DoSepK=F KAlg= 0 I1Cent=           0 FoldK=F
 IRaf=         1 NMat=       1 IRICut=       1 DoRegI=T DoRafI=F ISym2E= 0 IDoP0=0 IntGTp=1.
          There are     3 degrees of freedom in the 1st order CPHF.  IDoFFX=0 NUNeed=     3.
      3 vectors produced by pass  0 Test12= 2.74D-13 3.33D-08 XBig12= 3.24D+01 1.02D+00.
 AX will form     3 AO Fock derivatives at one time.
      3 vectors produced by pass  1 Test12= 2.74D-13 3.33D-08 XBig12= 6.38D-02 1.02D-01.
      3 vectors produced by pass  2 Test12= 2.74D-13 3.33D-08 XBig12= 4.10D-04 8.69D-03.
      3 vectors produced by pass  3 Test12= 2.74D-13 3.33D-08 XBig12= 1.23D-06 2.71D-04.
      3 vectors produced by pass  4 Test12= 2.74D-13 3.33D-08 XBig12= 3.46D-09 2.06D-05.
      3 vectors produced by pass  5 Test12= 2.74D-13 3.33D-08 XBig12= 1.58D-11 2.17D-06.
      1 vectors produced by pass  6 Test12= 2.74D-13 3.33D-08 XBig12= 9.76D-14 1.47D-07.
 InvSVY:  IOpt=1 It=  1 EMax= 8.88D-16
 Solved reduced A of dimension    19 with     3 vectors.
 Calculating GIAO nuclear magnetic shielding tensors.
 SCF GIAO Magnetic shielding tensor (ppm):
      1  Br   Isotropic =  2191.0905   Anisotropy =  1139.6264
   XX=  2699.3789   YX=   464.6670   ZX=    26.8082
   XY=   462.5625   YY=  2088.4764   ZY=    31.3115
   XZ=    22.0001   YZ=    66.8756   ZZ=  1785.4163
   Eigenvalues:  1769.2941  1853.1360  2950.8415
      2  C    Isotropic =    81.7174   Anisotropy =   101.2557
   XX=    26.4899   YX=   -36.9528   ZX=     1.2687
   XY=   -35.0360   YY=    71.3635   ZY=   -11.5576
   XZ=    -0.3145   YZ=   -10.9012   ZZ=   147.2987
   Eigenvalues:     6.3308    89.6001   149.2212
      3  C    Isotropic =    83.4270   Anisotropy =   135.7456
   XX=    22.3433   YX=    34.7832   ZX=    17.3398
   XY=    34.1813   YY=    58.3045   ZY=   -21.9995
   XZ=    16.6845   YZ=   -17.7827   ZZ=   169.6331
   Eigenvalues:    -2.1792    78.5361   173.9240
      4  C    Isotropic =    85.4291   Anisotropy =   138.9618
   XX=    79.0835   YX=    -3.0419   ZX=     8.1008
   XY=    -9.1096   YY=     4.1381   ZY=   -27.0477
   XZ=    10.2400   YZ=   -25.5337   ZZ=   173.0659
   Eigenvalues:    -0.1314    78.3485   178.0703
      5  C    Isotropic =    82.5775   Anisotropy =   162.1920
   XX=    18.4847   YX=   -26.8417   ZX=    12.1332
   XY=   -23.5374   YY=    44.3286   ZY=   -18.7990
   XZ=    10.3050   YZ=   -31.6355   ZZ=   184.9193
   Eigenvalues:     3.0204    54.0067   190.7055
      6  C    Isotropic =    79.1277   Anisotropy =   149.5790
   XX=    17.6475   YX=    20.3792   ZX=    12.0137
   XY=    15.3416   YY=    45.7299   ZY=   -22.2939
   XZ=    22.6628   YZ=   -21.0608   ZZ=   174.0058
   Eigenvalues:     5.1826    53.3535   178.8470
      7  C    Isotropic =    85.5922   Anisotropy =   134.1712
   XX=    78.4043   YX=    -6.5513   ZX=     4.0160
   XY=    -6.2669   YY=     9.9475   ZY=   -35.8598
   XZ=    -9.1260   YZ=   -30.1485   ZZ=   168.4249
   Eigenvalues:     2.7403    78.9967   175.0397
      8  C    Isotropic =   105.3014   Anisotropy =    43.6624
   XX=    79.5181   YX=     5.7270   ZX=     3.6590
   XY=     4.7033   YY=   108.2912   ZY=     9.1347
   XZ=     6.8076   YZ=    14.2857   ZZ=   128.0948
   Eigenvalues:    78.3830   103.1114   134.4096
      9  C    Isotropic =   170.4525   Anisotropy =    17.3311
   XX=   169.4238   YX=    10.0152   ZX=    -6.6585
   XY=     4.3811   YY=   172.5131   ZY=    -4.8510
   XZ=    -1.2001   YZ=    -6.2817   ZZ=   169.4208
   Eigenvalues:   163.5354   165.8157   182.0066
     10  C    Isotropic =   181.7612   Anisotropy =    11.2953
   XX=   183.9112   YX=    -1.4963   ZX=    -0.1304
   XY=    -1.8581   YY=   187.4169   ZY=     5.2553
   XZ=     0.7200   YZ=     4.0299   ZZ=   173.9557
   Eigenvalues:   172.4560   183.5363   189.2915
     11  C    Isotropic =   175.0169   Anisotropy =    15.9797
   XX=   185.5549   YX=    -3.7617   ZX=    -0.0920
   XY=     5.0696   YY=   173.0447   ZY=    -0.2130
   XZ=    -2.3899   YZ=    -0.1229   ZZ=   166.4511
   Eigenvalues:   166.3684   173.0122   185.6700
     12  O    Isotropic =   266.1493   Anisotropy =   108.9535
   XX=   196.7241   YX=   -17.4438   ZX=    48.0939
   XY=     5.4942   YY=   284.1060   ZY=    28.3319
   XZ=    38.4188   YZ=    17.0299   ZZ=   317.6177
   Eigenvalues:   181.2524   278.4105   338.7849
     13  C    Isotropic =   141.5143   Anisotropy =    57.7685
   XX=   113.4221   YX=   -16.2404   ZX=     0.7026
   XY=   -10.2447   YY=   161.3035   ZY=   -24.2387
   XZ=     8.8467   YZ=   -17.7063   ZZ=   149.8172
   Eigenvalues:   109.9915   134.5247   180.0266
     14  C    Isotropic =   144.2045   Anisotropy =    55.4564
   XX=   115.5568   YX=    13.0065   ZX=   -10.2976
   XY=    13.1503   YY=   178.5499   ZY=     3.9886
   XZ=     0.9299   YZ=    -3.9085   ZZ=   138.5067
   Eigenvalues:   112.1459   139.2920   181.1754
     15  O    Isotropic =   242.6805   Anisotropy =    94.8438
   XX=   186.1089   YX=    -7.9238   ZX=    53.7955
   XY=    -9.4284   YY=   259.6391   ZY=   -10.9437
   XZ=    49.4427   YZ=     2.5778   ZZ=   282.2936
   Eigenvalues:   163.2389   258.8930   305.9097
     16  H    Isotropic =    25.7265   Anisotropy =     6.6536
   XX=    26.4437   YX=     1.5093   ZX=    -0.0471
   XY=     0.9266   YY=    29.5245   ZY=     1.3458
   XZ=    -0.2479   YZ=     1.6739   ZZ=    21.2112
   Eigenvalues:    20.9218    26.0953    30.1622
     17  H    Isotropic =    25.8610   Anisotropy =     5.4256
   XX=    29.2612   YX=    -1.0365   ZX=    -0.6900
   XY=    -0.2478   YY=    26.4679   ZY=     0.7290
   XZ=    -0.5453   YZ=     0.7153   ZZ=    21.8540
   Eigenvalues:    21.7081    26.3968    29.4781
     18  H    Isotropic =    25.4610   Anisotropy =    13.9516
   XX=    34.3494   YX=    -2.3503   ZX=    -0.2831
   XY=    -2.0613   YY=    22.9433   ZY=     0.6841
   XZ=     0.9665   YZ=     1.6170   ZZ=    19.0903
   Eigenvalues:    18.7159    22.9050    34.7621
     19  H    Isotropic =    30.9223   Anisotropy =     7.8559
   XX=    34.6311   YX=    -1.6461   ZX=    -2.6094
   XY=    -1.7461   YY=    31.6957   ZY=     1.0966
   XZ=    -2.5175   YZ=     0.6965   ZZ=    26.4402
   Eigenvalues:    25.6767    30.9307    36.1596
     20  H    Isotropic =    30.9020   Anisotropy =     7.6292
   XX=    27.8876   YX=     1.1940   ZX=    -1.9638
   XY=     1.5341   YY=    29.8403   ZY=    -1.0329
   XZ=    -2.7057   YZ=    -1.0054   ZZ=    34.9782
   Eigenvalues:    26.8216    29.8963    35.9882
     21  H    Isotropic =    31.0767   Anisotropy =    12.1144
   XX=    36.3423   YX=     4.5114   ZX=    -1.3330
   XY=     4.4851   YY=    31.6752   ZY=     0.1007
   XZ=    -1.3145   YZ=     0.2838   ZZ=    25.2126
   Eigenvalues:    24.9553    29.1218    39.1529
     22  H    Isotropic =    30.3801   Anisotropy =     7.1293
   XX=    28.7089   YX=     0.5681   ZX=     3.6734
   XY=     0.4235   YY=    30.3138   ZY=     0.0090
   XZ=     5.0860   YZ=     0.0645   ZZ=    32.1177
   Eigenvalues:    25.6810    30.3264    35.1330
     23  H    Isotropic =    30.1161   Anisotropy =     9.8926
   XX=    29.6754   YX=    -0.2989   ZX=    -0.0892
   XY=    -0.6005   YY=    33.4056   ZY=     5.1190
   XZ=     0.5503   YZ=     6.0318   ZZ=    27.2674
   Eigenvalues:    23.9403    29.6969    36.7112
     24  H    Isotropic =    30.1005   Anisotropy =     9.4360
   XX=    29.4457   YX=     0.1193   ZX=     0.1352
   XY=     0.5203   YY=    32.2727   ZY=    -4.8363
   XZ=    -2.5604   YZ=    -6.2188   ZZ=    28.5833
   Eigenvalues:    24.4710    29.4394    36.3912
     25  H    Isotropic =    28.7843   Anisotropy =     9.6060
   XX=    26.1584   YX=     0.9200   ZX=     1.1759
   XY=     1.7325   YY=    34.8248   ZY=     1.7736
   XZ=     0.4443   YZ=     0.5527   ZZ=    25.3696
   Eigenvalues:    24.8533    26.3112    35.1883
     26  H    Isotropic =    28.9289   Anisotropy =    11.3527
   XX=    30.8531   YX=    -5.3045   ZX=    -1.8226
   XY=    -6.0407   YY=    30.7032   ZY=    -0.0275
   XZ=    -0.6674   YZ=    -0.4534   ZZ=    25.2303
   Eigenvalues:    24.1004    26.1890    36.4973
     27  H    Isotropic =    29.1425   Anisotropy =    10.4032
   XX=    26.1481   YX=    -0.8035   ZX=     2.0432
   XY=    -1.7649   YY=    30.9623   ZY=    -5.0451
   XZ=     2.6637   YZ=    -4.4956   ZZ=    30.3173
   Eigenvalues:    24.8394    26.5102    36.0780
     28  H    Isotropic =    28.8899   Anisotropy =     8.7599
   XX=    31.2293   YX=     1.5668   ZX=    -3.4922
   XY=     2.8283   YY=    28.9936   ZY=    -2.2708
   XZ=    -2.5094   YZ=    -3.9374   ZZ=    26.4468
   Eigenvalues:    24.0681    27.8718    34.7299
 End of Minotr F.D. properties file   721 does not exist.
 End of Minotr F.D. properties file   722 does not exist.
 End of Minotr F.D. properties file   788 does not exist.

 **********************************************************************

            Population analysis using the SCF Density.

 **********************************************************************

 Orbital symmetries:
       Occupied  (A) (A) (A) (A) (A) (A) (A) (A) (A) (A) (A) (A)
                 (A) (A) (A) (A) (A) (A) (A) (A) (A) (A) (A) (A)
                 (A) (A) (A) (A) (A) (A) (A) (A) (A) (A) (A) (A)
                 (A) (A) (A) (A) (A) (A) (A) (A) (A) (A) (A) (A)
                 (A) (A) (A) (A) (A) (A) (A) (A) (A) (A) (A) (A)
                 (A) (A) (A) (A) (A) (A) (A) (A)
       Virtual   (A) (A) (A) (A) (A) (A) (A) (A) (A) (A) (A) (A)
                 (A) (A) (A) (A) (A) (A) (A) (A) (A) (A) (A) (A)
                 (A) (A) (A) (A) (A) (A) (A) (A) (A) (A) (A) (A)
                 (A) (A) (A) (A) (A) (A) (A) (A) (A) (A) (A) (A)
                 (A) (A) (A) (A) (A) (A) (A) (A) (A) (A) (A) (A)
                 (A) (A) (A) (A) (A) (A) (A) (A) (A) (A) (A) (A)
                 (A) (A) (A) (A) (A) (A) (A) (A) (A) (A) (A) (A)
                 (A) (A) (A) (A) (A) (A) (A) (A) (A) (A) (A) (A)
                 (A) (A) (A) (A) (A) (A) (A) (A) (A) (A) (A) (A)
                 (A) (A) (A) (A) (A) (A) (A) (A) (A) (A) (A) (A)
                 (A)
 The electronic state is 1-A.
 Alpha  occ. eigenvalues -- -480.35813 -62.56744 -56.14838 -56.14426 -56.14414
 Alpha  occ. eigenvalues --  -19.13450 -19.13288 -10.29409 -10.24109 -10.24037
 Alpha  occ. eigenvalues --  -10.23914 -10.20522 -10.20005 -10.19802 -10.19503
 Alpha  occ. eigenvalues --  -10.19411 -10.19306 -10.18529 -10.18265  -8.84632
 Alpha  occ. eigenvalues --   -6.62116  -6.60739  -6.60720  -2.70708  -2.70222
 Alpha  occ. eigenvalues --   -2.70209  -2.69068  -2.69063  -1.12226  -1.02443
 Alpha  occ. eigenvalues --   -0.91954  -0.86643  -0.82498  -0.80748  -0.78057
 Alpha  occ. eigenvalues --   -0.75670  -0.72079  -0.66145  -0.65567  -0.63892
 Alpha  occ. eigenvalues --   -0.62222  -0.56804  -0.54176  -0.52604  -0.50727
 Alpha  occ. eigenvalues --   -0.50492  -0.49794  -0.46336  -0.45646  -0.45251
 Alpha  occ. eigenvalues --   -0.43739  -0.42750  -0.42343  -0.41657  -0.39682
 Alpha  occ. eigenvalues --   -0.39152  -0.38272  -0.36717  -0.36071  -0.34579
 Alpha  occ. eigenvalues --   -0.34335  -0.33713  -0.31211  -0.28982  -0.28431
 Alpha  occ. eigenvalues --   -0.26396  -0.26124  -0.24118
 Alpha virt. eigenvalues --   -0.00439  -0.00221   0.02646   0.09712   0.10549
 Alpha virt. eigenvalues --    0.12323   0.13028   0.13267   0.14569   0.14965
 Alpha virt. eigenvalues --    0.15262   0.16377   0.17581   0.17798   0.18421
 Alpha virt. eigenvalues --    0.19646   0.20194   0.21678   0.22297   0.23802
 Alpha virt. eigenvalues --    0.24512   0.25538   0.27243   0.29743   0.30091
 Alpha virt. eigenvalues --    0.30844   0.32332   0.33897   0.36102   0.37832
 Alpha virt. eigenvalues --    0.39598   0.47619   0.50668   0.52022   0.52789
 Alpha virt. eigenvalues --    0.53821   0.57380   0.57539   0.58364   0.60358
 Alpha virt. eigenvalues --    0.61284   0.61670   0.62196   0.63860   0.65256
 Alpha virt. eigenvalues --    0.66478   0.68600   0.69086   0.69870   0.71982
 Alpha virt. eigenvalues --    0.75640   0.76132   0.77071   0.78769   0.79282
 Alpha virt. eigenvalues --    0.79853   0.80932   0.82102   0.82761   0.83608
 Alpha virt. eigenvalues --    0.85359   0.88389   0.88781   0.88957   0.89806
 Alpha virt. eigenvalues --    0.90063   0.91405   0.92318   0.92832   0.93277
 Alpha virt. eigenvalues --    0.94381   0.94751   0.95196   0.95793   0.96411
 Alpha virt. eigenvalues --    0.97383   0.97679   0.99310   0.99684   1.01335
 Alpha virt. eigenvalues --    1.01934   1.03661   1.04562   1.05946   1.08249
 Alpha virt. eigenvalues --    1.10537   1.11520   1.12338   1.17515   1.17745
 Alpha virt. eigenvalues --    1.26914   1.29474   1.32882   1.34873   1.37620
 Alpha virt. eigenvalues --    1.43175   1.46276   1.49166   1.52738   1.56462
 Alpha virt. eigenvalues --    1.58639   1.61144   1.63682   1.69021   1.71676
 Alpha virt. eigenvalues --    1.75675   1.80479   1.83665   1.86779   1.89267
 Alpha virt. eigenvalues --    1.94021   1.99425   2.01610   2.04257   2.06526
 Alpha virt. eigenvalues --    2.17216   2.30886   2.37919   2.41190   2.50936
 Alpha virt. eigenvalues --    2.62021
          Condensed to atoms (all electrons):
               1          2          3          4          5          6
     1  Br  34.933233   0.211679  -0.039843   0.002169   0.000290   0.002723
     2  C    0.211679   5.109538   0.455280  -0.026704  -0.057136  -0.006848
     3  C   -0.039843   0.455280   4.966139   0.497180  -0.018696  -0.046688
     4  C    0.002169  -0.026704   0.497180   4.905217   0.482167  -0.013451
     5  C    0.000290  -0.057136  -0.018696   0.482167   5.114033   0.403936
     6  C    0.002723  -0.006848  -0.046688  -0.013451   0.403936   5.277756
     7  C   -0.042340   0.430568  -0.035904  -0.032243  -0.000977   0.431162
     8  C   -0.000050   0.001882   0.000427   0.000412  -0.000744   0.270341
     9  C    0.000001   0.000141  -0.000051   0.000205  -0.005492  -0.112423
    10  C    0.000000  -0.000074  -0.000034   0.002064  -0.056914   0.000825
    11  C    0.000002   0.000569   0.001067  -0.022490   0.276839  -0.007402
    12  O   -0.000001   0.000970  -0.000018   0.000002   0.000941  -0.057675
    13  C   -0.000000  -0.000073   0.000002   0.000001  -0.000093   0.010352
    14  C    0.000001   0.000065  -0.000009   0.000005  -0.000029  -0.007377
    15  O    0.000000   0.000018  -0.000014   0.000020  -0.003289  -0.036902
    16  H    0.001027  -0.022517   0.390251  -0.017850   0.003116  -0.000035
    17  H   -0.000070   0.003464  -0.023121   0.396976  -0.026940   0.003571
    18  H    0.001114  -0.009568   0.002408   0.000106   0.002851  -0.022563
    19  H   -0.000000  -0.000002   0.000001  -0.000001  -0.000326   0.007681
    20  H   -0.000000  -0.000009   0.000006  -0.000178  -0.000292   0.002739
    21  H    0.000000   0.000001  -0.000001  -0.000012   0.005381  -0.000650
    22  H   -0.000000  -0.000001   0.000004  -0.000174   0.000157   0.001677
    23  H   -0.000000  -0.000001   0.000156  -0.004974  -0.032402   0.002799
    24  H   -0.000000   0.000006   0.000051  -0.005836  -0.033044  -0.002463
    25  H   -0.000000  -0.000025   0.000000  -0.000000   0.000005   0.000293
    26  H   -0.000000   0.000004  -0.000000  -0.000000   0.000013  -0.000768
    27  H    0.000000   0.000002  -0.000000   0.000000  -0.000006  -0.000493
    28  H   -0.000022   0.000194   0.000010  -0.000022   0.000366   0.000624
               7          8          9         10         11         12
     1  Br  -0.042340  -0.000050   0.000001   0.000000   0.000002  -0.000001
     2  C    0.430568   0.001882   0.000141  -0.000074   0.000569   0.000970
     3  C   -0.035904   0.000427  -0.000051  -0.000034   0.001067  -0.000018
     4  C   -0.032243   0.000412   0.000205   0.002064  -0.022490   0.000002
     5  C   -0.000977  -0.000744  -0.005492  -0.056914   0.276839   0.000941
     6  C    0.431162   0.270341  -0.112423   0.000825  -0.007402  -0.057675
     7  C    4.993675  -0.002142   0.001567   0.000092   0.000772  -0.008261
     8  C   -0.002142   4.590638   0.355312  -0.077915  -0.012325   0.220066
     9  C    0.001567   0.355312   5.414326   0.237448  -0.080971  -0.041951
    10  C    0.000092  -0.077915   0.237448   5.362570   0.301770   0.003011
    11  C    0.000772  -0.012325  -0.080971   0.301770   5.201075  -0.000072
    12  O   -0.008261   0.220066  -0.041951   0.003011  -0.000072   8.460511
    13  C    0.000763  -0.069836  -0.002912  -0.000065  -0.000000   0.173719
    14  C   -0.001040  -0.065663   0.010716  -0.000380  -0.000016  -0.027234
    15  O   -0.004775   0.202860  -0.066902  -0.000557  -0.001298  -0.037587
    16  H    0.003111   0.000005   0.000000   0.000001  -0.000041   0.000000
    17  H   -0.000044  -0.000057   0.000020   0.000121  -0.005229   0.000000
    18  H    0.366025  -0.006304   0.000747  -0.000061  -0.000060   0.021803
    19  H   -0.000009  -0.030098   0.366056  -0.028884   0.006039   0.001572
    20  H    0.000067  -0.035882   0.365397  -0.030326  -0.003559   0.001949
    21  H   -0.000006   0.006889  -0.032019   0.384247  -0.035653  -0.000033
    22  H   -0.000095  -0.010038  -0.038069   0.377634  -0.033581   0.000084
    23  H   -0.000058  -0.000227   0.006119  -0.033568   0.386777   0.000000
    24  H   -0.000028   0.000238  -0.002720  -0.032751   0.384435   0.000003
    25  H    0.000304   0.006890  -0.000375   0.000008   0.000001  -0.025183
    26  H   -0.000012  -0.000827   0.002858  -0.000214   0.000002  -0.027068
    27  H    0.000004   0.007506   0.000191  -0.000007  -0.000000   0.002413
    28  H    0.005576  -0.002264  -0.000330  -0.000056   0.000009  -0.002099
              13         14         15         16         17         18
     1  Br  -0.000000   0.000001   0.000000   0.001027  -0.000070   0.001114
     2  C   -0.000073   0.000065   0.000018  -0.022517   0.003464  -0.009568
     3  C    0.000002  -0.000009  -0.000014   0.390251  -0.023121   0.002408
     4  C    0.000001   0.000005   0.000020  -0.017850   0.396976   0.000106
     5  C   -0.000093  -0.000029  -0.003289   0.003116  -0.026940   0.002851
     6  C    0.010352  -0.007377  -0.036902  -0.000035   0.003571  -0.022563
     7  C    0.000763  -0.001040  -0.004775   0.003111  -0.000044   0.366025
     8  C   -0.069836  -0.065663   0.202860   0.000005  -0.000057  -0.006304
     9  C   -0.002912   0.010716  -0.066902   0.000000   0.000020   0.000747
    10  C   -0.000065  -0.000380  -0.000557   0.000001   0.000121  -0.000061
    11  C   -0.000000  -0.000016  -0.001298  -0.000041  -0.005229  -0.000060
    12  O    0.173719  -0.027234  -0.037587   0.000000   0.000000   0.021803
    13  C    4.969748   0.337322  -0.034690  -0.000000  -0.000000  -0.002289
    14  C    0.337322   4.980054   0.165151   0.000000   0.000000  -0.000207
    15  O   -0.034690   0.165151   8.479807  -0.000000   0.000001  -0.000141
    16  H   -0.000000   0.000000  -0.000000   0.439093  -0.004468  -0.000074
    17  H   -0.000000   0.000000   0.000001  -0.004468   0.458797   0.000009
    18  H   -0.002289  -0.000207  -0.000141  -0.000074   0.000009   0.437090
    19  H    0.001656  -0.000643   0.004141   0.000000  -0.000000  -0.000025
    20  H    0.000187  -0.000299   0.003426  -0.000000  -0.000000  -0.000007
    21  H    0.000000   0.000010  -0.000018  -0.000000  -0.000004   0.000000
    22  H    0.000100  -0.000302   0.014988   0.000000  -0.000004   0.000001
    23  H   -0.000000  -0.000002   0.000035  -0.000005   0.003337   0.000001
    24  H   -0.000000   0.000002  -0.000012   0.000001   0.000885   0.000004
    25  H    0.376455  -0.030976   0.002682  -0.000000   0.000000  -0.000983
    26  H    0.362877  -0.041662   0.000083   0.000000   0.000000   0.000322
    27  H   -0.028389   0.375358  -0.023603  -0.000000   0.000000   0.000066
    28  H   -0.046218   0.365828  -0.024627  -0.000000  -0.000000   0.001956
              19         20         21         22         23         24
     1  Br  -0.000000  -0.000000   0.000000  -0.000000  -0.000000  -0.000000
     2  C   -0.000002  -0.000009   0.000001  -0.000001  -0.000001   0.000006
     3  C    0.000001   0.000006  -0.000001   0.000004   0.000156   0.000051
     4  C   -0.000001  -0.000178  -0.000012  -0.000174  -0.004974  -0.005836
     5  C   -0.000326  -0.000292   0.005381   0.000157  -0.032402  -0.033044
     6  C    0.007681   0.002739  -0.000650   0.001677   0.002799  -0.002463
     7  C   -0.000009   0.000067  -0.000006  -0.000095  -0.000058  -0.000028
     8  C   -0.030098  -0.035882   0.006889  -0.010038  -0.000227   0.000238
     9  C    0.366056   0.365397  -0.032019  -0.038069   0.006119  -0.002720
    10  C   -0.028884  -0.030326   0.384247   0.377634  -0.033568  -0.032751
    11  C    0.006039  -0.003559  -0.035653  -0.033581   0.386777   0.384435
    12  O    0.001572   0.001949  -0.000033   0.000084   0.000000   0.000003
    13  C    0.001656   0.000187   0.000000   0.000100  -0.000000  -0.000000
    14  C   -0.000643  -0.000299   0.000010  -0.000302  -0.000002   0.000002
    15  O    0.004141   0.003426  -0.000018   0.014988   0.000035  -0.000012
    16  H    0.000000  -0.000000  -0.000000   0.000000  -0.000005   0.000001
    17  H   -0.000000  -0.000000  -0.000004  -0.000004   0.003337   0.000885
    18  H   -0.000025  -0.000007   0.000000   0.000001   0.000001   0.000004
    19  H    0.498065  -0.020565  -0.002837  -0.001421  -0.000150  -0.000204
    20  H   -0.020565   0.505655  -0.003131   0.004529  -0.000064   0.003897
    21  H   -0.002837  -0.003131   0.507340  -0.024659  -0.000334  -0.004826
    22  H   -0.001421   0.004529  -0.024659   0.489817  -0.004887   0.004240
    23  H   -0.000150  -0.000064  -0.000334  -0.004887   0.498941  -0.027545
    24  H   -0.000204   0.003897  -0.004826   0.004240  -0.027545   0.502622
    25  H    0.000046   0.000006  -0.000000  -0.000001  -0.000000   0.000000
    26  H   -0.000267   0.000001   0.000004   0.000019  -0.000000   0.000000
    27  H   -0.000189  -0.000003   0.000000  -0.000053   0.000000  -0.000000
    28  H    0.000063   0.000027  -0.000000   0.000063  -0.000000  -0.000000
              25         26         27         28
     1  Br  -0.000000  -0.000000   0.000000  -0.000022
     2  C   -0.000025   0.000004   0.000002   0.000194
     3  C    0.000000  -0.000000  -0.000000   0.000010
     4  C   -0.000000  -0.000000   0.000000  -0.000022
     5  C    0.000005   0.000013  -0.000006   0.000366
     6  C    0.000293  -0.000768  -0.000493   0.000624
     7  C    0.000304  -0.000012   0.000004   0.005576
     8  C    0.006890  -0.000827   0.007506  -0.002264
     9  C   -0.000375   0.002858   0.000191  -0.000330
    10  C    0.000008  -0.000214  -0.000007  -0.000056
    11  C    0.000001   0.000002  -0.000000   0.000009
    12  O   -0.025183  -0.027068   0.002413  -0.002099
    13  C    0.376455   0.362877  -0.028389  -0.046218
    14  C   -0.030976  -0.041662   0.375358   0.365828
    15  O    0.002682   0.000083  -0.023603  -0.024627
    16  H   -0.000000   0.000000  -0.000000  -0.000000
    17  H    0.000000   0.000000   0.000000  -0.000000
    18  H   -0.000983   0.000322   0.000066   0.001956
    19  H    0.000046  -0.000267  -0.000189   0.000063
    20  H    0.000006   0.000001  -0.000003   0.000027
    21  H   -0.000000   0.000004   0.000000  -0.000000
    22  H   -0.000001   0.000019  -0.000053   0.000063
    23  H   -0.000000  -0.000000   0.000000  -0.000000
    24  H    0.000000   0.000000  -0.000000  -0.000000
    25  H    0.509502  -0.035553   0.001282  -0.000818
    26  H   -0.035553   0.552284  -0.002199   0.004421
    27  H    0.001282  -0.002199   0.502620  -0.033779
    28  H   -0.000818   0.004421  -0.033779   0.538229
 Mulliken charges:
               1
     1  Br  -0.069911
     2  C   -0.091421
     3  C   -0.148603
     4  C   -0.162590
     5  C   -0.053714
     6  C   -0.100739
     7  C   -0.105753
     8  C    0.650909
     9  C   -0.376890
    10  C   -0.407986
    11  C   -0.356660
    12  O   -0.659863
    13  C   -0.048617
    14  C   -0.058675
    15  O   -0.638796
    16  H    0.208386
    17  H    0.192757
    18  H    0.207779
    19  H    0.200301
    20  H    0.206429
    21  H    0.200312
    22  H    0.219975
    23  H    0.206051
    24  H    0.213049
    25  H    0.196441
    26  H    0.185683
    27  H    0.199279
    28  H    0.192865
 Sum of Mulliken charges =  -0.00000
 Mulliken charges with hydrogens summed into heavy atoms:
               1
     1  Br  -0.069911
     2  C   -0.091421
     3  C    0.059783
     4  C    0.030167
     5  C   -0.053714
     6  C   -0.100739
     7  C    0.102027
     8  C    0.650909
     9  C    0.029840
    10  C    0.012301
    11  C    0.062440
    12  O   -0.659863
    13  C    0.333507
    14  C    0.333469
    15  O   -0.638796
 Electronic spatial extent (au):  <R**2>=           4468.2918
 Charge=             -0.0000 electrons
 Dipole moment (field-independent basis, Debye):
    X=              1.9014    Y=             -0.2939    Z=              0.5334  Tot=              1.9966
 Quadrupole moment (field-independent basis, Debye-Ang):
   XX=            -98.4282   YY=            -85.6960   ZZ=           -104.4528
   XY=             -2.6043   XZ=             -0.7855   YZ=             -2.2355
 Traceless Quadrupole moment (field-independent basis, Debye-Ang):
   XX=             -2.2359   YY=             10.4963   ZZ=             -8.2604
   XY=             -2.6043   XZ=             -0.7855   YZ=             -2.2355
 Octapole moment (field-independent basis, Debye-Ang**2):
  XXX=            -83.1646  YYY=            -39.9549  ZZZ=              0.5797  XYY=            -16.7274
  XXY=            -12.8709  XXZ=             -2.7294  XZZ=            -30.4333  YZZ=            -11.5643
  YYZ=              9.5551  XYZ=             -8.1595
 Hexadecapole moment (field-independent basis, Debye-Ang**3):
 XXXX=          -3229.5578 YYYY=          -1484.9938 ZZZZ=           -299.3017 XXXY=             30.3378
 XXXZ=             -5.6896 YYYX=            -22.3085 YYYZ=              4.1349 ZZZX=             16.8774
 ZZZY=            -11.2594 XXYY=           -755.7261 XXZZ=           -615.6290 YYZZ=           -319.9205
 XXYZ=             -6.1708 YYXZ=             13.3572 ZZXY=             14.2002
 N-N= 1.334790511363D+03 E-N=-1.021550353045D+04  KE= 3.164379326303D+03
 Unable to Open any file for archive entry.
 1\1\GINC-DYNAMO\SP\RmPW1PW91\MIDIx\C12H13Br1O2\RPATON\26-Sep-2024\0\\#
  nmr=giao mpw1pw91/midix\\arbr42_wb97xd_nmrcreated by GaussianPrep\\0,
 1\Br,0,-3.428086,-0.473102,-0.056927\C,0,-1.758628,0.43068,0.00655\C,0
 ,-1.721726,1.798121,0.246126\C,0,-0.49474,2.446975,0.260833\C,0,0.6982
 4,1.753207,0.060461\C,0,0.641628,0.373279,-0.143968\C,0,-0.586783,-0.2
 78374,-0.194909\C,0,1.916216,-0.447422,-0.255539\C,0,3.080987,0.377608
 ,-0.793501\C,0,3.25398,1.621395,0.09467\C,0,2.007033,2.520736,-0.00045
 5\O,0,1.668228,-1.611971,-1.050421\C,0,2.061675,-2.751903,-0.269453\C,
 0,1.845227,-2.250489,1.161109\O,0,2.307444,-0.901489,1.054982\H,0,-2.6
 42427,2.350472,0.407026\H,0,-0.464315,3.522278,0.426823\H,0,-0.61176,-
 1.337419,-0.42399\H,0,3.977216,-0.252524,-0.775823\H,0,2.868497,0.6568
 52,-1.834095\H,0,4.143143,2.188614,-0.205796\H,0,3.402147,1.284806,1.1
 28387\H,0,2.028781,3.278576,0.794271\H,0,2.035903,3.066586,-0.957911\H
 ,0,1.424791,-3.593616,-0.557662\H,0,3.117791,-3.007177,-0.440188\H,0,2
 .455556,-2.755956,1.914793\H,0,0.783648,-2.298113,1.448565\\Version=ES
 64L-G16RevC.01\State=1-A\HF=-3174.0185724\RMSD=3.543e-09\Dipole=0.7480
 805,-0.1156404,0.2098364\Quadrupole=-1.6623274,7.8037586,-6.1414312,-1
 .9362246,-0.5840005,-1.6620555\PG=C01 [X(C12H13Br1O2)]\\@
 The archive entry for this job was punched.


 TERENCE, THIS IS STUPID STUFF:
 YOU EAT YOUR VICTUALS FAST ENOUGH;
 THERE CAN'T BE MUCH AMISS, 'TIS CLEAR
 TO SEE THE RATE YOU DRINK YOUR BEER.
 BUT OH, GOOD LORD, THE VERSE YOU MAKE,
 IT GIVES A CHAP THE BELLY-ACHE.
 THE COW, THE OLD COW, SHE IS DEAD;
 IT SLEEPS WELL, THE HORNED HEAD:
 WE POOR LADS, 'TIS OUR TURN NOW
 TO HEAR SUCH TUNES AS KILLED THE COW.
 PRETTY FRIENDSHIP 'TIS TO RHYME
 YOUR FRIENDS TO DEATH BEFORE THEIR TIME.
 MOPING, MELANCHOLY MAD:
 COME PIPE A TUNE TO DANCE TO, LAD.

     -- A. E. HOUSMAN
 Job cpu time:       0 days  0 hours  6 minutes 39.0 seconds.
 Elapsed time:       0 days  0 hours  0 minutes 19.5 seconds.
 File lengths (MBytes):  RWF=     27 Int=      0 D2E=      0 Chk=      4 Scr=      1
 Normal termination of Gaussian 16 at Thu Sep 26 13:02:04 2024.
