 Entering Gaussian System, Link 0=/usr/local/Gaussian/G16C/g16/g16
 Input=arbr31_wb97xd_nmr.com
 Output=arbr31_wb97xd_nmr.log
 Initial command:
 /usr/local/Gaussian/G16C/g16/l1.exe "/home/rpaton/opt/midi/nmr/Gau-1251226.inp" -scrdir="/home/rpaton/opt/midi/nmr/"
 Entering Link 1 = /usr/local/Gaussian/G16C/g16/l1.exe PID=   1251227.
  
 Copyright (c) 1988-2019, Gaussian, Inc.  All Rights Reserved.
  
 This is part of the Gaussian(R) 16 program.  It is based on
 the Gaussian(R) 09 system (copyright 2009, Gaussian, Inc.),
 the Gaussian(R) 03 system (copyright 2003, Gaussian, Inc.),
 the Gaussian(R) 98 system (copyright 1998, Gaussian, Inc.),
 the Gaussian(R) 94 system (copyright 1995, Gaussian, Inc.),
 the Gaussian 92(TM) system (copyright 1992, Gaussian, Inc.),
 the Gaussian 90(TM) system (copyright 1990, Gaussian, Inc.),
 the Gaussian 88(TM) system (copyright 1988, Gaussian, Inc.),
 the Gaussian 86(TM) system (copyright 1986, Carnegie Mellon
 University), and the Gaussian 82(TM) system (copyright 1983,
 Carnegie Mellon University). Gaussian is a federally registered
 trademark of Gaussian, Inc.
  
 This software contains proprietary and confidential information,
 including trade secrets, belonging to Gaussian, Inc.
  
 This software is provided under written license and may be
 used, copied, transmitted, or stored only in accord with that
 written license.
  
 The following legend is applicable only to US Government
 contracts under FAR:
  
                    RESTRICTED RIGHTS LEGEND
  
 Use, reproduction and disclosure by the US Government is
 subject to restrictions as set forth in subparagraphs (a)
 and (c) of the Commercial Computer Software - Restricted
 Rights clause in FAR 52.227-19.
  
 Gaussian, Inc.
 340 Quinnipiac St., Bldg. 40, Wallingford CT 06492
  
  
 ---------------------------------------------------------------
 Warning -- This program may not be used in any manner that
 competes with the business of Gaussian, Inc. or will provide
 assistance to any competitor of Gaussian, Inc.  The licensee
 of this program is prohibited from giving any competitor of
 Gaussian, Inc. access to this program.  By using this program,
 the user acknowledges that Gaussian, Inc. is engaged in the
 business of creating and licensing software in the field of
 computational chemistry and represents and warrants to the
 licensee that it is not a competitor of Gaussian, Inc. and that
 it will not use this program in any manner prohibited above.
 ---------------------------------------------------------------
  

 Cite this work as:
 Gaussian 16, Revision C.01,
 M. J. Frisch, G. W. Trucks, H. B. Schlegel, G. E. Scuseria, 
 M. A. Robb, J. R. Cheeseman, G. Scalmani, V. Barone, 
 G. A. Petersson, H. Nakatsuji, X. Li, M. Caricato, A. V. Marenich, 
 J. Bloino, B. G. Janesko, R. Gomperts, B. Mennucci, H. P. Hratchian, 
 J. V. Ortiz, A. F. Izmaylov, J. L. Sonnenberg, D. Williams-Young, 
 F. Ding, F. Lipparini, F. Egidi, J. Goings, B. Peng, A. Petrone, 
 T. Henderson, D. Ranasinghe, V. G. Zakrzewski, J. Gao, N. Rega, 
 G. Zheng, W. Liang, M. Hada, M. Ehara, K. Toyota, R. Fukuda, 
 J. Hasegawa, M. Ishida, T. Nakajima, Y. Honda, O. Kitao, H. Nakai, 
 T. Vreven, K. Throssell, J. A. Montgomery, Jr., J. E. Peralta, 
 F. Ogliaro, M. J. Bearpark, J. J. Heyd, E. N. Brothers, K. N. Kudin, 
 V. N. Staroverov, T. A. Keith, R. Kobayashi, J. Normand, 
 K. Raghavachari, A. P. Rendell, J. C. Burant, S. S. Iyengar, 
 J. Tomasi, M. Cossi, J. M. Millam, M. Klene, C. Adamo, R. Cammi, 
 J. W. Ochterski, R. L. Martin, K. Morokuma, O. Farkas, 
 J. B. Foresman, and D. J. Fox, Gaussian, Inc., Wallingford CT, 2019.
 
 ******************************************
 Gaussian 16:  ES64L-G16RevC.01  3-Jul-2019
                26-Sep-2024 
 ******************************************
 %chk=arbr31_wb97xd_nmr.chk
 %mem=48GB
 %nprocshared=24
 Will use up to   24 processors via shared memory.
 -------------------------
 # nmr=giao mpw1pw91/midix
 -------------------------
 1/38=1,172=1/1;
 2/12=2,17=6,18=5,40=1/2;
 3/5=20,11=2,25=1,30=1,74=-7/1,2,3,8;
 4//1;
 5/5=2,38=5/2;
 8/6=1,10=90,11=11/1;
 10/13=100,45=16/2;
 6/7=2,8=2,9=2,10=2,28=1/1;
 99/9=1/99;
 ----------------------------------------
 arbr31_wb97xd_nmrcreated by GaussianPrep
 ----------------------------------------
 Symbolic Z-matrix:
 Charge =  0 Multiplicity = 1
 O                     3.84262   1.41659  -0.00033 
 C                     3.09769   0.45737   0.00065 
 C                     3.50942  -1.03708  -0.00029 
 C                     2.18621  -1.85319  -0.00001 
 C                     1.09116  -0.79931   0.00018 
 C                    -0.28333  -0.98969   0.00016 
 C                    -1.10267   0.135     0.00006 
 Br                   -2.98518  -0.09599  -0.00006 
 C                    -0.57889   1.42961  -0.00002 
 C                     0.79818   1.60563   0.00004 
 C                     1.61397   0.48482   0.0002 
 H                     4.12836  -1.23376  -0.8844 
 H                     4.12913  -1.23442   0.88311 
 H                     2.10716  -2.4984    0.88435 
 H                     2.10681  -2.49831  -0.88441 
 H                    -0.71898  -1.98508   0.00012 
 H                    -1.25057   2.28207  -0.00009 
 H                     1.24804   2.59579   0.00009 
 
                          Input orientation:                          
 ---------------------------------------------------------------------
 Center     Atomic      Atomic             Coordinates (Angstroms)
 Number     Number       Type             X           Y           Z
 ---------------------------------------------------------------------
      1          8           0        3.842615    1.416587   -0.000329
      2          6           0        3.097688    0.457366    0.000653
      3          6           0        3.509418   -1.037081   -0.000294
      4          6           0        2.186211   -1.853192   -0.000009
      5          6           0        1.091157   -0.799310    0.000184
      6          6           0       -0.283334   -0.989693    0.000160
      7          6           0       -1.102674    0.134998    0.000064
      8         35           0       -2.985180   -0.095985   -0.000057
      9          6           0       -0.578886    1.429614   -0.000022
     10          6           0        0.798184    1.605630    0.000037
     11          6           0        1.613969    0.484816    0.000197
     12          1           0        4.128357   -1.233764   -0.884401
     13          1           0        4.129134   -1.234421    0.883112
     14          1           0        2.107155   -2.498401    0.884354
     15          1           0        2.106813   -2.498312   -0.884406
     16          1           0       -0.718975   -1.985078    0.000118
     17          1           0       -1.250565    2.282068   -0.000088
     18          1           0        1.248040    2.595791    0.000090
 ---------------------------------------------------------------------
                    Distance matrix (angstroms):
                    1          2          3          4          5
     1  O    0.000000
     2  C    1.214505   0.000000
     3  C    2.476188   1.550127   0.000000
     4  C    3.665396   2.483842   1.554643   0.000000
     5  C    3.532806   2.367573   2.429922   1.519806   0.000000
     6  C    4.776363   3.677675   3.793048   2.616158   1.387613
     7  C    5.108655   4.212714   4.758693   3.843132   2.384497
     8  Br   6.993330   6.107985   6.562428   5.461782   4.136567
     9  C    4.421520   3.802955   4.774810   4.292153   2.785165
    10  C    3.050295   2.570259   3.786121   3.726938   2.422719
    11  C    2.415587   1.483973   2.430822   2.407019   1.386475
    12  H    2.808486   2.169221   1.097003   2.222110   3.193090
    13  H    2.808986   2.169045   1.096995   2.222100   3.193460
    14  H    4.372827   3.240161   2.210068   1.097562   2.168160
    15  H    4.372761   3.240555   2.210012   1.097562   2.168102
    16  H    5.690292   4.531275   4.333360   2.908178   2.163937
    17  H    5.166192   4.715596   5.802947   5.376970   3.870213
    18  H    2.849972   2.827377   4.279204   4.546825   3.398724
                    6          7          8          9         10
     6  C    0.000000
     7  C    1.391491   0.000000
     8  Br   2.845819   1.896624   0.000000
     9  C    2.437293   1.396562   2.849158   0.000000
    10  C    2.811651   2.403335   4.148414   1.388274   0.000000
    11  C    2.402901   2.739073   4.635677   2.387730   1.386264
    12  H    4.506111   5.479003   7.258031   5.480314   4.464800
    13  H    4.506592   5.479680   7.258752   5.481100   4.465528
    14  H    2.961830   4.244969   5.699619   4.840066   4.397555
    15  H    2.961620   4.244693   5.699267   4.839805   4.397396
    16  H    1.086542   2.154518   2.950315   3.417564   3.898071
    17  H    3.411738   2.152157   2.943472   1.085279   2.157531
    18  H    3.898821   3.403140   5.016554   2.167401   1.087561
                   11         12         13         14         15
    11  C    0.000000
    12  H    3.171463   0.000000
    13  H    3.171966   1.767513   0.000000
    14  H    3.150325   2.968680   2.384543   0.000000
    15  H    3.150313   2.384475   2.968387   1.768760   0.000000
    16  H    3.397500   4.984323   4.984709   3.005393   3.005141
    17  H    3.381667   6.486593   6.487442   5.908418   5.908133
    18  H    2.142456   4.872786   4.873495   5.241259   5.241155
                   16         17         18
    16  H    0.000000
    17  H    4.300131   0.000000
    18  H    4.985329   2.518223   0.000000
 Stoichiometry    C9H7BrO
 Framework group  C1[X(C9H7BrO)]
 Deg. of freedom    48
 Full point group                 C1      NOp   1
 Largest Abelian subgroup         C1      NOp   1
 Largest concise Abelian subgroup C1      NOp   1
                         Standard orientation:                         
 ---------------------------------------------------------------------
 Center     Atomic      Atomic             Coordinates (Angstroms)
 Number     Number       Type             X           Y           Z
 ---------------------------------------------------------------------
      1          8           0        3.842615   -1.416587    0.000329
      2          6           0        3.097688   -0.457366   -0.000653
      3          6           0        3.509418    1.037081    0.000294
      4          6           0        2.186211    1.853192    0.000009
      5          6           0        1.091157    0.799310   -0.000184
      6          6           0       -0.283334    0.989693   -0.000160
      7          6           0       -1.102674   -0.134998   -0.000064
      8         35           0       -2.985180    0.095985    0.000057
      9          6           0       -0.578886   -1.429614    0.000022
     10          6           0        0.798184   -1.605630   -0.000037
     11          6           0        1.613969   -0.484816   -0.000197
     12          1           0        4.128357    1.233764    0.884401
     13          1           0        4.129134    1.234421   -0.883112
     14          1           0        2.107155    2.498401   -0.884354
     15          1           0        2.106813    2.498312    0.884406
     16          1           0       -0.718975    1.985078   -0.000118
     17          1           0       -1.250565   -2.282068    0.000088
     18          1           0        1.248040   -2.595791   -0.000090
 ---------------------------------------------------------------------
 Rotational constants (GHZ):           2.5054398           0.3672674           0.3215977
 Standard basis: MIDIx (5D, 7F)
 There are   139 symmetry adapted cartesian basis functions of A   symmetry.
 There are   136 symmetry adapted basis functions of A   symmetry.
   136 basis functions,   240 primitive gaussians,   139 cartesian basis functions
    52 alpha electrons       52 beta electrons
       nuclear repulsion energy       786.8718373607 Hartrees.
 NAtoms=   18 NActive=   18 NUniq=   18 SFac= 1.00D+00 NAtFMM=   60 NAOKFM=F Big=F
 Integral buffers will be    131072 words long.
 Raffenetti 2 integral format.
 Two-electron integral symmetry is turned on.
 One-electron integrals computed using PRISM.
 NBasis=   136 RedAO= T EigKep=  1.13D-03  NBF=   136
 NBsUse=   136 1.00D-06 EigRej= -1.00D+00 NBFU=   136
 ExpMin= 1.47D-01 ExpMax= 6.10D+03 ExpMxC= 6.10D+03 IAcc=3 IRadAn=         5 AccDes= 0.00D+00
 Harris functional with IExCor=  908 and IRadAn=       5 diagonalized for initial guess.
 HarFok:  IExCor=  908 AccDes= 0.00D+00 IRadAn=         5 IDoV= 1 UseB2=F ITyADJ=14
 ICtDFT=  3500011 ScaDFX=  1.000000  1.000000  1.000000  1.000000
 FoFCou: FMM=F IPFlag=           0 FMFlag=      100000 FMFlg1=           0
         NFxFlg=           0 DoJE=T BraDBF=F KetDBF=T FulRan=T
         wScrn=  0.000000 ICntrl=       500 IOpCl=  0 I1Cent=   200000004 NGrid=           0
         NMat0=    1 NMatS0=      1 NMatT0=    0 NMatD0=    1 NMtDS0=    0 NMtDT0=    0
 Petite list used in FoFCou.
 Requested convergence on RMS density matrix=1.00D-08 within 128 cycles.
 Requested convergence on MAX density matrix=1.00D-06.
 Requested convergence on             energy=1.00D-06.
 No special actions if energy rises.
 Integral accuracy reduced to 1.0D-05 until final iterations.
 Initial convergence to 1.0D-05 achieved.  Increase integral accuracy.
 SCF Done:  E(RmPW1PW91) =  -2982.02035578     A.U. after   14 cycles
            NFock= 14  Conv=0.66D-08     -V/T= 2.0022
 DoSCS=F DFT=T ScalE2(SS,OS)=  1.000000  1.000000
 Range of M.O.s used for correlation:     1   136
 NBasis=   136 NAE=    52 NBE=    52 NFC=     0 NFV=     0
 NROrb=    136 NOA=    52 NOB=    52 NVA=    84 NVB=    84
          Differentiating once with respect to magnetic field using GIAOs.
          Electric field/nuclear overlap derivatives assumed to be zero.
 FoFCou: FMM=F IPFlag=           0 FMFlag=      100000 FMFlg1=           0
         NFxFlg=           0 DoJE=F BraDBF=F KetDBF=T FulRan=T
         wScrn=  0.000000 ICntrl=      6100 IOpCl=  0 I1Cent=           7 NGrid=          18
         NMat0=    1 NMatS0=      1 NMatT0=    0 NMatD0=    1 NMtDS0=    0 NMtDT0=    0
 Symmetry not used in FoFCou.
 FoFJK:  IHMeth= 1 ICntrl=    6127 DoSepK=F KAlg= 0 I1Cent=           0 FoldK=F
 IRaf=         1 NMat=       1 IRICut=       1 DoRegI=T DoRafI=F ISym2E= 0 IDoP0=0 IntGTp=1.
          There are     3 degrees of freedom in the 1st order CPHF.  IDoFFX=0 NUNeed=     3.
      3 vectors produced by pass  0 Test12= 1.46D-13 3.33D-08 XBig12= 1.97D+01 1.14D+00.
 AX will form     3 AO Fock derivatives at one time.
      3 vectors produced by pass  1 Test12= 1.46D-13 3.33D-08 XBig12= 5.06D-02 1.57D-01.
      3 vectors produced by pass  2 Test12= 1.46D-13 3.33D-08 XBig12= 5.56D-04 7.44D-03.
      3 vectors produced by pass  3 Test12= 1.46D-13 3.33D-08 XBig12= 1.92D-06 3.80D-04.
      3 vectors produced by pass  4 Test12= 1.46D-13 3.33D-08 XBig12= 1.01D-08 3.66D-05.
      3 vectors produced by pass  5 Test12= 1.46D-13 3.33D-08 XBig12= 6.52D-11 3.92D-06.
      3 vectors produced by pass  6 Test12= 1.46D-13 3.33D-08 XBig12= 2.11D-13 1.06D-07.
 InvSVY:  IOpt=1 It=  1 EMax= 1.33D-15
 Solved reduced A of dimension    21 with     3 vectors.
 Calculating GIAO nuclear magnetic shielding tensors.
 SCF GIAO Magnetic shielding tensor (ppm):
      1  O    Isotropic =  -234.3156   Anisotropy =   928.0023
   XX=  -516.1465   YX=   276.9612   ZX=    -0.5037
   XY=   213.4884   YY=  -571.1525   ZY=     0.3809
   XZ=    -0.5967   YZ=     0.5459   ZZ=   384.3521
   Eigenvalues:  -790.4122  -296.8873   384.3525
      2  C    Isotropic =    22.5285   Anisotropy =    97.9135
   XX=   -25.9299   YX=   -28.8155   ZX=    -0.0200
   XY=   -34.2667   YY=     5.7113   ZY=    -0.0094
   XZ=    -0.0473   YZ=     0.0293   ZZ=    87.8042
   Eigenvalues:   -45.3957    25.1772    87.8042
      3  C    Isotropic =   167.7500   Anisotropy =    33.0096
   XX=   161.3247   YX=     1.9894   ZX=     0.0092
   XY=    10.4958   YY=   188.3857   ZY=     0.0189
   XZ=     0.0088   YZ=     0.0094   ZZ=   153.5396
   Eigenvalues:   153.5396   159.9540   189.7564
      4  C    Isotropic =   176.5054   Anisotropy =    25.2951
   XX=   189.7859   YX=     7.6341   ZX=     0.0059
   XY=     6.3240   YY=   179.7744   ZY=     0.0039
   XZ=    -0.0013   YZ=    -0.0028   ZZ=   159.9560
   Eigenvalues:   159.9560   176.1915   193.3688
      5  C    Isotropic =    66.8164   Anisotropy =   164.0624
   XX=    12.5396   YX=   -22.3986   ZX=     0.0028
   XY=   -17.7770   YY=    11.7184   ZY=    -0.0199
   XZ=     0.0353   YZ=     0.0177   ZZ=   176.1914
   Eigenvalues:    -7.9630    32.2210   176.1914
      6  C    Isotropic =    84.5915   Anisotropy =   126.2297
   XX=    70.2013   YX=    25.7016   ZX=    -0.0013
   XY=    26.1840   YY=    14.8285   ZY=     0.0042
   XZ=     0.0092   YZ=    -0.0033   ZZ=   168.7447
   Eigenvalues:     4.5733    80.4565   168.7447
      7  C    Isotropic =    72.9998   Anisotropy =   116.5590
   XX=    -3.7544   YX=    10.0398   ZX=     0.0094
   XY=    11.7105   YY=    72.0480   ZY=     0.0059
   XZ=    -0.0047   YZ=     0.0036   ZZ=   150.7058
   Eigenvalues:    -5.2837    73.5774   150.7058
      8  Br   Isotropic =  2139.3331   Anisotropy =  1130.5297
   XX=  2875.0928   YX=  -142.4279   ZX=    -0.0972
   XY=  -138.2219   YY=  1794.6055   ZY=     0.0159
   XZ=     0.0317   YZ=    -0.0138   ZZ=  1748.3011
   Eigenvalues:  1748.3011  1776.6787  2893.0196
      9  C    Isotropic =    84.0867   Anisotropy =   136.3890
   XX=    53.1275   YX=   -33.0258   ZX=     0.0037
   XY=   -38.0686   YY=    24.1198   ZY=     0.0099
   XZ=     0.0101   YZ=    -0.0061   ZZ=   175.0126
   Eigenvalues:     0.2314    77.0159   175.0126
     10  C    Isotropic =    89.4232   Anisotropy =   159.2716
   XX=    61.9010   YX=    19.3978   ZX=     0.0150
   XY=    15.2670   YY=    10.7643   ZY=     0.0113
   XZ=     0.0452   YZ=    -0.0221   ZZ=   195.6042
   Eigenvalues:     5.4433    67.2220   195.6042
     11  C    Isotropic =    82.3271   Anisotropy =   149.4532
   XX=     6.7281   YX=    -0.3122   ZX=     0.0628
   XY=    14.7346   YY=    58.2907   ZY=     0.0011
   XZ=     0.0238   YZ=     0.0275   ZZ=   181.9626
   Eigenvalues:     5.7385    59.2802   181.9626
     12  H    Isotropic =    30.0157   Anisotropy =     8.9204
   XX=    32.4162   YX=     0.0794   ZX=     4.1449
   XY=     0.7562   YY=    28.1939   ZY=     1.6792
   XZ=     4.9172   YZ=     2.0222   ZZ=    29.4371
   Eigenvalues:    25.5212    28.5634    35.9627
     13  H    Isotropic =    30.0164   Anisotropy =     8.9161
   XX=    32.4227   YX=     0.0830   ZX=    -4.1405
   XY=     0.7611   YY=    28.1989   ZY=    -1.6808
   XZ=    -4.9126   YZ=    -2.0211   ZZ=    29.4276
   Eigenvalues:    25.5230    28.5657    35.9605
     14  H    Isotropic =    29.7184   Anisotropy =     9.4805
   XX=    29.3446   YX=     0.1948   ZX=     0.0955
   XY=    -0.3928   YY=    31.2192   ZY=    -4.7354
   XZ=    -0.3265   YZ=    -7.2466   ZZ=    28.5914
   Eigenvalues:    23.7677    29.3487    36.0387
     15  H    Isotropic =    29.7188   Anisotropy =     9.4811
   XX=    29.3449   YX=     0.1937   ZX=    -0.0958
   XY=    -0.3950   YY=    31.2181   ZY=     4.7357
   XZ=     0.3263   YZ=     7.2477   ZZ=    28.5935
   Eigenvalues:    23.7679    29.3491    36.0396
     16  H    Isotropic =    25.5018   Anisotropy =     8.5101
   XX=    29.8687   YX=     2.5880   ZX=    -0.0007
   XY=     2.5691   YY=    26.0862   ZY=    -0.0005
   XZ=    -0.0006   YZ=     0.0001   ZZ=    20.5505
   Eigenvalues:    20.5505    24.7797    31.1752
     17  H    Isotropic =    25.5431   Anisotropy =     7.0947
   XX=    27.6048   YX=    -2.5264   ZX=    -0.0005
   XY=    -2.1767   YY=    28.2003   ZY=    -0.0004
   XZ=    -0.0007   YZ=    -0.0014   ZZ=    20.8242
   Eigenvalues:    20.8242    25.5323    30.2729
     18  H    Isotropic =    25.0309   Anisotropy =     3.6472
   XX=    27.4043   YX=    -0.1494   ZX=    -0.0006
   XY=     0.6451   YY=    26.4051   ZY=    -0.0010
   XZ=    -0.0003   YZ=    -0.0019   ZZ=    21.2833
   Eigenvalues:    21.2833    26.3470    27.4623
 End of Minotr F.D. properties file   721 does not exist.
 End of Minotr F.D. properties file   722 does not exist.
 End of Minotr F.D. properties file   788 does not exist.

 **********************************************************************

            Population analysis using the SCF Density.

 **********************************************************************

 Orbital symmetries:
       Occupied  (A) (A) (A) (A) (A) (A) (A) (A) (A) (A) (A) (A)
                 (A) (A) (A) (A) (A) (A) (A) (A) (A) (A) (A) (A)
                 (A) (A) (A) (A) (A) (A) (A) (A) (A) (A) (A) (A)
                 (A) (A) (A) (A) (A) (A) (A) (A) (A) (A) (A) (A)
                 (A) (A) (A) (A)
       Virtual   (A) (A) (A) (A) (A) (A) (A) (A) (A) (A) (A) (A)
                 (A) (A) (A) (A) (A) (A) (A) (A) (A) (A) (A) (A)
                 (A) (A) (A) (A) (A) (A) (A) (A) (A) (A) (A) (A)
                 (A) (A) (A) (A) (A) (A) (A) (A) (A) (A) (A) (A)
                 (A) (A) (A) (A) (A) (A) (A) (A) (A) (A) (A) (A)
                 (A) (A) (A) (A) (A) (A) (A) (A) (A) (A) (A) (A)
                 (A) (A) (A) (A) (A) (A) (A) (A) (A) (A) (A) (A)
 The electronic state is 1-A.
 Alpha  occ. eigenvalues -- -480.37279 -62.58213 -56.16307 -56.15890 -56.15884
 Alpha  occ. eigenvalues --  -19.11241 -10.27664 -10.26346 -10.22275 -10.21407
 Alpha  occ. eigenvalues --  -10.21316 -10.21236 -10.21076 -10.20322 -10.19993
 Alpha  occ. eigenvalues --   -8.86112  -6.63605  -6.62225  -6.62184  -2.72195
 Alpha  occ. eigenvalues --   -2.71702  -2.71697  -2.70540  -2.70535  -1.07536
 Alpha  occ. eigenvalues --   -0.93856  -0.87807  -0.83011  -0.79609  -0.75939
 Alpha  occ. eigenvalues --   -0.70882  -0.66098  -0.61765  -0.59009  -0.52223
 Alpha  occ. eigenvalues --   -0.50412  -0.50191  -0.48115  -0.46504  -0.45124
 Alpha  occ. eigenvalues --   -0.42156  -0.42024  -0.41698  -0.40165  -0.38490
 Alpha  occ. eigenvalues --   -0.37595  -0.36938  -0.32563  -0.30260  -0.28239
 Alpha  occ. eigenvalues --   -0.26189  -0.25543
 Alpha virt. eigenvalues --   -0.05291  -0.01507   0.01227   0.04779   0.10238
 Alpha virt. eigenvalues --    0.11976   0.12969   0.14112   0.15873   0.18202
 Alpha virt. eigenvalues --    0.18589   0.20051   0.21679   0.22777   0.26897
 Alpha virt. eigenvalues --    0.29252   0.30459   0.33731   0.36518   0.39372
 Alpha virt. eigenvalues --    0.40408   0.46572   0.48379   0.51233   0.52408
 Alpha virt. eigenvalues --    0.53842   0.55984   0.56100   0.56876   0.59273
 Alpha virt. eigenvalues --    0.60035   0.62743   0.63237   0.63745   0.67686
 Alpha virt. eigenvalues --    0.68649   0.72599   0.74929   0.76220   0.76866
 Alpha virt. eigenvalues --    0.79345   0.81083   0.82745   0.85251   0.86460
 Alpha virt. eigenvalues --    0.87536   0.89726   0.89885   0.90130   0.90824
 Alpha virt. eigenvalues --    0.92335   0.92797   0.94661   0.95015   0.96614
 Alpha virt. eigenvalues --    0.96900   0.97776   1.00624   1.00631   1.04532
 Alpha virt. eigenvalues --    1.05195   1.07936   1.10384   1.13613   1.18095
 Alpha virt. eigenvalues --    1.20484   1.23340   1.28844   1.30109   1.42835
 Alpha virt. eigenvalues --    1.47920   1.51082   1.57115   1.59390   1.61223
 Alpha virt. eigenvalues --    1.67089   1.73430   1.81163   1.84663   1.90312
 Alpha virt. eigenvalues --    1.92899   2.03626   2.24669   3.00033
          Condensed to atoms (all electrons):
               1          2          3          4          5          6
     1  O    8.130654   0.554909  -0.065397   0.002623   0.001931   0.000001
     2  C    0.554909   4.480632   0.315153  -0.064751  -0.008987   0.001110
     3  C   -0.065397   0.315153   5.595178   0.227355  -0.039102   0.003171
     4  C    0.002623  -0.064751   0.227355   5.221273   0.271645   0.003486
     5  C    0.001931  -0.008987  -0.039102   0.271645   5.139435   0.455054
     6  C    0.000001   0.001110   0.003171   0.003486   0.455054   4.910504
     7  C   -0.000011   0.000393  -0.000389   0.000749  -0.013460   0.479328
     8  Br   0.000000   0.000002   0.000000  -0.000026   0.002601  -0.043366
     9  C    0.000227   0.001803   0.000255   0.000382  -0.038828  -0.038146
    10  C   -0.005812  -0.000336  -0.000441   0.001911  -0.026302  -0.025826
    11  C   -0.082794   0.218523  -0.249075  -0.004821   0.400430  -0.022961
    12  H    0.002432  -0.026472   0.358734  -0.021742   0.001212  -0.000080
    13  H    0.002437  -0.026488   0.358658  -0.021728   0.001219  -0.000080
    14  H   -0.000027   0.002372  -0.025451   0.381215  -0.027379  -0.004361
    15  H   -0.000027   0.002387  -0.025496   0.381275  -0.027380  -0.004365
    16  H    0.000000  -0.000035   0.000168  -0.004545  -0.016747   0.386161
    17  H    0.000001  -0.000013   0.000002   0.000004   0.000112   0.002802
    18  H    0.008251  -0.000479   0.000883  -0.000235   0.003773   0.000063
               7          8          9         10         11         12
     1  O   -0.000011   0.000000   0.000227  -0.005812  -0.082794   0.002432
     2  C    0.000393   0.000002   0.001803  -0.000336   0.218523  -0.026472
     3  C   -0.000389   0.000000   0.000255  -0.000441  -0.249075   0.358734
     4  C    0.000749  -0.000026   0.000382   0.001911  -0.004821  -0.021742
     5  C   -0.013460   0.002601  -0.038828  -0.026302   0.400430   0.001212
     6  C    0.479328  -0.043366  -0.038146  -0.025826  -0.022961  -0.000080
     7  C    5.069428   0.217181   0.449315  -0.018690  -0.057800   0.000008
     8  Br   0.217181  34.908722  -0.041455   0.001986   0.000433  -0.000000
     9  C    0.449315  -0.041455   4.997510   0.475960  -0.024896  -0.000002
    10  C   -0.018690   0.001986   0.475960   4.899510   0.437066  -0.000016
    11  C   -0.057800   0.000433  -0.024896   0.437066   5.556912   0.009166
    12  H    0.000008  -0.000000  -0.000002  -0.000016   0.009166   0.461198
    13  H    0.000008  -0.000000  -0.000002  -0.000016   0.009173  -0.015758
    14  H    0.000033  -0.000000   0.000009  -0.000078  -0.000555   0.001595
    15  H    0.000033  -0.000000   0.000009  -0.000079  -0.000565  -0.005473
    16  H   -0.020261   0.001026   0.002806  -0.000141   0.002811  -0.000005
    17  H   -0.023070   0.001119   0.391693  -0.019148   0.003474  -0.000000
    18  H    0.002171  -0.000055  -0.014805   0.376865  -0.027383  -0.000020
              13         14         15         16         17         18
     1  O    0.002437  -0.000027  -0.000027   0.000000   0.000001   0.008251
     2  C   -0.026488   0.002372   0.002387  -0.000035  -0.000013  -0.000479
     3  C    0.358658  -0.025451  -0.025496   0.000168   0.000002   0.000883
     4  C   -0.021728   0.381215   0.381275  -0.004545   0.000004  -0.000235
     5  C    0.001219  -0.027379  -0.027380  -0.016747   0.000112   0.003773
     6  C   -0.000080  -0.004361  -0.004365   0.386161   0.002802   0.000063
     7  C    0.000008   0.000033   0.000033  -0.020261  -0.023070   0.002171
     8  Br  -0.000000  -0.000000  -0.000000   0.001026   0.001119  -0.000055
     9  C   -0.000002   0.000009   0.000009   0.002806   0.391693  -0.014805
    10  C   -0.000016  -0.000078  -0.000079  -0.000141  -0.019148   0.376865
    11  C    0.009173  -0.000555  -0.000565   0.002811   0.003474  -0.027383
    12  H   -0.015758   0.001595  -0.005473  -0.000005  -0.000000  -0.000020
    13  H    0.461319  -0.005477   0.001593  -0.000005  -0.000000  -0.000020
    14  H   -0.005477   0.477270  -0.025303   0.001062  -0.000000   0.000006
    15  H    0.001593  -0.025303   0.477240   0.001062  -0.000000   0.000006
    16  H   -0.000005   0.001062   0.001062   0.435471  -0.000065   0.000011
    17  H   -0.000000  -0.000000  -0.000000  -0.000065   0.429400  -0.003377
    18  H   -0.000020   0.000006   0.000006   0.000011  -0.003377   0.435544
 Mulliken charges:
               1
     1  O   -0.549398
     2  C    0.550279
     3  C   -0.454205
     4  C   -0.374070
     5  C   -0.079225
     6  C   -0.102495
     7  C   -0.084967
     8  Br  -0.048168
     9  C   -0.161834
    10  C   -0.096413
    11  C   -0.167138
    12  H    0.235224
    13  H    0.235166
    14  H    0.225069
    15  H    0.225082
    16  H    0.211226
    17  H    0.217068
    18  H    0.218800
 Sum of Mulliken charges =  -0.00000
 Mulliken charges with hydrogens summed into heavy atoms:
               1
     1  O   -0.549398
     2  C    0.550279
     3  C    0.016185
     4  C    0.076081
     5  C   -0.079225
     6  C    0.108731
     7  C   -0.084967
     8  Br  -0.048168
     9  C    0.055233
    10  C    0.122387
    11  C   -0.167138
 Electronic spatial extent (au):  <R**2>=           2996.4346
 Charge=              0.0000 electrons
 Dipole moment (field-independent basis, Debye):
    X=             -0.5479    Y=              2.0246    Z=             -0.0006  Tot=              2.0974
 Quadrupole moment (field-independent basis, Debye-Ang):
   XX=            -81.7935   YY=            -70.7502   ZZ=            -76.7202
   XY=              9.2781   XZ=             -0.0030   YZ=              0.0019
 Traceless Quadrupole moment (field-independent basis, Debye-Ang):
   XX=             -5.3722   YY=              5.6711   ZZ=             -0.2989
   XY=              9.2781   XZ=             -0.0030   YZ=              0.0019
 Octapole moment (field-independent basis, Debye-Ang**2):
  XXX=           -127.1997  YYY=             -2.0380  ZZZ=              0.0071  XYY=            -35.3386
  XXY=             35.7194  XXZ=             -0.0074  XZZ=            -22.3910  YZZ=              2.4105
  YYZ=              0.0007  XYZ=              0.0062
 Hexadecapole moment (field-independent basis, Debye-Ang**3):
 XXXX=          -2788.4367 YYYY=           -573.0400 ZZZZ=            -89.3780 XXXY=            106.6959
 XXXZ=             -0.0397 YYYX=            -13.1291 YYYZ=             -0.0003 ZZZX=              0.0107
 ZZZY=              0.0015 XXYY=           -582.4160 XXZZ=           -451.8447 YYZZ=           -116.3781
 XXYZ=              0.0192 YYXZ=             -0.0043 ZZXY=             -4.6621
 N-N= 7.868718373607D+02 E-N=-8.672977880836D+03  KE= 2.975608696622D+03
 Unable to Open any file for archive entry.
 1\1\GINC-DYNAMO\SP\RmPW1PW91\MIDIx\C9H7Br1O1\RPATON\26-Sep-2024\0\\# n
 mr=giao mpw1pw91/midix\\arbr31_wb97xd_nmrcreated by GaussianPrep\\0,1\
 O,0,3.842615,1.416587,-0.000329\C,0,3.097688,0.457366,0.000653\C,0,3.5
 09418,-1.037081,-0.000294\C,0,2.186211,-1.853192,-0.000009\C,0,1.09115
 7,-0.79931,0.000184\C,0,-0.283334,-0.989693,0.00016\C,0,-1.102674,0.13
 4998,0.000064\Br,0,-2.98518,-0.095985,-0.000057\C,0,-0.578886,1.429614
 ,-0.000022\C,0,0.798184,1.60563,0.000037\C,0,1.613969,0.484816,0.00019
 7\H,0,4.128357,-1.233764,-0.884401\H,0,4.129134,-1.234421,0.883112\H,0
 ,2.107155,-2.498401,0.884354\H,0,2.106813,-2.498312,-0.884406\H,0,-0.7
 18975,-1.985078,0.000118\H,0,-1.250565,2.282068,-0.000088\H,0,1.24804,
 2.595791,0.00009\\Version=ES64L-G16RevC.01\State=1-A\HF=-2982.0203558\
 RMSD=6.568e-09\Dipole=-0.2155739,-0.7965313,0.0002541\Quadrupole=-3.99
 40706,4.2163063,-0.2222358,-6.8980757,0.0022382,0.0013845\PG=C01 [X(C9
 H7Br1O1)]\\@
 The archive entry for this job was punched.


 THE VALUE OF PHILOSOPHY IS, IN FACT, TO BE SOUGHT LARGELY IN ITS
 VERY UNCERTAINTY.  THE MAN WHO HAS NO TINCTURE OF PHILOSOPHY GOES
 THROUGH LIFE IMPRISONED IN THE PREJUDICES DERIVED FROM COMMON SENSE,
 FROM THE HABITUAL BELIEFS OF HIS AGE OR HIS NATION, AND FROM
 CONVICTIONS WHICH HAVE GROWN UP IN HIS MIND WITHOUT THE CO-OPERATION
 OR CONSENT OF HIS DELIBERATE REASON.  TO SUCH A MAN THE WORLD TENDS
 TO BE DEFINITE, FINITE, OBVIOUS; COMMON OBJECTS ROUSE NO QUESTIONS,
 AND UNFAMILIAR POSSIBILITIES ARE CONTEMPTUOUSLY REJECTED.

                             -- BERTRAND RUSSELL
 Job cpu time:       0 days  0 hours  3 minutes 16.7 seconds.
 Elapsed time:       0 days  0 hours  0 minutes  9.5 seconds.
 File lengths (MBytes):  RWF=     14 Int=      0 D2E=      0 Chk=      3 Scr=      1
 Normal termination of Gaussian 16 at Thu Sep 26 12:54:39 2024.
