 Entering Gaussian System, Link 0=/usr/local/Gaussian/G16C/g16/g16
 Input=arbr39_wb97xd_nmr.com
 Output=arbr39_wb97xd_nmr.log
 Initial command:
 /usr/local/Gaussian/G16C/g16/l1.exe "/home/rpaton/opt/midi/nmr/Gau-1272278.inp" -scrdir="/home/rpaton/opt/midi/nmr/"
 Entering Link 1 = /usr/local/Gaussian/G16C/g16/l1.exe PID=   1272279.
  
 Copyright (c) 1988-2019, Gaussian, Inc.  All Rights Reserved.
  
 This is part of the Gaussian(R) 16 program.  It is based on
 the Gaussian(R) 09 system (copyright 2009, Gaussian, Inc.),
 the Gaussian(R) 03 system (copyright 2003, Gaussian, Inc.),
 the Gaussian(R) 98 system (copyright 1998, Gaussian, Inc.),
 the Gaussian(R) 94 system (copyright 1995, Gaussian, Inc.),
 the Gaussian 92(TM) system (copyright 1992, Gaussian, Inc.),
 the Gaussian 90(TM) system (copyright 1990, Gaussian, Inc.),
 the Gaussian 88(TM) system (copyright 1988, Gaussian, Inc.),
 the Gaussian 86(TM) system (copyright 1986, Carnegie Mellon
 University), and the Gaussian 82(TM) system (copyright 1983,
 Carnegie Mellon University). Gaussian is a federally registered
 trademark of Gaussian, Inc.
  
 This software contains proprietary and confidential information,
 including trade secrets, belonging to Gaussian, Inc.
  
 This software is provided under written license and may be
 used, copied, transmitted, or stored only in accord with that
 written license.
  
 The following legend is applicable only to US Government
 contracts under FAR:
  
                    RESTRICTED RIGHTS LEGEND
  
 Use, reproduction and disclosure by the US Government is
 subject to restrictions as set forth in subparagraphs (a)
 and (c) of the Commercial Computer Software - Restricted
 Rights clause in FAR 52.227-19.
  
 Gaussian, Inc.
 340 Quinnipiac St., Bldg. 40, Wallingford CT 06492
  
  
 ---------------------------------------------------------------
 Warning -- This program may not be used in any manner that
 competes with the business of Gaussian, Inc. or will provide
 assistance to any competitor of Gaussian, Inc.  The licensee
 of this program is prohibited from giving any competitor of
 Gaussian, Inc. access to this program.  By using this program,
 the user acknowledges that Gaussian, Inc. is engaged in the
 business of creating and licensing software in the field of
 computational chemistry and represents and warrants to the
 licensee that it is not a competitor of Gaussian, Inc. and that
 it will not use this program in any manner prohibited above.
 ---------------------------------------------------------------
  

 Cite this work as:
 Gaussian 16, Revision C.01,
 M. J. Frisch, G. W. Trucks, H. B. Schlegel, G. E. Scuseria, 
 M. A. Robb, J. R. Cheeseman, G. Scalmani, V. Barone, 
 G. A. Petersson, H. Nakatsuji, X. Li, M. Caricato, A. V. Marenich, 
 J. Bloino, B. G. Janesko, R. Gomperts, B. Mennucci, H. P. Hratchian, 
 J. V. Ortiz, A. F. Izmaylov, J. L. Sonnenberg, D. Williams-Young, 
 F. Ding, F. Lipparini, F. Egidi, J. Goings, B. Peng, A. Petrone, 
 T. Henderson, D. Ranasinghe, V. G. Zakrzewski, J. Gao, N. Rega, 
 G. Zheng, W. Liang, M. Hada, M. Ehara, K. Toyota, R. Fukuda, 
 J. Hasegawa, M. Ishida, T. Nakajima, Y. Honda, O. Kitao, H. Nakai, 
 T. Vreven, K. Throssell, J. A. Montgomery, Jr., J. E. Peralta, 
 F. Ogliaro, M. J. Bearpark, J. J. Heyd, E. N. Brothers, K. N. Kudin, 
 V. N. Staroverov, T. A. Keith, R. Kobayashi, J. Normand, 
 K. Raghavachari, A. P. Rendell, J. C. Burant, S. S. Iyengar, 
 J. Tomasi, M. Cossi, J. M. Millam, M. Klene, C. Adamo, R. Cammi, 
 J. W. Ochterski, R. L. Martin, K. Morokuma, O. Farkas, 
 J. B. Foresman, and D. J. Fox, Gaussian, Inc., Wallingford CT, 2019.
 
 ******************************************
 Gaussian 16:  ES64L-G16RevC.01  3-Jul-2019
                26-Sep-2024 
 ******************************************
 %chk=arbr39_wb97xd_nmr.chk
 %mem=48GB
 %nprocshared=24
 Will use up to   24 processors via shared memory.
 -------------------------
 # nmr=giao mpw1pw91/midix
 -------------------------
 1/38=1,172=1/1;
 2/12=2,17=6,18=5,40=1/2;
 3/5=20,11=2,25=1,30=1,74=-7/1,2,3,8;
 4//1;
 5/5=2,38=5/2;
 8/6=1,10=90,11=11/1;
 10/13=100,45=16/2;
 6/7=2,8=2,9=2,10=2,28=1/1;
 99/9=1/99;
 ----------------------------------------
 arbr39_wb97xd_nmrcreated by GaussianPrep
 ----------------------------------------
 Symbolic Z-matrix:
 Charge =  0 Multiplicity = 1
 O                     1.73824  -2.17925  -0.00002 
 C                     1.61674  -0.96798  -0.00005 
 C                     0.35667  -0.18832  -0.00002 
 C                    -0.93694  -0.68651  -0.00001 
 C                    -1.9807    0.22593  0. 
 Br                   -3.77499  -0.39079   0.00001 
 C                    -1.72858   1.59961   0. 
 C                    -0.42166   2.07936  -0.00001 
 C                     0.62935   1.17211  -0.00002 
 C                     2.12467   1.44088  -0.00002 
 C                     2.76929   0.03689  -0.00001 
 C                     3.8625   -0.23845   1.09252 
 C                     4.97313  -0.08005   0.00005 
 C                     3.86256  -0.23844  -1.09249 
 H                    -1.10641  -1.75988  -0.00002 
 H                    -2.56402   2.29343   0.00001 
 H                    -0.23869   3.15145   0. 
 H                     2.41729   2.02233   0.88534 
 H                     2.41729   2.02232  -0.88539 
 H                     3.88522   0.45136   1.94188 
 H                     3.78742  -1.27299   1.44727 
 H                     5.77116  -0.82791   0.00006 
 H                     5.41455   0.92283   0.00007 
 H                     3.88532   0.45139  -1.94183 
 H                     3.7875   -1.27297  -1.44726 
 
                          Input orientation:                          
 ---------------------------------------------------------------------
 Center     Atomic      Atomic             Coordinates (Angstroms)
 Number     Number       Type             X           Y           Z
 ---------------------------------------------------------------------
      1          8           0        1.738242   -2.179249   -0.000018
      2          6           0        1.616738   -0.967983   -0.000049
      3          6           0        0.356671   -0.188322   -0.000024
      4          6           0       -0.936935   -0.686511   -0.000014
      5          6           0       -1.980704    0.225925   -0.000001
      6         35           0       -3.774990   -0.390785    0.000009
      7          6           0       -1.728578    1.599610    0.000003
      8          6           0       -0.421663    2.079362   -0.000005
      9          6           0        0.629352    1.172106   -0.000017
     10          6           0        2.124675    1.440875   -0.000018
     11          6           0        2.769285    0.036889   -0.000011
     12          6           0        3.862498   -0.238450    1.092524
     13          6           0        4.973126   -0.080051    0.000047
     14          6           0        3.862555   -0.238437   -1.092489
     15          1           0       -1.106411   -1.759875   -0.000020
     16          1           0       -2.564021    2.293433    0.000013
     17          1           0       -0.238690    3.151454    0.000001
     18          1           0        2.417287    2.022329    0.885343
     19          1           0        2.417288    2.022321   -0.885385
     20          1           0        3.885215    0.451364    1.941875
     21          1           0        3.787422   -1.272990    1.447274
     22          1           0        5.771158   -0.827908    0.000064
     23          1           0        5.414550    0.922830    0.000065
     24          1           0        3.885317    0.451387   -1.941831
     25          1           0        3.787496   -1.272972   -1.447255
 ---------------------------------------------------------------------
                    Distance matrix (angstroms):
                    1          2          3          4          5
     1  O    0.000000
     2  C    1.217345   0.000000
     3  C    2.423330   1.481769   0.000000
     4  C    3.063468   2.569138   1.386221   0.000000
     5  C    4.428930   3.790383   2.373799   1.386360   0.000000
     6  Br   5.796062   5.422535   4.136619   2.853421   1.897312
     7  C    5.128218   4.217069   2.746810   2.419307   1.396631
     8  C    4.775035   3.666250   2.397539   2.813460   2.421949
     9  C    3.530045   2.356886   1.387487   2.430579   2.776266
    10  C    3.640691   2.461828   2.404188   3.728167   4.281383
    11  C    2.444242   1.529095   2.423103   3.776159   4.753749
    12  C    3.077793   2.601802   3.672465   4.942566   5.962572
    13  C    3.856307   3.471853   4.617724   5.941095   6.960558
    14  C    3.077816   2.601799   3.672494   4.942608   5.962620
    15  H    2.875400   2.835954   2.147181   1.086661   2.169744
    16  H    6.205993   5.302413   3.832695   3.395214   2.148220
    17  H    5.685478   4.518006   3.392427   3.900964   3.404898
    18  H    4.347209   3.219746   3.149125   4.401418   4.832518
    19  H    4.347202   3.219723   3.149119   4.401416   4.832523
    20  H    3.911594   3.306297   4.078087   5.321543   6.183099
    21  H    2.667414   2.626717   3.878302   4.975756   6.132914
    22  H    4.253297   4.156781   5.452132   6.709583   7.823166
    23  H    4.810211   4.242470   5.178494   6.552201   7.428018
    24  H    3.911626   3.306294   4.078135   5.321614   6.183182
    25  H    2.667447   2.626712   3.878338   4.975811   6.132974
                    6          7          8          9         10
     6  Br   0.000000
     7  C    2.854728   0.000000
     8  C    4.164904   1.392188   0.000000
     9  C    4.673420   2.396371   1.388433   0.000000
    10  C    6.177461   3.856521   2.625167   1.519285   0.000000
    11  C    6.558235   4.761604   3.788647   2.422402   1.544894
    12  C    7.716736   5.986000   4.991984   3.692770   2.652133
    13  C    8.753633   6.908987   5.810922   4.520649   3.229069
    14  C    7.716790   5.986044   4.992017   3.692794   2.652133
    15  H    2.999287   3.416611   3.899823   3.407255   4.548045
    16  H    2.944736   1.085981   2.153027   3.384524   4.765577
    17  H    5.005285   2.151275   1.087594   2.161323   2.917460
    18  H    6.704568   4.260366   2.974345   2.168745   1.098897
    19  H    6.704574   4.260376   2.974356   2.168746   1.098898
    20  H    7.947251   6.050125   4.997046   3.858893   2.801710
    21  H    7.750028   6.385349   5.572188   4.248123   3.496347
    22  H    9.556151   7.882822   6.841290   5.517085   4.294673
    23  H    9.282954   7.175117   5.949702   4.791686   3.330413
    24  H    7.947345   6.050203   4.997106   3.858936   2.801711
    25  H    7.750098   6.385402   5.572225   4.248150   3.496346
                   11         12         13         14         15
    11  C    0.000000
    12  C    1.569891   0.000000
    13  C    2.206941   1.565915   0.000000
    14  C    1.569889   2.185013   1.565915   0.000000
    15  H    4.271929   5.310221   6.307343   5.310262   0.000000
    16  H    5.791040   6.993151   7.902026   6.993197   4.307428
    17  H    4.329946   5.431832   6.132345   5.431860   4.987393
    18  H    2.202209   2.691223   3.425794   3.333419   5.244557
    19  H    2.202210   3.333443   3.425823   2.691229   5.244553
    20  H    2.277720   1.094421   2.288372   3.111865   5.794555
    21  H    2.201595   1.096247   2.218888   2.743418   5.126531
    22  H    3.123958   2.276821   1.093684   2.276821   6.940426
    23  H    2.789681   2.225063   1.095731   2.225063   7.051230
    24  H    2.277718   3.111865   2.288372   1.094421   5.794623
    25  H    2.201591   2.743417   2.218888   1.096246   5.126587
                   16         17         18         19         20
    16  H    0.000000
    17  H    2.478581   0.000000
    18  H    5.066630   3.018769   0.000000
    19  H    5.066643   3.018786   1.770728   0.000000
    20  H    6.982599   5.297920   2.395622   3.551917   0.000000
    21  H    7.426625   6.154663   3.612778   4.263524   1.796550
    22  H    8.900448   7.207884   4.489546   4.489573   2.993985
    23  H    8.095440   6.076667   3.313035   3.313077   2.516301
    24  H    6.982682   5.297972   3.551885   2.395625   3.883706
    25  H    7.426681   6.154695   4.263507   3.612772   3.803825
                   21         22         23         24         25
    21  H    0.000000
    22  H    2.495541   0.000000
    23  H    3.092505   1.786688   0.000000
    24  H    3.803826   2.993985   2.516301   0.000000
    25  H    2.894529   2.495542   3.092505   1.796549   0.000000
 Stoichiometry    C12H11BrO
 Framework group  C1[X(C12H11BrO)]
 Deg. of freedom    69
 Full point group                 C1      NOp   1
 Largest Abelian subgroup         C1      NOp   1
 Largest concise Abelian subgroup C1      NOp   1
                         Standard orientation:                         
 ---------------------------------------------------------------------
 Center     Atomic      Atomic             Coordinates (Angstroms)
 Number     Number       Type             X           Y           Z
 ---------------------------------------------------------------------
      1          8           0        1.738242   -2.179249   -0.000018
      2          6           0        1.616738   -0.967983   -0.000049
      3          6           0        0.356671   -0.188322   -0.000024
      4          6           0       -0.936935   -0.686511   -0.000014
      5          6           0       -1.980704    0.225925   -0.000001
      6         35           0       -3.774990   -0.390785    0.000009
      7          6           0       -1.728578    1.599610    0.000003
      8          6           0       -0.421663    2.079362   -0.000005
      9          6           0        0.629352    1.172106   -0.000017
     10          6           0        2.124675    1.440875   -0.000018
     11          6           0        2.769285    0.036889   -0.000011
     12          6           0        3.862498   -0.238450    1.092524
     13          6           0        4.973126   -0.080051    0.000047
     14          6           0        3.862555   -0.238437   -1.092489
     15          1           0       -1.106411   -1.759875   -0.000020
     16          1           0       -2.564021    2.293433    0.000013
     17          1           0       -0.238690    3.151454    0.000001
     18          1           0        2.417287    2.022329    0.885343
     19          1           0        2.417288    2.022321   -0.885385
     20          1           0        3.885215    0.451364    1.941875
     21          1           0        3.787422   -1.272990    1.447274
     22          1           0        5.771158   -0.827908    0.000064
     23          1           0        5.414550    0.922830    0.000065
     24          1           0        3.885317    0.451387   -1.941831
     25          1           0        3.787496   -1.272972   -1.447255
 ---------------------------------------------------------------------
 Rotational constants (GHZ):           1.6574692           0.2219818           0.2023554
 Standard basis: MIDIx (5D, 7F)
 There are   174 symmetry adapted cartesian basis functions of A   symmetry.
 There are   171 symmetry adapted basis functions of A   symmetry.
   171 basis functions,   297 primitive gaussians,   174 cartesian basis functions
    63 alpha electrons       63 beta electrons
       nuclear repulsion energy      1111.1768742269 Hartrees.
 NAtoms=   25 NActive=   25 NUniq=   25 SFac= 1.00D+00 NAtFMM=   60 NAOKFM=F Big=F
 Integral buffers will be    131072 words long.
 Raffenetti 2 integral format.
 Two-electron integral symmetry is turned on.
 One-electron integrals computed using PRISM.
 NBasis=   171 RedAO= T EigKep=  1.08D-03  NBF=   171
 NBsUse=   171 1.00D-06 EigRej= -1.00D+00 NBFU=   171
 ExpMin= 1.47D-01 ExpMax= 6.10D+03 ExpMxC= 6.10D+03 IAcc=3 IRadAn=         5 AccDes= 0.00D+00
 Harris functional with IExCor=  908 and IRadAn=       5 diagonalized for initial guess.
 HarFok:  IExCor=  908 AccDes= 0.00D+00 IRadAn=         5 IDoV= 1 UseB2=F ITyADJ=14
 ICtDFT=  3500011 ScaDFX=  1.000000  1.000000  1.000000  1.000000
 FoFCou: FMM=F IPFlag=           0 FMFlag=      100000 FMFlg1=           0
         NFxFlg=           0 DoJE=T BraDBF=F KetDBF=T FulRan=T
         wScrn=  0.000000 ICntrl=       500 IOpCl=  0 I1Cent=   200000004 NGrid=           0
         NMat0=    1 NMatS0=      1 NMatT0=    0 NMatD0=    1 NMtDS0=    0 NMtDT0=    0
 Petite list used in FoFCou.
 Requested convergence on RMS density matrix=1.00D-08 within 128 cycles.
 Requested convergence on MAX density matrix=1.00D-06.
 Requested convergence on             energy=1.00D-06.
 No special actions if energy rises.
 Integral accuracy reduced to 1.0D-05 until final iterations.
 Initial convergence to 1.0D-05 achieved.  Increase integral accuracy.
 SCF Done:  E(RmPW1PW91) =  -3098.01628039     A.U. after   15 cycles
            NFock= 15  Conv=0.45D-08     -V/T= 2.0027
 DoSCS=F DFT=T ScalE2(SS,OS)=  1.000000  1.000000
 Range of M.O.s used for correlation:     1   171
 NBasis=   171 NAE=    63 NBE=    63 NFC=     0 NFV=     0
 NROrb=    171 NOA=    63 NOB=    63 NVA=   108 NVB=   108
          Differentiating once with respect to magnetic field using GIAOs.
          Electric field/nuclear overlap derivatives assumed to be zero.
 FoFCou: FMM=F IPFlag=           0 FMFlag=      100000 FMFlg1=           0
         NFxFlg=           0 DoJE=F BraDBF=F KetDBF=T FulRan=T
         wScrn=  0.000000 ICntrl=      6100 IOpCl=  0 I1Cent=           7 NGrid=          25
         NMat0=    1 NMatS0=      1 NMatT0=    0 NMatD0=    1 NMtDS0=    0 NMtDT0=    0
 Symmetry not used in FoFCou.
 FoFJK:  IHMeth= 1 ICntrl=    6127 DoSepK=F KAlg= 0 I1Cent=           0 FoldK=F
 IRaf=         1 NMat=       1 IRICut=       1 DoRegI=T DoRafI=F ISym2E= 0 IDoP0=0 IntGTp=1.
          There are     3 degrees of freedom in the 1st order CPHF.  IDoFFX=0 NUNeed=     3.
      3 vectors produced by pass  0 Test12= 2.27D-13 3.33D-08 XBig12= 2.81D+01 1.07D+00.
 AX will form     3 AO Fock derivatives at one time.
      3 vectors produced by pass  1 Test12= 2.27D-13 3.33D-08 XBig12= 1.13D-01 1.78D-01.
      3 vectors produced by pass  2 Test12= 2.27D-13 3.33D-08 XBig12= 1.40D-03 1.09D-02.
      3 vectors produced by pass  3 Test12= 2.27D-13 3.33D-08 XBig12= 6.38D-06 5.15D-04.
      3 vectors produced by pass  4 Test12= 2.27D-13 3.33D-08 XBig12= 3.57D-08 4.66D-05.
      3 vectors produced by pass  5 Test12= 2.27D-13 3.33D-08 XBig12= 9.72D-11 2.38D-06.
      3 vectors produced by pass  6 Test12= 2.27D-13 3.33D-08 XBig12= 3.36D-13 1.44D-07.
 InvSVY:  IOpt=1 It=  1 EMax= 1.78D-15
 Solved reduced A of dimension    21 with     3 vectors.
 Calculating GIAO nuclear magnetic shielding tensors.
 SCF GIAO Magnetic shielding tensor (ppm):
      1  O    Isotropic =  -207.9316   Anisotropy =   890.2070
   XX=  -300.3949   YX=   104.4942   ZX=    -0.0063
   XY=    50.5764   YY=  -708.9395   ZY=     0.0160
   XZ=    -0.0055   YZ=     0.0230   ZZ=   385.5398
   Eigenvalues:  -723.1596  -286.1749   385.5398
      2  C    Isotropic =    18.4610   Anisotropy =   110.7773
   XX=   -51.0509   YX=    21.2709   ZX=    -0.0006
   XY=     6.7384   YY=    14.1214   ZY=     0.0002
   XZ=    -0.0002   YZ=     0.0009   ZZ=    92.3126
   Eigenvalues:   -53.9329    17.0034    92.3126
      3  C    Isotropic =    80.7214   Anisotropy =   138.3327
   XX=    30.2499   YX=    21.5802   ZX=     0.0028
   XY=    37.0140   YY=    38.9711   ZY=    -0.0022
   XZ=     0.0024   YZ=    -0.0001   ZZ=   172.9433
   Eigenvalues:     4.9907    64.2304   172.9433
      4  C    Isotropic =    85.6792   Anisotropy =   138.6083
   XX=    68.2619   YX=   -16.8967   ZX=     0.0012
   XY=   -19.5364   YY=    10.6909   ZY=    -0.0007
   XZ=     0.0015   YZ=    -0.0022   ZZ=   178.0847
   Eigenvalues:     5.4111    73.5417   178.0847
      5  C    Isotropic =    79.3713   Anisotropy =   107.8666
   XX=    15.9417   YX=   -26.4478   ZX=     0.0008
   XY=   -29.2026   YY=    70.8898   ZY=    -0.0002
   XZ=     0.0004   YZ=    -0.0007   ZZ=   151.2824
   Eigenvalues:     4.3124    82.5190   151.2824
      6  Br   Isotropic =  2175.6869   Anisotropy =  1142.0670
   XX=  2816.1319   YX=   352.0218   ZX=    -0.0049
   XY=   344.8382   YY=  1933.1746   ZY=    -0.0014
   XZ=    -0.0066   YZ=    -0.0062   ZZ=  1777.7542
   Eigenvalues:  1777.7542  1812.2416  2937.0649
      7  C    Isotropic =    78.7641   Anisotropy =   141.4072
   XX=    27.3254   YX=    38.5834   ZX=     0.0014
   XY=    40.7877   YY=    35.9314   ZY=    -0.0009
   XZ=     0.0010   YZ=    -0.0007   ZZ=   173.0356
   Eigenvalues:    -8.2897    71.5466   173.0356
      8  C    Isotropic =    88.2042   Anisotropy =   146.6317
   XX=    72.8526   YX=   -12.9315   ZX=     0.0007
   XY=   -13.5550   YY=     5.8013   ZY=    -0.0008
   XZ=     0.0010   YZ=    -0.0011   ZZ=   185.9587
   Eigenvalues:     3.2804    75.3735   185.9587
      9  C    Isotropic =    69.5442   Anisotropy =   170.7579
   XX=    -4.6096   YX=   -11.8670   ZX=     0.0007
   XY=    -7.6673   YY=    29.8594   ZY=    -0.0016
   XZ=     0.0025   YZ=    -0.0012   ZZ=   183.3828
   Eigenvalues:    -7.1848    32.4346   183.3828
     10  C    Isotropic =   161.8821   Anisotropy =    35.6124
   XX=   169.2492   YX=   -16.8209   ZX=     0.0004
   XY=   -16.9786   YY=   168.1819   ZY=    -0.0003
   XZ=    -0.0007   YZ=    -0.0005   ZZ=   148.2151
   Eigenvalues:   148.2151   151.8074   185.6237
     11  C    Isotropic =   156.9634   Anisotropy =    22.0381
   XX=   162.4392   YX=     6.4228   ZX=     0.0002
   XY=    20.6363   YY=   151.7943   ZY=    -0.0001
   XZ=     0.0001   YZ=    -0.0003   ZZ=   156.6569
   Eigenvalues:   142.5779   156.6569   171.6555
     12  C    Isotropic =   169.1935   Anisotropy =    35.9997
   XX=   182.3941   YX=    -9.7227   ZX=    18.4320
   XY=    -5.5465   YY=   158.6097   ZY=     9.3012
   XZ=    14.5801   YZ=     1.3071   ZZ=   166.5767
   Eigenvalues:   148.6241   165.7631   193.1933
     13  C    Isotropic =   182.9186   Anisotropy =    18.0705
   XX=   181.3484   YX=    -1.7969   ZX=    -0.0004
   XY=    -8.8774   YY=   172.4419   ZY=    -0.0004
   XZ=    -0.0004   YZ=    -0.0002   ZZ=   194.9656
   Eigenvalues:   169.9442   183.8461   194.9656
     14  C    Isotropic =   169.1949   Anisotropy =    35.9975
   XX=   182.3967   YX=    -9.7226   ZX=   -18.4298
   XY=    -5.5463   YY=   158.6114   ZY=    -9.3021
   XZ=   -14.5779   YZ=    -1.3079   ZZ=   166.5766
   Eigenvalues:   148.6259   165.7656   193.1932
     15  H    Isotropic =    25.0319   Anisotropy =     8.3189
   XX=    30.0760   YX=    -2.3277   ZX=    -0.0001
   XY=    -0.9375   YY=    25.2674   ZY=     0.0000
   XZ=    -0.0001   YZ=     0.0000   ZZ=    19.7525
   Eigenvalues:    19.7525    24.7655    30.5779
     16  H    Isotropic =    25.3967   Anisotropy =     7.2224
   XX=    26.5971   YX=     2.3303   ZX=    -0.0000
   XY=     2.0701   YY=    28.8723   ZY=     0.0000
   XZ=    -0.0000   YZ=     0.0000   ZZ=    20.7207
   Eigenvalues:    20.7207    25.2578    30.2116
     17  H    Isotropic =    25.5400   Anisotropy =     4.9397
   XX=    28.5008   YX=    -1.2450   ZX=    -0.0001
   XY=    -0.5478   YY=    26.4158   ZY=     0.0000
   XZ=    -0.0000   YZ=     0.0001   ZZ=    21.7035
   Eigenvalues:    21.7035    26.0834    28.8332
     18  H    Isotropic =    29.4369   Anisotropy =     6.9529
   XX=    30.0557   YX=    -1.0708   ZX=     1.0929
   XY=    -0.2252   YY=    30.6874   ZY=     3.2993
   XZ=     3.6744   YZ=     5.6422   ZZ=    27.5674
   Eigenvalues:    23.5562    30.6823    34.0721
     19  H    Isotropic =    29.4369   Anisotropy =     6.9530
   XX=    30.0557   YX=    -1.0708   ZX=    -1.0928
   XY=    -0.2251   YY=    30.6873   ZY=    -3.2993
   XZ=    -3.6743   YZ=    -5.6423   ZZ=    27.5675
   Eigenvalues:    23.5562    30.6822    34.0722
     20  H    Isotropic =    30.8777   Anisotropy =     9.0524
   XX=    29.1854   YX=     0.1406   ZX=     1.7041
   XY=    -0.6481   YY=    27.9143   ZY=     1.6073
   XZ=     3.0668   YZ=     3.3575   ZZ=    35.5333
   Eigenvalues:    26.7369    28.9835    36.9126
     21  H    Isotropic =    29.8164   Anisotropy =     6.5667
   XX=    29.1113   YX=    -0.8504   ZX=     0.7621
   XY=    -0.4732   YY=    30.4399   ZY=    -2.5825
   XZ=     1.7118   YZ=    -4.7518   ZZ=    29.8980
   Eigenvalues:    26.4076    28.8474    34.1942
     22  H    Isotropic =    30.8614   Anisotropy =    11.2996
   XX=    36.6796   YX=    -4.4732   ZX=     0.0002
   XY=    -3.4291   YY=    29.2903   ZY=    -0.0001
   XZ=     0.0003   YZ=    -0.0001   ZZ=    26.6143
   Eigenvalues:    26.6143    27.5755    38.3944
     23  H    Isotropic =    30.3236   Anisotropy =     8.3751
   XX=    33.3281   YX=     4.5557   ZX=     0.0002
   XY=     2.7278   YY=    30.7644   ZY=     0.0001
   XZ=     0.0002   YZ=     0.0001   ZZ=    26.8784
   Eigenvalues:    26.8784    28.1855    35.9070
     24  H    Isotropic =    30.8777   Anisotropy =     9.0525
   XX=    29.1855   YX=     0.1408   ZX=    -1.7044
   XY=    -0.6480   YY=    27.9145   ZY=    -1.6075
   XZ=    -3.0671   YZ=    -3.3576   ZZ=    35.5331
   Eigenvalues:    26.7369    28.9835    36.9126
     25  H    Isotropic =    29.8164   Anisotropy =     6.5668
   XX=    29.1114   YX=    -0.8506   ZX=    -0.7621
   XY=    -0.4733   YY=    30.4398   ZY=     2.5825
   XZ=    -1.7119   YZ=     4.7517   ZZ=    29.8981
   Eigenvalues:    26.4076    28.8474    34.1943
 End of Minotr F.D. properties file   721 does not exist.
 End of Minotr F.D. properties file   722 does not exist.
 End of Minotr F.D. properties file   788 does not exist.

 **********************************************************************

            Population analysis using the SCF Density.

 **********************************************************************

 Orbital symmetries:
       Occupied  (A) (A) (A) (A) (A) (A) (A) (A) (A) (A) (A) (A)
                 (A) (A) (A) (A) (A) (A) (A) (A) (A) (A) (A) (A)
                 (A) (A) (A) (A) (A) (A) (A) (A) (A) (A) (A) (A)
                 (A) (A) (A) (A) (A) (A) (A) (A) (A) (A) (A) (A)
                 (A) (A) (A) (A) (A) (A) (A) (A) (A) (A) (A) (A)
                 (A) (A) (A)
       Virtual   (A) (A) (A) (A) (A) (A) (A) (A) (A) (A) (A) (A)
                 (A) (A) (A) (A) (A) (A) (A) (A) (A) (A) (A) (A)
                 (A) (A) (A) (A) (A) (A) (A) (A) (A) (A) (A) (A)
                 (A) (A) (A) (A) (A) (A) (A) (A) (A) (A) (A) (A)
                 (A) (A) (A) (A) (A) (A) (A) (A) (A) (A) (A) (A)
                 (A) (A) (A) (A) (A) (A) (A) (A) (A) (A) (A) (A)
                 (A) (A) (A) (A) (A) (A) (A) (A) (A) (A) (A) (A)
                 (A) (A) (A) (A) (A) (A) (A) (A) (A) (A) (A) (A)
                 (A) (A) (A) (A) (A) (A) (A) (A) (A) (A) (A) (A)
 The electronic state is 1-A.
 Alpha  occ. eigenvalues -- -480.36785 -62.57717 -56.15814 -56.15395 -56.15385
 Alpha  occ. eigenvalues --  -19.11495 -10.27235 -10.25670 -10.21958 -10.21716
 Alpha  occ. eigenvalues --  -10.21457 -10.21163 -10.21101 -10.20650 -10.20574
 Alpha  occ. eigenvalues --  -10.19289 -10.19254 -10.18859  -8.85610  -6.63109
 Alpha  occ. eigenvalues --   -6.61712  -6.61687  -2.71698  -2.71204  -2.71195
 Alpha  occ. eigenvalues --   -2.70033  -2.70028  -1.07560  -0.93870  -0.90036
 Alpha  occ. eigenvalues --   -0.85879  -0.81624  -0.79605  -0.73336  -0.71224
 Alpha  occ. eigenvalues --   -0.69408  -0.65950  -0.62695  -0.59369  -0.55250
 Alpha  occ. eigenvalues --   -0.52122  -0.51318  -0.50835  -0.47998  -0.47997
 Alpha  occ. eigenvalues --   -0.47143  -0.45776  -0.43141  -0.43057  -0.41136
 Alpha  occ. eigenvalues --   -0.40949  -0.39498  -0.39098  -0.37241  -0.35926
 Alpha  occ. eigenvalues --   -0.34604  -0.33121  -0.32885  -0.31806  -0.29872
 Alpha  occ. eigenvalues --   -0.28623  -0.25637  -0.25460
 Alpha virt. eigenvalues --   -0.05523  -0.01528   0.01644   0.04547   0.08851
 Alpha virt. eigenvalues --    0.10994   0.12011   0.12289   0.13488   0.15626
 Alpha virt. eigenvalues --    0.15705   0.17088   0.18050   0.18619   0.19038
 Alpha virt. eigenvalues --    0.20621   0.21274   0.22381   0.23068   0.26163
 Alpha virt. eigenvalues --    0.27565   0.28322   0.29700   0.30643   0.33661
 Alpha virt. eigenvalues --    0.36796   0.39483   0.41721   0.42164   0.47130
 Alpha virt. eigenvalues --    0.48545   0.51349   0.52077   0.53951   0.56474
 Alpha virt. eigenvalues --    0.56588   0.57149   0.58788   0.60092   0.61741
 Alpha virt. eigenvalues --    0.63819   0.64187   0.66465   0.68569   0.69150
 Alpha virt. eigenvalues --    0.70459   0.72570   0.72919   0.76240   0.76464
 Alpha virt. eigenvalues --    0.76616   0.77192   0.79446   0.81067   0.81707
 Alpha virt. eigenvalues --    0.84237   0.85278   0.86945   0.88595   0.88739
 Alpha virt. eigenvalues --    0.89463   0.89704   0.89862   0.92269   0.92900
 Alpha virt. eigenvalues --    0.93304   0.93701   0.94829   0.95659   0.96674
 Alpha virt. eigenvalues --    0.97217   0.98850   0.98997   0.99181   1.01207
 Alpha virt. eigenvalues --    1.01392   1.04212   1.04609   1.04930   1.07589
 Alpha virt. eigenvalues --    1.10317   1.12333   1.14022   1.16512   1.20521
 Alpha virt. eigenvalues --    1.22571   1.24274   1.30869   1.31028   1.33382
 Alpha virt. eigenvalues --    1.35787   1.40623   1.50291   1.55493   1.57629
 Alpha virt. eigenvalues --    1.60376   1.60872   1.65973   1.68641   1.74156
 Alpha virt. eigenvalues --    1.82401   1.83937   1.91014   1.91046   1.96312
 Alpha virt. eigenvalues --    2.09701   2.30114   3.01456
          Condensed to atoms (all electrons):
               1          2          3          4          5          6
     1  O    8.142879   0.552910  -0.079374  -0.004300   0.000214   0.000000
     2  C    0.552910   4.462961   0.238890  -0.001399   0.002397  -0.000020
     3  C   -0.079374   0.238890   5.514464   0.427320  -0.014519   0.002709
     4  C   -0.004300  -0.001399   0.427320   4.916682   0.460198  -0.042747
     5  C    0.000214   0.002397  -0.014519   0.460198   5.086527   0.214608
     6  Br   0.000000  -0.000020   0.002709  -0.042747   0.214608  34.913869
     7  C   -0.000008   0.000455  -0.042567  -0.037652   0.456465  -0.041052
     8  C   -0.000002   0.001035  -0.028158  -0.024846  -0.024388   0.002018
     9  C    0.002132  -0.011167   0.403664  -0.018792  -0.052542   0.000398
    10  C    0.002656  -0.046988  -0.013445   0.000582   0.000570   0.000002
    11  C   -0.085261   0.231698  -0.229546   0.001698   0.000177   0.000001
    12  C    0.000228  -0.040971   0.006711  -0.000013   0.000000  -0.000000
    13  C   -0.000784   0.017487  -0.001268  -0.000001   0.000000   0.000000
    14  C    0.000229  -0.040970   0.006711  -0.000013   0.000000  -0.000000
    15  H    0.007327  -0.000824  -0.021609   0.370951  -0.013429   0.001233
    16  H    0.000000   0.000003   0.000072   0.002997  -0.022901   0.001581
    17  H    0.000000  -0.000058   0.003343  -0.000159   0.003109  -0.000061
    18  H   -0.000030   0.001863  -0.000071  -0.000060   0.000009  -0.000000
    19  H   -0.000030   0.001862  -0.000071  -0.000060   0.000009  -0.000000
    20  H    0.000057   0.001986  -0.000107  -0.000000  -0.000000   0.000000
    21  H    0.009981  -0.002135   0.002466   0.000023  -0.000001  -0.000000
    22  H    0.000047  -0.000575   0.000018  -0.000000  -0.000000  -0.000000
    23  H   -0.000004  -0.000439   0.000026  -0.000000   0.000000  -0.000000
    24  H    0.000057   0.001986  -0.000107  -0.000000  -0.000000   0.000000
    25  H    0.009980  -0.002135   0.002466   0.000023  -0.000001  -0.000000
               7          8          9         10         11         12
     1  O   -0.000008  -0.000002   0.002132   0.002656  -0.085261   0.000228
     2  C    0.000455   0.001035  -0.011167  -0.046988   0.231698  -0.040971
     3  C   -0.042567  -0.028158   0.403664  -0.013445  -0.229546   0.006711
     4  C   -0.037652  -0.024846  -0.018792   0.000582   0.001698  -0.000013
     5  C    0.456465  -0.024388  -0.052542   0.000570   0.000177   0.000000
     6  Br  -0.041052   0.002018   0.000398   0.000002   0.000001  -0.000000
     7  C    4.974507   0.496154  -0.025595   0.000616  -0.000352   0.000002
     8  C    0.496154   4.883861   0.465184   0.005148   0.002633  -0.000021
     9  C   -0.025595   0.465184   5.130184   0.292714  -0.050519   0.002505
    10  C    0.000616   0.005148   0.292714   5.187539   0.173058  -0.030680
    11  C   -0.000352   0.002633  -0.050519   0.173058   6.328705   0.209945
    12  C    0.000002  -0.000021   0.002505  -0.030680   0.209945   5.325578
    13  C   -0.000000   0.000004  -0.000266   0.009117  -0.232956   0.325833
    14  C    0.000002  -0.000021   0.002506  -0.030679   0.209939  -0.221258
    15  H    0.002081   0.000081   0.003058  -0.000200   0.000871  -0.000008
    16  H    0.389246  -0.018250   0.003312  -0.000028   0.000002  -0.000000
    17  H   -0.022618   0.395231  -0.023786  -0.004770   0.000189  -0.000003
    18  H    0.000035  -0.004403  -0.026986   0.377374  -0.024668  -0.006016
    19  H    0.000035  -0.004403  -0.026986   0.377371  -0.024667   0.002689
    20  H   -0.000000  -0.000010   0.000347  -0.007360  -0.022839   0.368821
    21  H    0.000000  -0.000001  -0.000503   0.004861  -0.048667   0.379934
    22  H    0.000000  -0.000000   0.000003  -0.000377   0.014408  -0.028378
    23  H    0.000000  -0.000000   0.000006   0.001041   0.005957  -0.032588
    24  H   -0.000000  -0.000010   0.000347  -0.007361  -0.022839   0.011734
    25  H    0.000000  -0.000001  -0.000503   0.004861  -0.048667   0.011474
              13         14         15         16         17         18
     1  O   -0.000784   0.000229   0.007327   0.000000   0.000000  -0.000030
     2  C    0.017487  -0.040970  -0.000824   0.000003  -0.000058   0.001863
     3  C   -0.001268   0.006711  -0.021609   0.000072   0.003343  -0.000071
     4  C   -0.000001  -0.000013   0.370951   0.002997  -0.000159  -0.000060
     5  C    0.000000   0.000000  -0.013429  -0.022901   0.003109   0.000009
     6  Br   0.000000  -0.000000   0.001233   0.001581  -0.000061  -0.000000
     7  C   -0.000000   0.000002   0.002081   0.389246  -0.022618   0.000035
     8  C    0.000004  -0.000021   0.000081  -0.018250   0.395231  -0.004403
     9  C   -0.000266   0.002506   0.003058   0.003312  -0.023786  -0.026986
    10  C    0.009117  -0.030679  -0.000200  -0.000028  -0.004770   0.377374
    11  C   -0.232956   0.209939   0.000871   0.000002   0.000189  -0.024668
    12  C    0.325833  -0.221258  -0.000008  -0.000000  -0.000003  -0.006016
    13  C    5.310661   0.325832   0.000001   0.000000   0.000000  -0.000097
    14  C    0.325832   5.325582  -0.000008  -0.000000  -0.000003   0.002689
    15  H    0.000001  -0.000008   0.423947  -0.000059   0.000011   0.000005
    16  H    0.000000  -0.000000  -0.000059   0.431828  -0.004127  -0.000000
    17  H    0.000000  -0.000003   0.000011  -0.004127   0.449069   0.001098
    18  H   -0.000097   0.002689   0.000005  -0.000000   0.001098   0.481363
    19  H   -0.000097  -0.006016   0.000005  -0.000000   0.001098  -0.025062
    20  H   -0.024894   0.011734   0.000000  -0.000000   0.000001   0.005613
    21  H   -0.038658   0.011474  -0.000011   0.000000  -0.000000   0.000080
    22  H    0.379568  -0.028377  -0.000000  -0.000000  -0.000000   0.000010
    23  H    0.380596  -0.032588  -0.000000  -0.000000   0.000000  -0.000066
    24  H   -0.024894   0.368820   0.000000  -0.000000   0.000001   0.000013
    25  H   -0.038658   0.379936  -0.000011   0.000000  -0.000000  -0.000174
              19         20         21         22         23         24
     1  O   -0.000030   0.000057   0.009981   0.000047  -0.000004   0.000057
     2  C    0.001862   0.001986  -0.002135  -0.000575  -0.000439   0.001986
     3  C   -0.000071  -0.000107   0.002466   0.000018   0.000026  -0.000107
     4  C   -0.000060  -0.000000   0.000023  -0.000000  -0.000000  -0.000000
     5  C    0.000009  -0.000000  -0.000001  -0.000000   0.000000  -0.000000
     6  Br  -0.000000   0.000000  -0.000000  -0.000000  -0.000000   0.000000
     7  C    0.000035  -0.000000   0.000000   0.000000   0.000000  -0.000000
     8  C   -0.004403  -0.000010  -0.000001  -0.000000  -0.000000  -0.000010
     9  C   -0.026986   0.000347  -0.000503   0.000003   0.000006   0.000347
    10  C    0.377371  -0.007360   0.004861  -0.000377   0.001041  -0.007361
    11  C   -0.024667  -0.022839  -0.048667   0.014408   0.005957  -0.022839
    12  C    0.002689   0.368821   0.379934  -0.028378  -0.032588   0.011734
    13  C   -0.000097  -0.024894  -0.038658   0.379568   0.380596  -0.024894
    14  C   -0.006016   0.011734   0.011474  -0.028377  -0.032588   0.368820
    15  H    0.000005   0.000000  -0.000011  -0.000000  -0.000000   0.000000
    16  H   -0.000000  -0.000000   0.000000  -0.000000  -0.000000  -0.000000
    17  H    0.001098   0.000001  -0.000000  -0.000000   0.000000   0.000001
    18  H   -0.025062   0.005613   0.000080   0.000010  -0.000066   0.000013
    19  H    0.481365   0.000013  -0.000174   0.000010  -0.000066   0.005613
    20  H    0.000013   0.496379  -0.019974   0.001442  -0.005609  -0.000488
    21  H   -0.000174  -0.019974   0.482880  -0.004118   0.003196  -0.000456
    22  H    0.000010   0.001442  -0.004118   0.491972  -0.023608   0.001442
    23  H   -0.000066  -0.005609   0.003196  -0.023608   0.503880  -0.005609
    24  H    0.005613  -0.000488  -0.000456   0.001442  -0.005609   0.496380
    25  H    0.000080  -0.000456   0.001438  -0.004118   0.003196  -0.019975
              25
     1  O    0.009980
     2  C   -0.002135
     3  C    0.002466
     4  C    0.000023
     5  C   -0.000001
     6  Br  -0.000000
     7  C    0.000000
     8  C   -0.000001
     9  C   -0.000503
    10  C    0.004861
    11  C   -0.048667
    12  C    0.011474
    13  C   -0.038658
    14  C    0.379936
    15  H   -0.000011
    16  H    0.000000
    17  H   -0.000000
    18  H   -0.000174
    19  H    0.000080
    20  H   -0.000456
    21  H    0.001438
    22  H   -0.004118
    23  H    0.003196
    24  H   -0.019975
    25  H    0.482880
 Mulliken charges:
               1
     1  O   -0.558905
     2  C    0.632149
     3  C   -0.178018
     4  C   -0.050430
     5  C   -0.096505
     6  Br  -0.052538
     7  C   -0.149756
     8  C   -0.146836
     9  C   -0.068715
    10  C   -0.295622
    11  C   -0.388298
    12  C   -0.285519
    13  C   -0.386526
    14  C   -0.285521
    15  H    0.226587
    16  H    0.216323
    17  H    0.202434
    18  H    0.217481
    19  H    0.217481
    20  H    0.195346
    21  H    0.218366
    22  H    0.200632
    23  H    0.202678
    24  H    0.195346
    25  H    0.218365
 Sum of Mulliken charges =  -0.00000
 Mulliken charges with hydrogens summed into heavy atoms:
               1
     1  O   -0.558905
     2  C    0.632149
     3  C   -0.178018
     4  C    0.176157
     5  C   -0.096505
     6  Br  -0.052538
     7  C    0.066568
     8  C    0.055599
     9  C   -0.068715
    10  C    0.139340
    11  C   -0.388298
    12  C    0.128193
    13  C    0.016784
    14  C    0.128190
 Electronic spatial extent (au):  <R**2>=           4868.8981
 Charge=             -0.0000 electrons
 Dipole moment (field-independent basis, Debye):
    X=              1.1592    Y=              3.1474    Z=             -0.0000  Tot=              3.3540
 Quadrupole moment (field-independent basis, Debye-Ang):
   XX=            -90.5967   YY=            -92.4894   ZZ=            -95.4708
   XY=              3.7654   XZ=             -0.0000   YZ=              0.0000
 Traceless Quadrupole moment (field-independent basis, Debye-Ang):
   XX=              2.2556   YY=              0.3629   ZZ=             -2.6185
   XY=              3.7654   XZ=             -0.0000   YZ=              0.0000
 Octapole moment (field-independent basis, Debye-Ang**2):
  XXX=           -109.5046  YYY=              4.7736  ZZZ=              0.0003  XYY=            -50.6465
  XXY=             -0.0536  XXZ=              0.0004  XZZ=            -32.9951  YZZ=             -9.1773
  YYZ=              0.0003  XYZ=             -0.0001
 Hexadecapole moment (field-independent basis, Debye-Ang**3):
 XXXX=          -4635.5736 YYYY=           -735.2127 ZZZZ=           -226.6853 XXXY=             47.9760
 XXXZ=             -0.0009 YYYX=             52.7690 YYYZ=              0.0001 ZZZX=             -0.0015
 ZZZY=              0.0001 XXYY=           -893.2018 XXZZ=           -837.5657 YYZZ=           -164.1126
 XXYZ=             -0.0002 YYXZ=             -0.0003 ZZXY=             16.9925
 N-N= 1.111176874227D+03 E-N=-9.589072923358D+03  KE= 3.089752699532D+03
 Unable to Open any file for archive entry.
 1\1\GINC-DYNAMO\SP\RmPW1PW91\MIDIx\C12H11Br1O1\RPATON\26-Sep-2024\0\\#
  nmr=giao mpw1pw91/midix\\arbr39_wb97xd_nmrcreated by GaussianPrep\\0,
 1\O,0,1.738242,-2.179249,-0.000018\C,0,1.616738,-0.967983,-0.000049\C,
 0,0.356671,-0.188322,-0.000024\C,0,-0.936935,-0.686511,-0.000014\C,0,-
 1.980704,0.225925,-0.000001\Br,0,-3.77499,-0.390785,0.000009\C,0,-1.72
 8578,1.59961,0.000003\C,0,-0.421663,2.079362,-0.000005\C,0,0.629352,1.
 172106,-0.000017\C,0,2.124675,1.440875,-0.000018\C,0,2.769285,0.036889
 ,-0.000011\C,0,3.862498,-0.23845,1.092524\C,0,4.973126,-0.080051,0.000
 047\C,0,3.862555,-0.238437,-1.092489\H,0,-1.106411,-1.759875,-0.00002\
 H,0,-2.564021,2.293433,0.000013\H,0,-0.23869,3.151454,0.000001\H,0,2.4
 17287,2.022329,0.885343\H,0,2.417288,2.022321,-0.885385\H,0,3.885215,0
 .451364,1.941875\H,0,3.787422,-1.27299,1.447274\H,0,5.771158,-0.827908
 ,0.000064\H,0,5.41455,0.92283,0.000065\H,0,3.885317,0.451387,-1.941831
 \H,0,3.787496,-1.272972,-1.447255\\Version=ES64L-G16RevC.01\State=1-A\
 HF=-3098.0162804\RMSD=4.538e-09\Dipole=0.4560598,1.2382631,-0.0000027\
 Quadrupole=1.6769932,0.2697994,-1.9467927,2.7994479,-0.000008,0.000032
 8\PG=C01 [X(C12H11Br1O1)]\\@
 The archive entry for this job was punched.


 TRUTH, IN SCIENCE, CAN BE DEFINED AS THE WORKING HYPOTHESIS 
 BEST FITTED TO OPEN THE WAY TO THE NEXT BETTER ONE.

                              -- KONRAD LORENZ
 Job cpu time:       0 days  0 hours  5 minutes  7.8 seconds.
 Elapsed time:       0 days  0 hours  0 minutes 15.2 seconds.
 File lengths (MBytes):  RWF=     21 Int=      0 D2E=      0 Chk=      3 Scr=      1
 Normal termination of Gaussian 16 at Thu Sep 26 13:01:14 2024.
