 Entering Gaussian System, Link 0=/usr/local/Gaussian/G16C/g16/g16
 Input=arbr34_wb97xd_nmr.com
 Output=arbr34_wb97xd_nmr.log
 Initial command:
 /usr/local/Gaussian/G16C/g16/l1.exe "/home/rpaton/opt/midi/nmr/Gau-1259286.inp" -scrdir="/home/rpaton/opt/midi/nmr/"
 Entering Link 1 = /usr/local/Gaussian/G16C/g16/l1.exe PID=   1259287.
  
 Copyright (c) 1988-2019, Gaussian, Inc.  All Rights Reserved.
  
 This is part of the Gaussian(R) 16 program.  It is based on
 the Gaussian(R) 09 system (copyright 2009, Gaussian, Inc.),
 the Gaussian(R) 03 system (copyright 2003, Gaussian, Inc.),
 the Gaussian(R) 98 system (copyright 1998, Gaussian, Inc.),
 the Gaussian(R) 94 system (copyright 1995, Gaussian, Inc.),
 the Gaussian 92(TM) system (copyright 1992, Gaussian, Inc.),
 the Gaussian 90(TM) system (copyright 1990, Gaussian, Inc.),
 the Gaussian 88(TM) system (copyright 1988, Gaussian, Inc.),
 the Gaussian 86(TM) system (copyright 1986, Carnegie Mellon
 University), and the Gaussian 82(TM) system (copyright 1983,
 Carnegie Mellon University). Gaussian is a federally registered
 trademark of Gaussian, Inc.
  
 This software contains proprietary and confidential information,
 including trade secrets, belonging to Gaussian, Inc.
  
 This software is provided under written license and may be
 used, copied, transmitted, or stored only in accord with that
 written license.
  
 The following legend is applicable only to US Government
 contracts under FAR:
  
                    RESTRICTED RIGHTS LEGEND
  
 Use, reproduction and disclosure by the US Government is
 subject to restrictions as set forth in subparagraphs (a)
 and (c) of the Commercial Computer Software - Restricted
 Rights clause in FAR 52.227-19.
  
 Gaussian, Inc.
 340 Quinnipiac St., Bldg. 40, Wallingford CT 06492
  
  
 ---------------------------------------------------------------
 Warning -- This program may not be used in any manner that
 competes with the business of Gaussian, Inc. or will provide
 assistance to any competitor of Gaussian, Inc.  The licensee
 of this program is prohibited from giving any competitor of
 Gaussian, Inc. access to this program.  By using this program,
 the user acknowledges that Gaussian, Inc. is engaged in the
 business of creating and licensing software in the field of
 computational chemistry and represents and warrants to the
 licensee that it is not a competitor of Gaussian, Inc. and that
 it will not use this program in any manner prohibited above.
 ---------------------------------------------------------------
  

 Cite this work as:
 Gaussian 16, Revision C.01,
 M. J. Frisch, G. W. Trucks, H. B. Schlegel, G. E. Scuseria, 
 M. A. Robb, J. R. Cheeseman, G. Scalmani, V. Barone, 
 G. A. Petersson, H. Nakatsuji, X. Li, M. Caricato, A. V. Marenich, 
 J. Bloino, B. G. Janesko, R. Gomperts, B. Mennucci, H. P. Hratchian, 
 J. V. Ortiz, A. F. Izmaylov, J. L. Sonnenberg, D. Williams-Young, 
 F. Ding, F. Lipparini, F. Egidi, J. Goings, B. Peng, A. Petrone, 
 T. Henderson, D. Ranasinghe, V. G. Zakrzewski, J. Gao, N. Rega, 
 G. Zheng, W. Liang, M. Hada, M. Ehara, K. Toyota, R. Fukuda, 
 J. Hasegawa, M. Ishida, T. Nakajima, Y. Honda, O. Kitao, H. Nakai, 
 T. Vreven, K. Throssell, J. A. Montgomery, Jr., J. E. Peralta, 
 F. Ogliaro, M. J. Bearpark, J. J. Heyd, E. N. Brothers, K. N. Kudin, 
 V. N. Staroverov, T. A. Keith, R. Kobayashi, J. Normand, 
 K. Raghavachari, A. P. Rendell, J. C. Burant, S. S. Iyengar, 
 J. Tomasi, M. Cossi, J. M. Millam, M. Klene, C. Adamo, R. Cammi, 
 J. W. Ochterski, R. L. Martin, K. Morokuma, O. Farkas, 
 J. B. Foresman, and D. J. Fox, Gaussian, Inc., Wallingford CT, 2019.
 
 ******************************************
 Gaussian 16:  ES64L-G16RevC.01  3-Jul-2019
                26-Sep-2024 
 ******************************************
 %chk=arbr34_wb97xd_nmr.chk
 %mem=48GB
 %nprocshared=24
 Will use up to   24 processors via shared memory.
 -------------------------
 # nmr=giao mpw1pw91/midix
 -------------------------
 1/38=1,172=1/1;
 2/12=2,17=6,18=5,40=1/2;
 3/5=20,11=2,25=1,30=1,74=-7/1,2,3,8;
 4//1;
 5/5=2,38=5/2;
 8/6=1,10=90,11=11/1;
 10/13=100,45=16/2;
 6/7=2,8=2,9=2,10=2,28=1/1;
 99/9=1/99;
 ----------------------------------------
 arbr34_wb97xd_nmrcreated by GaussianPrep
 ----------------------------------------
 Symbolic Z-matrix:
 Charge =  0 Multiplicity = 1
 Br                    3.83154  -0.11031  0. 
 C                     1.94964   0.14419   0.00001 
 C                     1.43583   1.43759  0. 
 C                     0.05808   1.63711   0. 
 C                    -0.7857    0.53513   0. 
 C                    -0.25499  -0.76286   0. 
 C                     1.1125   -0.96912   0. 
 C                    -1.3752   -1.78627  0. 
 C                    -2.61468  -0.9096    0. 
 C                    -3.94872  -1.27683   0. 
 C                    -4.924    -0.27896  0. 
 C                    -4.56115   1.06739   0. 
 C                    -3.21884   1.43846  0. 
 C                    -2.24921   0.44467  0. 
 H                     2.11353   2.28553  0. 
 H                    -0.34327   2.64765   0. 
 H                     1.53421  -1.97061   0. 
 H                    -1.3334   -2.43507  -0.88701 
 H                    -1.3334   -2.43507   0.887 
 H                    -4.23715  -2.326    0. 
 H                    -5.97575  -0.55338  0. 
 H                    -5.33261   1.83313   0. 
 H                    -2.93756   2.48915  0. 
 
                          Input orientation:                          
 ---------------------------------------------------------------------
 Center     Atomic      Atomic             Coordinates (Angstroms)
 Number     Number       Type             X           Y           Z
 ---------------------------------------------------------------------
      1         35           0        3.831541   -0.110310   -0.000001
      2          6           0        1.949640    0.144188    0.000005
      3          6           0        1.435826    1.437592   -0.000001
      4          6           0        0.058084    1.637113    0.000003
      5          6           0       -0.785697    0.535134    0.000001
      6          6           0       -0.254988   -0.762855    0.000002
      7          6           0        1.112498   -0.969119    0.000004
      8          6           0       -1.375197   -1.786266   -0.000003
      9          6           0       -2.614683   -0.909601    0.000002
     10          6           0       -3.948719   -1.276830    0.000001
     11          6           0       -4.923995   -0.278960   -0.000002
     12          6           0       -4.561147    1.067392    0.000002
     13          6           0       -3.218836    1.438459   -0.000004
     14          6           0       -2.249210    0.444674   -0.000002
     15          1           0        2.113525    2.285526   -0.000003
     16          1           0       -0.343268    2.647645    0.000001
     17          1           0        1.534208   -1.970614    0.000002
     18          1           0       -1.333401   -2.435065   -0.887005
     19          1           0       -1.333403   -2.435068    0.886996
     20          1           0       -4.237146   -2.326001   -0.000001
     21          1           0       -5.975748   -0.553380   -0.000003
     22          1           0       -5.332606    1.833126    0.000002
     23          1           0       -2.937557    2.489153   -0.000002
 ---------------------------------------------------------------------
                    Distance matrix (angstroms):
                    1          2          3          4          5
     1  Br   0.000000
     2  C    1.899031   0.000000
     3  C    2.852271   1.391725   0.000000
     4  C    4.158421   2.409732   1.392114   0.000000
     5  C    4.662133   2.763134   2.397831   1.387921   0.000000
     6  C    4.138301   2.383928   2.775035   2.420302   1.402294
     7  C    2.851447   1.392932   2.428333   2.811447   2.421966
     8  C    5.469822   3.844632   4.277278   3.711309   2.395080
     9  C    6.495588   4.684391   4.681446   3.691807   2.330761
    10  C    7.867224   6.067119   6.030042   4.954345   3.645260
    11  C    8.757160   6.886647   6.587403   5.337832   4.217613
    12  C    8.474916   6.575915   6.008389   4.654232   3.812784
    13  C    7.218483   5.328065   4.654662   3.282936   2.595412
    14  C    6.106025   4.209588   3.816461   2.597213   1.466306
    15  H    2.948154   2.147600   1.085481   2.155290   3.386644
    16  H    5.003533   3.394808   2.151605   1.087317   2.158343
    17  H    2.956090   2.155220   3.409626   3.898030   3.414781
    18  H    5.733052   4.268219   4.842816   4.393819   3.147831
    19  H    5.733054   4.268218   4.842818   4.393820   3.147831
    20  H    8.367377   6.661693   6.807881   5.844251   4.483146
    21  H    9.817292   7.956028   7.674334   6.419142   5.302970
    22  H    9.367952   7.475535   6.779979   5.394252   4.728548
    23  H    7.251062   5.420660   4.498028   3.114456   2.906663
                    6          7          8          9         10
     6  C    0.000000
     7  C    1.382954   0.000000
     8  C    1.517313   2.618464   0.000000
     9  C    2.364254   3.727656   1.518179   0.000000
    10  C    3.729319   5.070562   2.623460   1.383658   0.000000
    11  C    4.694015   6.075818   3.855637   2.393873   1.395316
    12  C    4.678975   6.028070   4.277107   2.774387   2.422900
    13  C    3.691907   4.955490   3.714547   2.424538   2.811676
    14  C    2.331319   3.646902   2.396037   1.402723   2.419071
    15  H    3.860373   3.405109   5.361965   5.706557   7.031442
    16  H    3.411642   3.898748   4.552411   4.220584   5.329238
    17  H    2.158681   1.086661   2.915240   4.282411   5.526647
    18  H    2.178541   2.986336   1.099754   2.180712   2.994691
    19  H    2.178539   2.986334   1.099754   2.180708   2.994687
    20  H    4.277968   5.519042   2.912399   2.153735   1.088095
    21  H    5.724594   7.100427   4.762885   3.379889   2.152261
    22  H    5.702747   7.027940   5.362936   3.861302   3.403964
    23  H    4.215653   5.325654   4.551942   3.414056   3.899369
                   11         12         13         14         15
    11  C    0.000000
    12  C    1.394390   0.000000
    13  C    2.420144   1.392656   0.000000
    14  C    2.770942   2.394333   1.388446   0.000000
    15  H    7.490212   6.784917   5.399222   4.735208   0.000000
    16  H    5.435814   4.504187   3.119459   2.913022   2.483337
    17  H    6.676083   6.810494   5.849206   4.488638   4.295385
    18  H    4.281113   4.844825   4.398389   3.149346   5.912026
    19  H    4.281112   4.844824   4.398390   3.149346   5.912029
    20  H    2.159199   3.408826   3.899758   3.410063   7.848389
    21  H    1.086964   2.151278   3.401174   3.857875   8.572965
    22  H    2.151249   1.086967   2.150299   3.381587   7.459861
    23  H    3.407108   2.158112   1.087693   2.157247   5.055185
                   16         17         18         19         20
    16  H    0.000000
    17  H    4.985302   0.000000
    18  H    5.253673   3.037380   0.000000
    19  H    5.253675   3.037379   1.774001   0.000000
    20  H    6.316600   5.782286   3.038158   3.038154   0.000000
    21  H    6.478533   7.642512   5.087130   5.087129   2.482926
    22  H    5.055387   7.849941   5.915900   5.915899   4.300973
    23  H    2.599126   6.315553   5.254333   5.254334   4.987448
                   21         22         23
    21  H    0.000000
    22  H    2.471648   0.000000
    23  H    4.299722   2.483270   0.000000
 Stoichiometry    C13H9Br
 Framework group  C1[X(C13H9Br)]
 Deg. of freedom    63
 Full point group                 C1      NOp   1
 Largest Abelian subgroup         C1      NOp   1
 Largest concise Abelian subgroup C1      NOp   1
                         Standard orientation:                         
 ---------------------------------------------------------------------
 Center     Atomic      Atomic             Coordinates (Angstroms)
 Number     Number       Type             X           Y           Z
 ---------------------------------------------------------------------
      1         35           0       -3.831541   -0.110310    0.000001
      2          6           0       -1.949640    0.144188   -0.000005
      3          6           0       -1.435826    1.437592    0.000001
      4          6           0       -0.058084    1.637113   -0.000003
      5          6           0        0.785697    0.535134   -0.000001
      6          6           0        0.254988   -0.762855   -0.000002
      7          6           0       -1.112498   -0.969119   -0.000004
      8          6           0        1.375197   -1.786266    0.000003
      9          6           0        2.614683   -0.909601   -0.000002
     10          6           0        3.948719   -1.276830   -0.000001
     11          6           0        4.923995   -0.278960    0.000002
     12          6           0        4.561147    1.067392   -0.000002
     13          6           0        3.218836    1.438459    0.000004
     14          6           0        2.249210    0.444674    0.000002
     15          1           0       -2.113525    2.285526    0.000003
     16          1           0        0.343268    2.647645   -0.000001
     17          1           0       -1.534208   -1.970614   -0.000002
     18          1           0        1.333401   -2.435065    0.887005
     19          1           0        1.333403   -2.435068   -0.886996
     20          1           0        4.237146   -2.326001    0.000001
     21          1           0        5.975748   -0.553380    0.000003
     22          1           0        5.332606    1.833126   -0.000002
     23          1           0        2.937557    2.489153    0.000002
 ---------------------------------------------------------------------
 Rotational constants (GHZ):           2.1542214           0.2139549           0.1948630
 Standard basis: MIDIx (5D, 7F)
 There are   164 symmetry adapted cartesian basis functions of A   symmetry.
 There are   162 symmetry adapted basis functions of A   symmetry.
   162 basis functions,   285 primitive gaussians,   164 cartesian basis functions
    61 alpha electrons       61 beta electrons
       nuclear repulsion energy      1039.9692813284 Hartrees.
 NAtoms=   23 NActive=   23 NUniq=   23 SFac= 1.00D+00 NAtFMM=   60 NAOKFM=F Big=F
 Integral buffers will be    131072 words long.
 Raffenetti 2 integral format.
 Two-electron integral symmetry is turned on.
 One-electron integrals computed using PRISM.
 NBasis=   162 RedAO= T EigKep=  1.02D-03  NBF=   162
 NBsUse=   162 1.00D-06 EigRej= -1.00D+00 NBFU=   162
 ExpMin= 1.47D-01 ExpMax= 6.10D+03 ExpMxC= 6.10D+03 IAcc=3 IRadAn=         5 AccDes= 0.00D+00
 Harris functional with IExCor=  908 and IRadAn=       5 diagonalized for initial guess.
 HarFok:  IExCor=  908 AccDes= 0.00D+00 IRadAn=         5 IDoV= 1 UseB2=F ITyADJ=14
 ICtDFT=  3500011 ScaDFX=  1.000000  1.000000  1.000000  1.000000
 FoFCou: FMM=F IPFlag=           0 FMFlag=      100000 FMFlg1=           0
         NFxFlg=           0 DoJE=T BraDBF=F KetDBF=T FulRan=T
         wScrn=  0.000000 ICntrl=       500 IOpCl=  0 I1Cent=   200000004 NGrid=           0
         NMat0=    1 NMatS0=      1 NMatT0=    0 NMatD0=    1 NMtDS0=    0 NMtDT0=    0
 Petite list used in FoFCou.
 Requested convergence on RMS density matrix=1.00D-08 within 128 cycles.
 Requested convergence on MAX density matrix=1.00D-06.
 Requested convergence on             energy=1.00D-06.
 No special actions if energy rises.
 Integral accuracy reduced to 1.0D-05 until final iterations.
 Initial convergence to 1.0D-05 achieved.  Increase integral accuracy.
 SCF Done:  E(RmPW1PW91) =  -3059.94885872     A.U. after   14 cycles
            NFock= 14  Conv=0.61D-08     -V/T= 2.0025
 DoSCS=F DFT=T ScalE2(SS,OS)=  1.000000  1.000000
 Range of M.O.s used for correlation:     1   162
 NBasis=   162 NAE=    61 NBE=    61 NFC=     0 NFV=     0
 NROrb=    162 NOA=    61 NOB=    61 NVA=   101 NVB=   101
          Differentiating once with respect to magnetic field using GIAOs.
          Electric field/nuclear overlap derivatives assumed to be zero.
 FoFCou: FMM=F IPFlag=           0 FMFlag=      100000 FMFlg1=           0
         NFxFlg=           0 DoJE=F BraDBF=F KetDBF=T FulRan=T
         wScrn=  0.000000 ICntrl=      6100 IOpCl=  0 I1Cent=           7 NGrid=          23
         NMat0=    1 NMatS0=      1 NMatT0=    0 NMatD0=    1 NMtDS0=    0 NMtDT0=    0
 Symmetry not used in FoFCou.
 FoFJK:  IHMeth= 1 ICntrl=    6127 DoSepK=F KAlg= 0 I1Cent=           0 FoldK=F
 IRaf=         1 NMat=       1 IRICut=       1 DoRegI=T DoRafI=F ISym2E= 0 IDoP0=0 IntGTp=1.
          There are     3 degrees of freedom in the 1st order CPHF.  IDoFFX=0 NUNeed=     3.
      3 vectors produced by pass  0 Test12= 2.05D-13 3.33D-08 XBig12= 4.46D+01 1.58D+00.
 AX will form     3 AO Fock derivatives at one time.
      3 vectors produced by pass  1 Test12= 2.05D-13 3.33D-08 XBig12= 1.95D-01 1.56D-01.
      3 vectors produced by pass  2 Test12= 2.05D-13 3.33D-08 XBig12= 6.77D-04 5.19D-03.
      3 vectors produced by pass  3 Test12= 2.05D-13 3.33D-08 XBig12= 1.16D-06 2.04D-04.
      3 vectors produced by pass  4 Test12= 2.05D-13 3.33D-08 XBig12= 4.90D-09 2.38D-05.
      3 vectors produced by pass  5 Test12= 2.05D-13 3.33D-08 XBig12= 3.00D-11 1.84D-06.
      1 vectors produced by pass  6 Test12= 2.05D-13 3.33D-08 XBig12= 9.92D-14 9.03D-08.
 InvSVY:  IOpt=1 It=  1 EMax= 8.88D-16
 Solved reduced A of dimension    19 with     3 vectors.
 Calculating GIAO nuclear magnetic shielding tensors.
 SCF GIAO Magnetic shielding tensor (ppm):
      1  Br   Isotropic =  2173.7208   Anisotropy =  1141.6301
   XX=  2914.1219   YX=   152.1571   ZX=    -0.0054
   XY=   147.8194   YY=  1847.2669   ZY=    -0.0009
   XZ=    -0.0039   YZ=     0.0016   ZZ=  1759.7736
   Eigenvalues:  1759.7736  1826.5813  2934.8075
      2  C    Isotropic =    80.2460   Anisotropy =   104.6466
   XX=     5.7020   YX=   -10.7785   ZX=     0.0001
   XY=   -11.7571   YY=    85.0256   ZY=    -0.0001
   XZ=     0.0004   YZ=     0.0001   ZZ=   150.0104
   Eigenvalues:     4.1325    86.5951   150.0104
      3  C    Isotropic =    84.3522   Anisotropy =   136.4134
   XX=    51.1039   YX=    35.8034   ZX=     0.0003
   XY=    39.6619   YY=    26.6582   ZY=    -0.0005
   XZ=     0.0006   YZ=    -0.0009   ZZ=   175.2945
   Eigenvalues:    -0.7819    78.5441   175.2945
      4  C    Isotropic =    93.4717   Anisotropy =   147.4759
   XX=    69.8026   YX=   -22.2010   ZX=     0.0001
   XY=   -20.1878   YY=    18.8237   ZY=    -0.0001
   XZ=    -0.0003   YZ=    -0.0002   ZZ=   191.7890
   Eigenvalues:    11.1632    77.4630   191.7890
      5  C    Isotropic =    77.7359   Anisotropy =   138.4583
   XX=     3.2527   YX=    -4.6573   ZX=    -0.0005
   XY=   -15.2267   YY=    59.9135   ZY=    -0.0000
   XZ=    -0.0008   YZ=     0.0001   ZZ=   170.0414
   Eigenvalues:     1.5588    61.6074   170.0414
      6  C    Isotropic =    74.8000   Anisotropy =   142.6199
   XX=    34.5333   YX=    21.9817   ZX=    -0.0004
   XY=    29.5793   YY=    19.9869   ZY=     0.0002
   XZ=    -0.0008   YZ=    -0.0000   ZZ=   169.8800
   Eigenvalues:     0.4733    54.0469   169.8800
      7  C    Isotropic =    86.1492   Anisotropy =   126.1018
   XX=    72.4493   YX=   -23.4416   ZX=    -0.0001
   XY=   -24.3086   YY=    15.7813   ZY=     0.0002
   XZ=     0.0003   YZ=     0.0007   ZZ=   170.2171
   Eigenvalues:     7.0635    81.1671   170.2171
      8  C    Isotropic =   165.4382   Anisotropy =    30.2541
   XX=   185.4893   YX=    -1.5910   ZX=     0.0001
   XY=    -1.4647   YY=   165.8680   ZY=    -0.0001
   XZ=     0.0001   YZ=    -0.0002   ZZ=   144.9572
   Eigenvalues:   144.9572   165.7498   185.6076
      9  C    Isotropic =    76.2874   Anisotropy =   146.3761
   XX=    29.0541   YX=   -23.8078   ZX=     0.0003
   XY=   -32.9511   YY=    25.9366   ZY=     0.0000
   XZ=     0.0001   YZ=    -0.0001   ZZ=   173.8714
   Eigenvalues:    -0.9269    55.9176   173.8714
     10  C    Isotropic =    90.0794   Anisotropy =   151.2405
   XX=    71.1561   YX=    16.6385   ZX=    -0.0002
   XY=    16.4307   YY=     8.1758   ZY=     0.0000
   XZ=     0.0000   YZ=     0.0004   ZZ=   190.9064
   Eigenvalues:     4.0988    75.2331   190.9064
     11  C    Isotropic =    87.6942   Anisotropy =   159.7869
   XX=     1.0936   YX=    18.0473   ZX=    -0.0004
   XY=    20.0369   YY=    67.7702   ZY=     0.0002
   XZ=    -0.0005   YZ=     0.0002   ZZ=   194.2188
   Eigenvalues:    -3.9614    72.8252   194.2188
     12  C    Isotropic =    87.9256   Anisotropy =   161.3983
   XX=    36.0662   YX=   -36.7432   ZX=     0.0004
   XY=   -39.7793   YY=    32.1862   ZY=     0.0002
   XZ=     0.0003   YZ=     0.0002   ZZ=   195.5244
   Eigenvalues:    -4.1842    72.4366   195.5244
     13  C    Isotropic =    93.9298   Anisotropy =   152.2111
   XX=    74.0354   YX=    14.5501   ZX=     0.0002
   XY=    13.7057   YY=    12.3502   ZY=    -0.0001
   XZ=    -0.0000   YZ=    -0.0002   ZZ=   195.4039
   Eigenvalues:     9.2685    77.1172   195.4039
     14  C    Isotropic =    77.9632   Anisotropy =   138.1560
   XX=     5.2392   YX=    12.5278   ZX=    -0.0002
   XY=    23.1062   YY=    58.5832   ZY=    -0.0003
   XZ=     0.0002   YZ=     0.0002   ZZ=   170.0672
   Eigenvalues:    -0.1643    63.9867   170.0672
     15  H    Isotropic =    25.5448   Anisotropy =     7.1508
   XX=    27.8219   YX=     2.4064   ZX=     0.0000
   XY=     2.0761   YY=    28.2947   ZY=     0.0000
   XZ=     0.0000   YZ=    -0.0000   ZZ=    20.5179
   Eigenvalues:    20.5179    25.8046    30.3120
     16  H    Isotropic =    25.1028   Anisotropy =     5.5271
   XX=    28.6856   YX=    -0.5221   ZX=     0.0000
   XY=    -0.3815   YY=    26.7847   ZY=    -0.0000
   XZ=     0.0000   YZ=     0.0000   ZZ=    19.8380
   Eigenvalues:    19.8380    26.6827    28.7875
     17  H    Isotropic =    25.5408   Anisotropy =     8.7567
   XX=    30.2830   YX=    -2.4241   ZX=     0.0000
   XY=    -2.2036   YY=    26.4917   ZY=     0.0000
   XZ=     0.0000   YZ=     0.0000   ZZ=    19.8476
   Eigenvalues:    19.8476    25.3961    31.3786
     18  H    Isotropic =    28.8977   Anisotropy =     9.0126
   XX=    29.4157   YX=    -0.2056   ZX=    -0.1456
   XY=    -0.1713   YY=    30.3626   ZY=    -4.0142
   XZ=    -0.4795   YZ=    -8.0365   ZZ=    26.9147
   Eigenvalues:    22.3529    29.4341    34.9061
     19  H    Isotropic =    28.8977   Anisotropy =     9.0126
   XX=    29.4157   YX=    -0.2056   ZX=     0.1456
   XY=    -0.1713   YY=    30.3626   ZY=     4.0142
   XZ=     0.4795   YZ=     8.0365   ZZ=    26.9147
   Eigenvalues:    22.3529    29.4341    34.9061
     20  H    Isotropic =    25.4737   Anisotropy =     5.3210
   XX=    29.0016   YX=    -0.3850   ZX=    -0.0000
   XY=    -0.0987   YY=    26.0185   ZY=     0.0000
   XZ=     0.0000   YZ=    -0.0000   ZZ=    21.4012
   Eigenvalues:    21.4012    25.9990    29.0211
     21  H    Isotropic =    25.5919   Anisotropy =     2.8166
   XX=    27.1879   YX=     0.3116   ZX=    -0.0000
   XY=     0.3060   YY=    27.1311   ZY=     0.0000
   XZ=    -0.0000   YZ=     0.0000   ZZ=    22.4566
   Eigenvalues:    22.4566    26.8494    27.4696
     22  H    Isotropic =    25.4934   Anisotropy =     3.2334
   XX=    27.6123   YX=    -0.0915   ZX=    -0.0000
   XY=    -0.2869   YY=    26.6728   ZY=    -0.0000
   XZ=    -0.0000   YZ=     0.0000   ZZ=    22.1952
   Eigenvalues:    22.1952    26.6361    27.6490
     23  H    Isotropic =    25.0668   Anisotropy =     5.9162
   XX=    28.7119   YX=     0.9000   ZX=     0.0000
   XY=     0.8625   YY=    26.4145   ZY=     0.0000
   XZ=    -0.0000   YZ=    -0.0000   ZZ=    20.0740
   Eigenvalues:    20.0740    26.1154    29.0109
 End of Minotr F.D. properties file   721 does not exist.
 End of Minotr F.D. properties file   722 does not exist.
 End of Minotr F.D. properties file   788 does not exist.

 **********************************************************************

            Population analysis using the SCF Density.

 **********************************************************************

 Orbital symmetries:
       Occupied  (A) (A) (A) (A) (A) (A) (A) (A) (A) (A) (A) (A)
                 (A) (A) (A) (A) (A) (A) (A) (A) (A) (A) (A) (A)
                 (A) (A) (A) (A) (A) (A) (A) (A) (A) (A) (A) (A)
                 (A) (A) (A) (A) (A) (A) (A) (A) (A) (A) (A) (A)
                 (A) (A) (A) (A) (A) (A) (A) (A) (A) (A) (A) (A)
                 (A)
       Virtual   (A) (A) (A) (A) (A) (A) (A) (A) (A) (A) (A) (A)
                 (A) (A) (A) (A) (A) (A) (A) (A) (A) (A) (A) (A)
                 (A) (A) (A) (A) (A) (A) (A) (A) (A) (A) (A) (A)
                 (A) (A) (A) (A) (A) (A) (A) (A) (A) (A) (A) (A)
                 (A) (A) (A) (A) (A) (A) (A) (A) (A) (A) (A) (A)
                 (A) (A) (A) (A) (A) (A) (A) (A) (A) (A) (A) (A)
                 (A) (A) (A) (A) (A) (A) (A) (A) (A) (A) (A) (A)
                 (A) (A) (A) (A) (A) (A) (A) (A) (A) (A) (A) (A)
                 (A) (A) (A) (A) (A)
 The electronic state is 1-A.
 Alpha  occ. eigenvalues -- -480.36236 -62.57168 -56.15262 -56.14849 -56.14838
 Alpha  occ. eigenvalues --  -10.24782 -10.20953 -10.20684 -10.20603 -10.20421
 Alpha  occ. eigenvalues --  -10.20358 -10.20278 -10.20243 -10.20219 -10.19564
 Alpha  occ. eigenvalues --  -10.19486 -10.19315 -10.19276  -8.85061  -6.62548
 Alpha  occ. eigenvalues --   -6.61167  -6.61145  -2.71139  -2.70651  -2.70641
 Alpha  occ. eigenvalues --   -2.69493  -2.69488  -0.94110  -0.90319  -0.85740
 Alpha  occ. eigenvalues --   -0.82221  -0.79506  -0.78660  -0.73974  -0.72918
 Alpha  occ. eigenvalues --   -0.66658  -0.62122  -0.61502  -0.60582  -0.54887
 Alpha  occ. eigenvalues --   -0.51552  -0.50853  -0.47558  -0.47414  -0.46447
 Alpha  occ. eigenvalues --   -0.46279  -0.44321  -0.43577  -0.42573  -0.40255
 Alpha  occ. eigenvalues --   -0.38688  -0.37716  -0.37649  -0.35812  -0.35285
 Alpha  occ. eigenvalues --   -0.33192  -0.29309  -0.28255  -0.27551  -0.26420
 Alpha  occ. eigenvalues --   -0.22964
 Alpha virt. eigenvalues --   -0.03253  -0.01117   0.00892   0.02145   0.04131
 Alpha virt. eigenvalues --    0.10031   0.11675   0.12730   0.12842   0.15146
 Alpha virt. eigenvalues --    0.15702   0.16963   0.18544   0.20481   0.20949
 Alpha virt. eigenvalues --    0.20984   0.23738   0.25850   0.28422   0.29379
 Alpha virt. eigenvalues --    0.30446   0.32521   0.33148   0.38351   0.38782
 Alpha virt. eigenvalues --    0.40453   0.41707   0.46171   0.47068   0.49210
 Alpha virt. eigenvalues --    0.50742   0.52130   0.53048   0.54047   0.56641
 Alpha virt. eigenvalues --    0.56974   0.57121   0.57595   0.57714   0.59361
 Alpha virt. eigenvalues --    0.60732   0.61757   0.63935   0.64700   0.66339
 Alpha virt. eigenvalues --    0.68199   0.70313   0.70686   0.71803   0.72988
 Alpha virt. eigenvalues --    0.77444   0.77901   0.79047   0.83297   0.84222
 Alpha virt. eigenvalues --    0.85860   0.85867   0.87509   0.87660   0.88161
 Alpha virt. eigenvalues --    0.88757   0.89187   0.90243   0.90527   0.92277
 Alpha virt. eigenvalues --    0.92472   0.93433   0.93506   0.94355   0.95209
 Alpha virt. eigenvalues --    0.96383   0.96977   0.98135   0.98252   0.98553
 Alpha virt. eigenvalues --    1.01970   1.02148   1.04525   1.06032   1.06612
 Alpha virt. eigenvalues --    1.08101   1.11030   1.12717   1.15172   1.16252
 Alpha virt. eigenvalues --    1.19378   1.20244   1.28694   1.34188   1.36920
 Alpha virt. eigenvalues --    1.47468   1.50457   1.51826   1.54482   1.59450
 Alpha virt. eigenvalues --    1.60874   1.72425   1.75888   1.76843   1.90426
 Alpha virt. eigenvalues --    1.95416
          Condensed to atoms (all electrons):
               1          2          3          4          5          6
     1  Br  34.925763   0.213904  -0.040628   0.002054   0.000400   0.002581
     2  C    0.213904   5.057756   0.472476  -0.031862  -0.048884  -0.018245
     3  C   -0.040628   0.472476   4.968868   0.502791  -0.032097  -0.041261
     4  C    0.002054  -0.031862   0.502791   4.849393   0.465856  -0.015718
     5  C    0.000400  -0.048884  -0.032097   0.465856   4.993019   0.466362
     6  C    0.002581  -0.018245  -0.041261  -0.015718   0.466362   5.082931
     7  C   -0.042223   0.482955  -0.041494  -0.024865  -0.023291   0.472823
     8  C   -0.000029   0.000396   0.000828   0.000369  -0.052507   0.323397
     9  C    0.000001  -0.000128  -0.000124   0.001199  -0.046395  -0.081872
    10  C   -0.000000  -0.000000   0.000001   0.000017   0.001335   0.001608
    11  C    0.000000   0.000000   0.000000   0.000002   0.001055  -0.000113
    12  C    0.000000   0.000000  -0.000001   0.000110   0.000667  -0.000140
    13  C   -0.000000   0.000001   0.000112  -0.001713   0.006562   0.001216
    14  C    0.000002   0.001058   0.000630   0.007637   0.348927  -0.044979
    15  H    0.001032  -0.022570   0.390589  -0.018112   0.003241   0.000128
    16  H   -0.000065   0.003048  -0.021567   0.393069  -0.020666   0.003046
    17  H    0.001074  -0.019391   0.002663   0.000039   0.002850  -0.015372
    18  H    0.000000   0.000039  -0.000004  -0.000026   0.001135  -0.026724
    19  H    0.000000   0.000039  -0.000004  -0.000026   0.001135  -0.026724
    20  H   -0.000000  -0.000000  -0.000000   0.000000  -0.000140   0.000104
    21  H   -0.000000   0.000000   0.000000  -0.000000   0.000002   0.000002
    22  H   -0.000000  -0.000000   0.000000  -0.000000  -0.000041   0.000001
    23  H   -0.000000  -0.000000  -0.000023   0.001589  -0.007072   0.000109
               7          8          9         10         11         12
     1  Br  -0.042223  -0.000029   0.000001  -0.000000   0.000000   0.000000
     2  C    0.482955   0.000396  -0.000128  -0.000000   0.000000   0.000000
     3  C   -0.041494   0.000828  -0.000124   0.000001   0.000000  -0.000001
     4  C   -0.024865   0.000369   0.001199   0.000017   0.000002   0.000110
     5  C   -0.023291  -0.052507  -0.046395   0.001335   0.001055   0.000667
     6  C    0.472823   0.323397  -0.081872   0.001608  -0.000113  -0.000140
     7  C    4.890716   0.006276   0.001768   0.000021  -0.000000   0.000001
     8  C    0.006276   5.034877   0.327417   0.007587   0.000176   0.000905
     9  C    0.001768   0.327417   5.079313   0.485906  -0.035365  -0.043685
    10  C    0.000021   0.007587   0.485906   4.870127   0.514873  -0.043793
    11  C   -0.000000   0.000176  -0.035365   0.514873   4.939439   0.506840
    12  C    0.000001   0.000905  -0.043685  -0.043793   0.506840   4.941772
    13  C    0.000014   0.000084  -0.014094  -0.028527  -0.049383   0.520230
    14  C    0.001386  -0.054007   0.473089  -0.026937  -0.037519  -0.038017
    15  H    0.002896   0.000005   0.000001  -0.000000  -0.000000   0.000000
    16  H   -0.000089  -0.000102   0.000119   0.000001   0.000000  -0.000024
    17  H    0.384650  -0.005081   0.000102   0.000001  -0.000000  -0.000000
    18  H   -0.003829   0.381276  -0.026916  -0.003740   0.000043  -0.000003
    19  H   -0.003829   0.381277  -0.026917  -0.003740   0.000043  -0.000003
    20  H    0.000001  -0.005346  -0.023570   0.394565  -0.021356   0.002868
    21  H   -0.000000  -0.000039   0.003871  -0.026181   0.399925  -0.025141
    22  H   -0.000000   0.000006   0.000204   0.003086  -0.024654   0.399241
    23  H    0.000001  -0.000104   0.002948   0.000005   0.002898  -0.021160
              13         14         15         16         17         18
     1  Br  -0.000000   0.000002   0.001032  -0.000065   0.001074   0.000000
     2  C    0.000001   0.001058  -0.022570   0.003048  -0.019391   0.000039
     3  C    0.000112   0.000630   0.390589  -0.021567   0.002663  -0.000004
     4  C   -0.001713   0.007637  -0.018112   0.393069   0.000039  -0.000026
     5  C    0.006562   0.348927   0.003241  -0.020666   0.002850   0.001135
     6  C    0.001216  -0.044979   0.000128   0.003046  -0.015372  -0.026724
     7  C    0.000014   0.001386   0.002896  -0.000089   0.384650  -0.003829
     8  C    0.000084  -0.054007   0.000005  -0.000102  -0.005081   0.381276
     9  C   -0.014094   0.473089   0.000001   0.000119   0.000102  -0.026916
    10  C   -0.028527  -0.026937  -0.000000   0.000001   0.000001  -0.003740
    11  C   -0.049383  -0.037519  -0.000000   0.000000  -0.000000   0.000043
    12  C    0.520230  -0.038017   0.000000  -0.000024  -0.000000  -0.000003
    13  C    4.850384   0.472344  -0.000000   0.001629  -0.000000  -0.000022
    14  C    0.472344   4.978007  -0.000034  -0.006788  -0.000127   0.001218
    15  H   -0.000000  -0.000034   0.436945  -0.004159  -0.000075  -0.000000
    16  H    0.001629  -0.006788  -0.004159   0.450292   0.000009   0.000003
    17  H   -0.000000  -0.000127  -0.000075   0.000009   0.440254   0.000859
    18  H   -0.000022   0.001218  -0.000000   0.000003   0.000859   0.466977
    19  H   -0.000022   0.001218  -0.000000   0.000003   0.000859  -0.024713
    20  H    0.000097   0.003204   0.000000   0.000000   0.000000   0.000925
    21  H    0.003256   0.000119  -0.000000  -0.000000  -0.000000   0.000000
    22  H   -0.025606   0.003748   0.000000   0.000001   0.000000  -0.000000
    23  H    0.393432  -0.021446   0.000001   0.002674   0.000000   0.000003
              19         20         21         22         23
     1  Br   0.000000  -0.000000  -0.000000  -0.000000  -0.000000
     2  C    0.000039  -0.000000   0.000000  -0.000000  -0.000000
     3  C   -0.000004  -0.000000   0.000000   0.000000  -0.000023
     4  C   -0.000026   0.000000  -0.000000  -0.000000   0.001589
     5  C    0.001135  -0.000140   0.000002  -0.000041  -0.007072
     6  C   -0.026724   0.000104   0.000002   0.000001   0.000109
     7  C   -0.003829   0.000001  -0.000000  -0.000000   0.000001
     8  C    0.381277  -0.005346  -0.000039   0.000006  -0.000104
     9  C   -0.026917  -0.023570   0.003871   0.000204   0.002948
    10  C   -0.003740   0.394565  -0.026181   0.003086   0.000005
    11  C    0.000043  -0.021356   0.399925  -0.024654   0.002898
    12  C   -0.000003   0.002868  -0.025141   0.399241  -0.021160
    13  C   -0.000022   0.000097   0.003256  -0.025606   0.393432
    14  C    0.001218   0.003204   0.000119   0.003748  -0.021446
    15  H   -0.000000   0.000000  -0.000000   0.000000   0.000001
    16  H    0.000003   0.000000  -0.000000   0.000001   0.002674
    17  H    0.000859   0.000000  -0.000000   0.000000   0.000000
    18  H   -0.024713   0.000925   0.000000  -0.000000   0.000003
    19  H    0.466977   0.000925   0.000000  -0.000000   0.000003
    20  H    0.000925   0.460428  -0.004133  -0.000080   0.000009
    21  H    0.000000  -0.004133   0.457451  -0.004105  -0.000078
    22  H   -0.000000  -0.000080  -0.004105   0.457272  -0.004084
    23  H    0.000003   0.000009  -0.000078  -0.004084   0.457666
 Mulliken charges:
               1
     1  Br  -0.063865
     2  C   -0.090592
     3  C   -0.161754
     4  C   -0.131803
     5  C   -0.061451
     6  C   -0.083160
     7  C   -0.103889
     8  C   -0.347661
     9  C   -0.076871
    10  C   -0.146214
    11  C   -0.196903
    12  C   -0.200666
    13  C   -0.129992
    14  C   -0.062732
    15  H    0.210111
    16  H    0.199566
    17  H    0.206686
    18  H    0.233499
    19  H    0.233499
    20  H    0.191500
    21  H    0.195050
    22  H    0.195013
    23  H    0.192630
 Sum of Mulliken charges =  -0.00000
 Mulliken charges with hydrogens summed into heavy atoms:
               1
     1  Br  -0.063865
     2  C   -0.090592
     3  C    0.048357
     4  C    0.067763
     5  C   -0.061451
     6  C   -0.083160
     7  C    0.102798
     8  C    0.119337
     9  C   -0.076871
    10  C    0.045285
    11  C   -0.001854
    12  C   -0.005653
    13  C    0.062639
    14  C   -0.062732
 Electronic spatial extent (au):  <R**2>=           4877.8652
 Charge=             -0.0000 electrons
 Dipole moment (field-independent basis, Debye):
    X=              1.7159    Y=             -0.3665    Z=              0.0000  Tot=              1.7546
 Quadrupole moment (field-independent basis, Debye-Ang):
   XX=            -88.7356   YY=            -81.4382   ZZ=            -98.5401
   XY=             -0.9410   XZ=             -0.0000   YZ=             -0.0000
 Traceless Quadrupole moment (field-independent basis, Debye-Ang):
   XX=              0.8357   YY=              8.1331   ZZ=             -8.9688
   XY=             -0.9410   XZ=             -0.0000   YZ=             -0.0000
 Octapole moment (field-independent basis, Debye-Ang**2):
  XXX=            -85.2221  YYY=             -0.7419  ZZZ=              0.0001  XYY=            -30.3439
  XXY=             -1.5696  XXZ=              0.0001  XZZ=            -53.7243  YZZ=             -5.2499
  YYZ=              0.0001  XYZ=             -0.0001
 Hexadecapole moment (field-independent basis, Debye-Ang**3):
 XXXX=          -4550.3397 YYYY=           -677.5027 ZZZZ=           -108.9566 XXXY=             23.8242
 XXXZ=             -0.0003 YYYX=             10.0677 YYYZ=             -0.0001 ZZZX=             -0.0003
 ZZZY=             -0.0001 XXYY=           -879.7849 XXZZ=           -915.2688 YYZZ=           -149.8573
 XXYZ=             -0.0002 YYXZ=             -0.0001 ZZXY=              1.2288
 N-N= 1.039969281328D+03 E-N=-9.355861409453D+03  KE= 3.052279242269D+03
 Unable to Open any file for archive entry.
 1\1\GINC-DYNAMO\SP\RmPW1PW91\MIDIx\C13H9Br1\RPATON\26-Sep-2024\0\\# nm
 r=giao mpw1pw91/midix\\arbr34_wb97xd_nmrcreated by GaussianPrep\\0,1\B
 r,0,3.831541,-0.11031,-0.000001\C,0,1.94964,0.144188,0.000005\C,0,1.43
 5826,1.437592,-0.000001\C,0,0.058084,1.637113,0.000003\C,0,-0.785697,0
 .535134,0.000001\C,0,-0.254988,-0.762855,0.000002\C,0,1.112498,-0.9691
 19,0.000004\C,0,-1.375197,-1.786266,-0.000003\C,0,-2.614683,-0.909601,
 0.000002\C,0,-3.948719,-1.27683,0.000001\C,0,-4.923995,-0.27896,-0.000
 002\C,0,-4.561147,1.067392,0.000002\C,0,-3.218836,1.438459,-0.000004\C
 ,0,-2.24921,0.444674,-0.000002\H,0,2.113525,2.285526,-0.000003\H,0,-0.
 343268,2.647645,0.000001\H,0,1.534208,-1.970614,0.000002\H,0,-1.333401
 ,-2.435065,-0.887005\H,0,-1.333403,-2.435068,0.886996\H,0,-4.237146,-2
 .326001,-0.000001\H,0,-5.975748,-0.55338,-0.000003\H,0,-5.332606,1.833
 126,0.000002\H,0,-2.937557,2.489153,-0.000002\\Version=ES64L-G16RevC.0
 1\State=1-A\HF=-3059.9488587\RMSD=6.068e-09\Dipole=-0.6750792,-0.14420
 86,-0.0000045\Quadrupole=0.6213079,6.0467845,-6.6680924,0.6996253,-0.0
 000034,0.000012\PG=C01 [X(C13H9Br1)]\\@
 The archive entry for this job was punched.


 Experience is what you get when you don't get what you want.
 -- Dan Stanford
 Job cpu time:       0 days  0 hours  4 minutes 40.2 seconds.
 Elapsed time:       0 days  0 hours  0 minutes 13.5 seconds.
 File lengths (MBytes):  RWF=     19 Int=      0 D2E=      0 Chk=      3 Scr=      1
 Normal termination of Gaussian 16 at Thu Sep 26 12:57:02 2024.
