Job Start Time: Mon Jan 29 15:30:51 MST 2024
SLURM Job ID: 229852
SLURM Job Name: Ac2_rdkit_conf_1_SP_charge_p
 Entering Gaussian System, Link 0=/opt/apps/Gaussian/G16C/g16/g16
 Initial command:
 /opt/apps/Gaussian/G16C/g16/l1.exe "/tmp/Gau-1606206.inp" -scrdir="/tmp/"
 Entering Link 1 = /opt/apps/Gaussian/G16C/g16/l1.exe PID=   1606207.
  
 Copyright (c) 1988-2019, Gaussian, Inc.  All Rights Reserved.
  
 This is part of the Gaussian(R) 16 program.  It is based on
 the Gaussian(R) 09 system (copyright 2009, Gaussian, Inc.),
 the Gaussian(R) 03 system (copyright 2003, Gaussian, Inc.),
 the Gaussian(R) 98 system (copyright 1998, Gaussian, Inc.),
 the Gaussian(R) 94 system (copyright 1995, Gaussian, Inc.),
 the Gaussian 92(TM) system (copyright 1992, Gaussian, Inc.),
 the Gaussian 90(TM) system (copyright 1990, Gaussian, Inc.),
 the Gaussian 88(TM) system (copyright 1988, Gaussian, Inc.),
 the Gaussian 86(TM) system (copyright 1986, Carnegie Mellon
 University), and the Gaussian 82(TM) system (copyright 1983,
 Carnegie Mellon University). Gaussian is a federally registered
 trademark of Gaussian, Inc.
  
 This software contains proprietary and confidential information,
 including trade secrets, belonging to Gaussian, Inc.
  
 This software is provided under written license and may be
 used, copied, transmitted, or stored only in accord with that
 written license.
  
 The following legend is applicable only to US Government
 contracts under FAR:
  
                    RESTRICTED RIGHTS LEGEND
  
 Use, reproduction and disclosure by the US Government is
 subject to restrictions as set forth in subparagraphs (a)
 and (c) of the Commercial Computer Software - Restricted
 Rights clause in FAR 52.227-19.
  
 Gaussian, Inc.
 340 Quinnipiac St., Bldg. 40, Wallingford CT 06492
  
  
 ---------------------------------------------------------------
 Warning -- This program may not be used in any manner that
 competes with the business of Gaussian, Inc. or will provide
 assistance to any competitor of Gaussian, Inc.  The licensee
 of this program is prohibited from giving any competitor of
 Gaussian, Inc. access to this program.  By using this program,
 the user acknowledges that Gaussian, Inc. is engaged in the
 business of creating and licensing software in the field of
 computational chemistry and represents and warrants to the
 licensee that it is not a competitor of Gaussian, Inc. and that
 it will not use this program in any manner prohibited above.
 ---------------------------------------------------------------
  

 Cite this work as:
 Gaussian 16, Revision C.01,
 M. J. Frisch, G. W. Trucks, H. B. Schlegel, G. E. Scuseria, 
 M. A. Robb, J. R. Cheeseman, G. Scalmani, V. Barone, 
 G. A. Petersson, H. Nakatsuji, X. Li, M. Caricato, A. V. Marenich, 
 J. Bloino, B. G. Janesko, R. Gomperts, B. Mennucci, H. P. Hratchian, 
 J. V. Ortiz, A. F. Izmaylov, J. L. Sonnenberg, D. Williams-Young, 
 F. Ding, F. Lipparini, F. Egidi, J. Goings, B. Peng, A. Petrone, 
 T. Henderson, D. Ranasinghe, V. G. Zakrzewski, J. Gao, N. Rega, 
 G. Zheng, W. Liang, M. Hada, M. Ehara, K. Toyota, R. Fukuda, 
 J. Hasegawa, M. Ishida, T. Nakajima, Y. Honda, O. Kitao, H. Nakai, 
 T. Vreven, K. Throssell, J. A. Montgomery, Jr., J. E. Peralta, 
 F. Ogliaro, M. J. Bearpark, J. J. Heyd, E. N. Brothers, K. N. Kudin, 
 V. N. Staroverov, T. A. Keith, R. Kobayashi, J. Normand, 
 K. Raghavachari, A. P. Rendell, J. C. Burant, S. S. Iyengar, 
 J. Tomasi, M. Cossi, J. M. Millam, M. Klene, C. Adamo, R. Cammi, 
 J. W. Ochterski, R. L. Martin, K. Morokuma, O. Farkas, 
 J. B. Foresman, and D. J. Fox, Gaussian, Inc., Wallingford CT, 2019.
 
 ******************************************
 Gaussian 16:  AS64L-G16RevC.01  3-Jul-2019
                29-Jan-2024 
 ******************************************
 %nprocshared=8
 Will use up to    8 processors via shared memory.
 %mem=16GB
 --------------------------------------
 # pop=(nbo6, hirshfeld) m062x/def2tzvp
 --------------------------------------
 1/38=1,172=1/1;
 2/12=2,17=6,18=5,40=1/2;
 3/5=44,7=101,11=2,25=1,30=1,74=-55/1,2,3;
 4//1;
 5/5=2,38=5/2;
 6/7=2,8=2,9=2,10=2,28=1,40=1,79=1,113=1,114=1,124=3103,126=1/1,12;
 99/5=1,9=1/99;
 ----------------------------
 Ac2_rdkit_conf_1_SP_charge_p
 ----------------------------
 Symbolic Z-matrix:
 Charge =  1 Multiplicity = 2
 C                     2.05396   1.55722   0.53216 
 C                     2.33502   0.16189  -0.00847 
 C                     2.82156  -0.78873   1.07634 
 C                     3.33589   0.22416  -1.15174 
 O                     1.1429   -0.37571  -0.65105 
 C                     0.02067  -0.56317   0.0519 
 O                    -0.13593  -0.34947   1.2297 
 N                    -0.96193  -1.06732  -0.75431 
 C                    -2.30402  -1.09362  -0.24638 
 C                    -2.94943   0.26328  -0.02078 
 O                    -3.97746   0.41253   0.57259 
 O                    -2.26886   1.27262  -0.58515 
 H                     2.9907    2.00536   0.86651 
 H                     1.36021   1.52423   1.36843 
 H                     1.63542   2.18502  -0.25607 
 H                     2.94975  -1.79121   0.66538 
 H                     3.78877  -0.44369   1.44463 
 H                     2.12208  -0.82937   1.90745 
 H                     3.50078  -0.77062  -1.56615 
 H                     2.96738   0.87606  -1.94412 
 H                     4.28686   0.61523  -0.79003 
 H                    -0.81311  -0.97993  -1.7457 
 H                    -2.94431  -1.64608  -0.934 
 H                    -2.33053  -1.60754   0.71302 
 H                    -2.74757   2.08781  -0.3761 
 
                          Input orientation:                          
 ---------------------------------------------------------------------
 Center     Atomic      Atomic             Coordinates (Angstroms)
 Number     Number       Type             X           Y           Z
 ---------------------------------------------------------------------
      1          6           0        2.053957    1.557221    0.532157
      2          6           0        2.335022    0.161885   -0.008472
      3          6           0        2.821563   -0.788730    1.076335
      4          6           0        3.335887    0.224162   -1.151737
      5          8           0        1.142898   -0.375709   -0.651047
      6          6           0        0.020673   -0.563173    0.051900
      7          8           0       -0.135927   -0.349470    1.229699
      8          7           0       -0.961930   -1.067315   -0.754312
      9          6           0       -2.304023   -1.093624   -0.246375
     10          6           0       -2.949429    0.263284   -0.020777
     11          8           0       -3.977460    0.412531    0.572593
     12          8           0       -2.268863    1.272621   -0.585152
     13          1           0        2.990701    2.005361    0.866506
     14          1           0        1.360210    1.524228    1.368425
     15          1           0        1.635417    2.185020   -0.256066
     16          1           0        2.949752   -1.791205    0.665383
     17          1           0        3.788773   -0.443692    1.444634
     18          1           0        2.122081   -0.829366    1.907448
     19          1           0        3.500780   -0.770620   -1.566153
     20          1           0        2.967382    0.876055   -1.944118
     21          1           0        4.286860    0.615225   -0.790025
     22          1           0       -0.813109   -0.979930   -1.745699
     23          1           0       -2.944314   -1.646084   -0.933997
     24          1           0       -2.330530   -1.607540    0.713021
     25          1           0       -2.747569    2.087813   -0.376096
 ---------------------------------------------------------------------
                    Distance matrix (angstroms):
                    1          2          3          4          5
     1  C    0.000000
     2  C    1.522577   0.000000
     3  C    2.527614   1.522234   0.000000
     4  C    2.501178   1.520745   2.500957   0.000000
     5  O    2.442584   1.457076   2.443839   2.328033   0.000000
     6  C    2.976737   2.426018   2.990874   3.613763   1.337410
     7  O    2.986240   2.810719   2.993863   4.248974   2.274486
     8  N    4.199853   3.596818   4.212327   4.505229   2.217946
     9  C    5.159950   4.811823   5.302278   5.862152   3.544069
    10  C    5.197488   5.285438   5.967808   6.386376   4.189593
    11  O    6.139213   6.344122   6.922680   7.516238   5.323221
    12  O    4.473941   4.770959   5.737782   5.730053   3.789650
    13  H    1.090921   2.143340   2.807059   2.713877   3.374439
    14  H    1.087068   2.168429   2.751480   3.456109   2.781232
    15  H    1.091147   2.154954   3.467769   2.745685   2.637407
    16  H    3.468740   2.155582   1.090995   2.740936   2.646004
    17  H    2.801045   2.142809   1.090959   2.718874   3.375967
    18  H    2.755334   2.167642   1.087049   3.455700   2.776779
    19  H    3.451818   2.157528   2.728444   1.090193   2.559879
    20  H    2.725852   2.157926   3.451943   1.090242   2.562750
    21  H    2.760684   2.150817   2.757079   1.090007   3.299358
    22  H    4.454866   3.772589   4.605570   4.360825   2.321489
    23  H    6.115021   5.656566   6.166184   6.556383   4.289431
    24  H    5.410374   5.041705   5.229389   6.240251   3.929732
    25  H    4.915395   5.447667   6.434228   6.409622   4.613055
                    6          7          8          9         10
     6  C    0.000000
     7  O    1.207229   0.000000
     8  N    1.367350   2.265807   0.000000
     9  C    2.403031   2.726390   1.435237   0.000000
    10  C    3.083799   3.139260   2.501743   1.519422   0.000000
    11  O    4.148275   3.971122   3.611654   2.395747   1.196332
    12  O    3.002990   3.236399   2.685515   2.390632   1.341809
    13  H    4.010239   3.931023   5.262289   6.235087   6.253579
    14  H    2.807996   2.401752   4.076082   4.784071   4.700303
    15  H    3.202313   3.430568   4.191914   5.125309   4.976871
    16  H    3.234799   3.452313   4.223838   5.377739   6.284272
    17  H    4.019025   3.931710   5.271949   6.356421   6.931855
    18  H    2.815996   2.405877   4.080773   4.929420   5.534632
    19  H    3.843472   4.606495   4.545646   5.961701   6.712849
    20  H    3.839083   4.604949   4.542226   5.877897   6.251670
    21  H    4.505309   4.956911   5.511988   6.830480   7.285567
    22  H    2.024905   3.115935   1.006296   2.117480   3.014100
    23  H    3.306938   3.774894   2.072946   1.089958   2.116526
    24  H    2.656302   2.581856   2.077974   1.088693   2.102731
    25  H    3.856692   3.916580   3.645050   3.214825   1.869734
                   11         12         13         14         15
    11  O    0.000000
    12  O    2.235941   0.000000
    13  H    7.153933   5.505200   0.000000
    14  H    5.509985   4.129157   1.772544   0.000000
    15  H    5.944138   4.022956   1.768966   1.775206   0.000000
    16  H    7.269892   6.179386   3.802110   3.743395   4.287996
    17  H    7.861803   6.615188   2.639889   3.126729   3.799928
    18  H    6.366203   5.469168   3.142250   2.531876   3.742213
    19  H    7.867538   6.198869   3.726135   4.296524   3.732521
    20  H    7.401319   5.424234   3.029106   3.738458   2.517348
    21  H    8.378353   6.591786   2.521230   3.748396   3.127222
    22  H    4.162516   2.922341   5.495866   4.548834   4.269800
    23  H    2.752290   3.016085   7.197171   5.820735   6.009233
    24  H    2.610131   3.159807   6.433670   4.884576   5.572376
    25  H    2.284560   0.968195   5.871848   4.498314   4.385707
                   16         17         18         19         20
    16  H    0.000000
    17  H    1.768327   0.000000
    18  H    1.775640   1.772231   0.000000
    19  H    2.514951   3.042147   3.737669   0.000000
    20  H    3.731499   3.728278   4.296226   1.771697   0.000000
    21  H    3.113997   2.522518   3.748263   1.772248   1.772282
    22  H    4.542093   5.625219   4.688656   4.322694   4.216179
    23  H    6.108935   7.241415   5.865935   6.534929   6.506126
    24  H    5.283690   6.271815   4.675249   6.316585   6.426236
    25  H    6.970719   7.242054   6.118660   6.973431   6.048778
                   21         22         23         24         25
    21  H    0.000000
    22  H    5.428399   0.000000
    23  H    7.577871   2.375848   0.000000
    24  H    7.140706   2.956648   1.758091   0.000000
    25  H    7.198822   3.876725   3.780469   3.875014   0.000000
 Stoichiometry    C7H13NO4(1+,2)
 Framework group  C1[X(C7H13NO4)]
 Deg. of freedom    69
 Full point group                 C1      NOp   1
 Largest Abelian subgroup         C1      NOp   1
 Largest concise Abelian subgroup C1      NOp   1
                         Standard orientation:                         
 ---------------------------------------------------------------------
 Center     Atomic      Atomic             Coordinates (Angstroms)
 Number     Number       Type             X           Y           Z
 ---------------------------------------------------------------------
      1          6           0        2.053957    1.557221    0.532157
      2          6           0        2.335022    0.161885   -0.008472
      3          6           0        2.821563   -0.788730    1.076335
      4          6           0        3.335887    0.224162   -1.151737
      5          8           0        1.142898   -0.375709   -0.651047
      6          6           0        0.020673   -0.563173    0.051900
      7          8           0       -0.135927   -0.349470    1.229699
      8          7           0       -0.961930   -1.067315   -0.754312
      9          6           0       -2.304023   -1.093624   -0.246375
     10          6           0       -2.949429    0.263284   -0.020777
     11          8           0       -3.977460    0.412531    0.572593
     12          8           0       -2.268863    1.272621   -0.585152
     13          1           0        2.990701    2.005361    0.866506
     14          1           0        1.360210    1.524228    1.368425
     15          1           0        1.635417    2.185020   -0.256066
     16          1           0        2.949752   -1.791205    0.665383
     17          1           0        3.788773   -0.443692    1.444634
     18          1           0        2.122081   -0.829366    1.907448
     19          1           0        3.500780   -0.770620   -1.566153
     20          1           0        2.967382    0.876055   -1.944118
     21          1           0        4.286860    0.615225   -0.790025
     22          1           0       -0.813109   -0.979930   -1.745699
     23          1           0       -2.944314   -1.646084   -0.933997
     24          1           0       -2.330530   -1.607540    0.713021
     25          1           0       -2.747569    2.087813   -0.376096
 ---------------------------------------------------------------------
 Rotational constants (GHZ):           2.1324508           0.4641067           0.4521156
 Standard basis: def2TZVP (5D, 7F)
 There are   510 symmetry adapted cartesian basis functions of A   symmetry.
 There are   450 symmetry adapted basis functions of A   symmetry.
   450 basis functions,   716 primitive gaussians,   510 cartesian basis functions
    47 alpha electrons       46 beta electrons
       nuclear repulsion energy       769.3836648912 Hartrees.
 NAtoms=   25 NActive=   25 NUniq=   25 SFac= 1.00D+00 NAtFMM=   60 NAOKFM=F Big=F
 Integral buffers will be    131072 words long.
 Raffenetti 2 integral format.
 Two-electron integral symmetry is turned on.
 One-electron integrals computed using PRISM.
   1 Symmetry operations used in ECPInt.
 ECPInt:  NShTT=   17020 NPrTT=   51024 LenC2=   15816 LenP2D=   35696.
 LDataN:  DoStor=T MaxTD1= 6 Len=  172
 NBasis=   450 RedAO= T EigKep=  1.97D-04  NBF=   450
 NBsUse=   450 1.00D-06 EigRej= -1.00D+00 NBFU=   450
 ExpMin= 9.52D-02 ExpMax= 2.70D+04 ExpMxC= 9.22D+02 IAcc=3 IRadAn=         5 AccDes= 0.00D+00
 Harris functional with IExCor= 1009 and IRadAn=       5 diagonalized for initial guess.
 HarFok:  IExCor= 1009 AccDes= 0.00D+00 IRadAn=         5 IDoV= 1 UseB2=F ITyADJ=14
 ICtDFT=  3500011 ScaDFX=  1.000000  1.000000  1.000000  1.000000
 FoFCou: FMM=F IPFlag=           0 FMFlag=      100000 FMFlg1=           0
         NFxFlg=           0 DoJE=T BraDBF=F KetDBF=T FulRan=T
         wScrn=  0.000000 ICntrl=       500 IOpCl=  0 I1Cent=   200000004 NGrid=           0
         NMat0=    1 NMatS0=      1 NMatT0=    0 NMatD0=    1 NMtDS0=    0 NMtDT0=    0
 Petite list used in FoFCou.
 Initial guess <Sx>= 0.0000 <Sy>= 0.0000 <Sz>= 0.5000 <S**2>= 0.7500 S= 0.5000
 Requested convergence on RMS density matrix=1.00D-08 within 128 cycles.
 Requested convergence on MAX density matrix=1.00D-06.
 Requested convergence on             energy=1.00D-06.
 No special actions if energy rises.
 Integral accuracy reduced to 1.0D-05 until final iterations.
 Initial convergence to 1.0D-05 achieved.  Increase integral accuracy.
 SCF Done:  E(UM062X) =  -629.908754814     A.U. after   28 cycles
            NFock= 28  Conv=0.31D-08     -V/T= 2.0045
 <Sx>= 0.0000 <Sy>= 0.0000 <Sz>= 0.5000 <S**2>= 0.7608 S= 0.5054
 <L.S>=  0.00000000000    
 Annihilation of the first spin contaminant:
 S**2 before annihilation     0.7608,   after     0.7501

 **********************************************************************

            Population analysis using the SCF Density.

 **********************************************************************

 Orbital symmetries:
 Alpha Orbitals:
       Occupied  (A) (A) (A) (A) (A) (A) (A) (A) (A) (A) (A) (A)
                 (A) (A) (A) (A) (A) (A) (A) (A) (A) (A) (A) (A)
                 (A) (A) (A) (A) (A) (A) (A) (A) (A) (A) (A) (A)
                 (A) (A) (A) (A) (A) (A) (A) (A) (A) (A) (A)
       Virtual   (A) (A) (A) (A) (A) (A) (A) (A) (A) (A) (A) (A)
                 (A) (A) (A) (A) (A) (A) (A) (A) (A) (A) (A) (A)
                 (A) (A) (A) (A) (A) (A) (A) (A) (A) (A) (A) (A)
                 (A) (A) (A) (A) (A) (A) (A) (A) (A) (A) (A) (A)
                 (A) (A) (A) (A) (A) (A) (A) (A) (A) (A) (A) (A)
                 (A) (A) (A) (A) (A) (A) (A) (A) (A) (A) (A) (A)
                 (A) (A) (A) (A) (A) (A) (A) (A) (A) (A) (A) (A)
                 (A) (A) (A) (A) (A) (A) (A) (A) (A) (A) (A) (A)
                 (A) (A) (A) (A) (A) (A) (A) (A) (A) (A) (A) (A)
                 (A) (A) (A) (A) (A) (A) (A) (A) (A) (A) (A) (A)
                 (A) (A) (A) (A) (A) (A) (A) (A) (A) (A) (A) (A)
                 (A) (A) (A) (A) (A) (A) (A) (A) (A) (A) (A) (A)
                 (A) (A) (A) (A) (A) (A) (A) (A) (A) (A) (A) (A)
                 (A) (A) (A) (A) (A) (A) (A) (A) (A) (A) (A) (A)
                 (A) (A) (A) (A) (A) (A) (A) (A) (A) (A) (A) (A)
                 (A) (A) (A) (A) (A) (A) (A) (A) (A) (A) (A) (A)
                 (A) (A) (A) (A) (A) (A) (A) (A) (A) (A) (A) (A)
                 (A) (A) (A) (A) (A) (A) (A) (A) (A) (A) (A) (A)
                 (A) (A) (A) (A) (A) (A) (A) (A) (A) (A) (A) (A)
                 (A) (A) (A) (A) (A) (A) (A) (A) (A) (A) (A) (A)
                 (A) (A) (A) (A) (A) (A) (A) (A) (A) (A) (A) (A)
                 (A) (A) (A) (A) (A) (A) (A) (A) (A) (A) (A) (A)
                 (A) (A) (A) (A) (A) (A) (A) (A) (A) (A) (A) (A)
                 (A) (A) (A) (A) (A) (A) (A) (A) (A) (A) (A) (A)
                 (A) (A) (A) (A) (A) (A) (A) (A) (A) (A) (A) (A)
                 (A) (A) (A) (A) (A) (A) (A) (A) (A) (A) (A) (A)
                 (A) (A) (A) (A) (A) (A) (A) (A) (A) (A) (A) (A)
                 (A) (A) (A) (A) (A) (A) (A) (A) (A) (A) (A) (A)
                 (A) (A) (A) (A) (A) (A) (A) (A) (A) (A) (A) (A)
                 (A) (A) (A) (A) (A) (A) (A) (A) (A) (A) (A) (A)
                 (A) (A) (A) (A) (A) (A) (A) (A) (A) (A) (A) (A)
                 (A) (A) (A) (A) (A) (A) (A) (A) (A) (A) (A) (A)
                 (A) (A) (A) (A) (A) (A) (A) (A) (A) (A) (A) (A)
                 (A) (A) (A) (A) (A) (A) (A)
 Beta  Orbitals:
       Occupied  (A) (A) (A) (A) (A) (A) (A) (A) (A) (A) (A) (A)
                 (A) (A) (A) (A) (A) (A) (A) (A) (A) (A) (A) (A)
                 (A) (A) (A) (A) (A) (A) (A) (A) (A) (A) (A) (A)
                 (A) (A) (A) (A) (A) (A) (A) (A) (A) (A)
       Virtual   (A) (A) (A) (A) (A) (A) (A) (A) (A) (A) (A) (A)
                 (A) (A) (A) (A) (A) (A) (A) (A) (A) (A) (A) (A)
                 (A) (A) (A) (A) (A) (A) (A) (A) (A) (A) (A) (A)
                 (A) (A) (A) (A) (A) (A) (A) (A) (A) (A) (A) (A)
                 (A) (A) (A) (A) (A) (A) (A) (A) (A) (A) (A) (A)
                 (A) (A) (A) (A) (A) (A) (A) (A) (A) (A) (A) (A)
                 (A) (A) (A) (A) (A) (A) (A) (A) (A) (A) (A) (A)
                 (A) (A) (A) (A) (A) (A) (A) (A) (A) (A) (A) (A)
                 (A) (A) (A) (A) (A) (A) (A) (A) (A) (A) (A) (A)
                 (A) (A) (A) (A) (A) (A) (A) (A) (A) (A) (A) (A)
                 (A) (A) (A) (A) (A) (A) (A) (A) (A) (A) (A) (A)
                 (A) (A) (A) (A) (A) (A) (A) (A) (A) (A) (A) (A)
                 (A) (A) (A) (A) (A) (A) (A) (A) (A) (A) (A) (A)
                 (A) (A) (A) (A) (A) (A) (A) (A) (A) (A) (A) (A)
                 (A) (A) (A) (A) (A) (A) (A) (A) (A) (A) (A) (A)
                 (A) (A) (A) (A) (A) (A) (A) (A) (A) (A) (A) (A)
                 (A) (A) (A) (A) (A) (A) (A) (A) (A) (A) (A) (A)
                 (A) (A) (A) (A) (A) (A) (A) (A) (A) (A) (A) (A)
                 (A) (A) (A) (A) (A) (A) (A) (A) (A) (A) (A) (A)
                 (A) (A) (A) (A) (A) (A) (A) (A) (A) (A) (A) (A)
                 (A) (A) (A) (A) (A) (A) (A) (A) (A) (A) (A) (A)
                 (A) (A) (A) (A) (A) (A) (A) (A) (A) (A) (A) (A)
                 (A) (A) (A) (A) (A) (A) (A) (A) (A) (A) (A) (A)
                 (A) (A) (A) (A) (A) (A) (A) (A) (A) (A) (A) (A)
                 (A) (A) (A) (A) (A) (A) (A) (A) (A) (A) (A) (A)
                 (A) (A) (A) (A) (A) (A) (A) (A) (A) (A) (A) (A)
                 (A) (A) (A) (A) (A) (A) (A) (A) (A) (A) (A) (A)
                 (A) (A) (A) (A) (A) (A) (A) (A) (A) (A) (A) (A)
                 (A) (A) (A) (A) (A) (A) (A) (A) (A) (A) (A) (A)
                 (A) (A) (A) (A) (A) (A) (A) (A) (A) (A) (A) (A)
                 (A) (A) (A) (A) (A) (A) (A) (A) (A) (A) (A) (A)
                 (A) (A) (A) (A) (A) (A) (A) (A) (A) (A) (A) (A)
                 (A) (A) (A) (A) (A) (A) (A) (A) (A) (A) (A) (A)
                 (A) (A) (A) (A) (A) (A) (A) (A)
 The electronic state is 2-A.
 Alpha  occ. eigenvalues --  -19.87803 -19.85048 -19.84656 -19.81843 -15.07498
 Alpha  occ. eigenvalues --  -10.89831 -10.89736 -10.81530 -10.74896 -10.65381
 Alpha  occ. eigenvalues --  -10.65185 -10.64876  -1.45284  -1.43915  -1.35931
 Alpha  occ. eigenvalues --   -1.34242  -1.30788  -1.08895  -1.04468  -0.94296
 Alpha  occ. eigenvalues --   -0.91979  -0.91820  -0.91507  -0.87016  -0.81949
 Alpha  occ. eigenvalues --   -0.80256  -0.77297  -0.77065  -0.75289  -0.73675
 Alpha  occ. eigenvalues --   -0.71347  -0.69550  -0.68437  -0.67401  -0.66138
 Alpha  occ. eigenvalues --   -0.62919  -0.62570  -0.60458  -0.59503  -0.58973
 Alpha  occ. eigenvalues --   -0.57670  -0.57491  -0.56859  -0.56578  -0.55643
 Alpha  occ. eigenvalues --   -0.51904  -0.51793
 Alpha virt. eigenvalues --   -0.15554  -0.12539  -0.11454  -0.08152  -0.06019
 Alpha virt. eigenvalues --   -0.05197  -0.03610  -0.01175  -0.00455   0.00199
 Alpha virt. eigenvalues --    0.00902   0.01281   0.02180   0.02401   0.02688
 Alpha virt. eigenvalues --    0.04577   0.05104   0.05518   0.07051   0.07297
 Alpha virt. eigenvalues --    0.07763   0.08225   0.08747   0.08968   0.09326
 Alpha virt. eigenvalues --    0.09589   0.11526   0.12906   0.14155   0.14336
 Alpha virt. eigenvalues --    0.15634   0.17497   0.17515   0.18541   0.19119
 Alpha virt. eigenvalues --    0.20244   0.21440   0.21888   0.23039   0.23759
 Alpha virt. eigenvalues --    0.23952   0.25164   0.25661   0.26627   0.27832
 Alpha virt. eigenvalues --    0.28214   0.29644   0.30346   0.31589   0.32017
 Alpha virt. eigenvalues --    0.32870   0.33236   0.34087   0.34650   0.35771
 Alpha virt. eigenvalues --    0.36475   0.37019   0.37957   0.38075   0.38366
 Alpha virt. eigenvalues --    0.39162   0.39645   0.40226   0.41052   0.41631
 Alpha virt. eigenvalues --    0.42189   0.43628   0.45265   0.45745   0.46499
 Alpha virt. eigenvalues --    0.47232   0.48093   0.49565   0.50301   0.51542
 Alpha virt. eigenvalues --    0.53416   0.54286   0.54391   0.58779   0.60079
 Alpha virt. eigenvalues --    0.60446   0.62633   0.63336   0.66248   0.69223
 Alpha virt. eigenvalues --    0.70216   0.71031   0.72754   0.73395   0.75584
 Alpha virt. eigenvalues --    0.76082   0.77029   0.78489   0.79721   0.80096
 Alpha virt. eigenvalues --    0.80778   0.81400   0.84020   0.84526   0.86261
 Alpha virt. eigenvalues --    0.86585   0.88606   0.90299   0.90475   0.92407
 Alpha virt. eigenvalues --    0.93789   0.95675   0.97949   0.99885   1.01742
 Alpha virt. eigenvalues --    1.03177   1.03634   1.06332   1.08218   1.10173
 Alpha virt. eigenvalues --    1.12269   1.13948   1.16982   1.18339   1.19043
 Alpha virt. eigenvalues --    1.20522   1.23081   1.24675   1.25071   1.25674
 Alpha virt. eigenvalues --    1.29682   1.29898   1.31914   1.34180   1.35741
 Alpha virt. eigenvalues --    1.37329   1.39007   1.39989   1.41482   1.43143
 Alpha virt. eigenvalues --    1.44179   1.44908   1.45645   1.46922   1.47530
 Alpha virt. eigenvalues --    1.48925   1.50822   1.51644   1.52496   1.52992
 Alpha virt. eigenvalues --    1.53360   1.53631   1.55352   1.55690   1.56817
 Alpha virt. eigenvalues --    1.58097   1.59251   1.63053   1.63331   1.63910
 Alpha virt. eigenvalues --    1.65861   1.65979   1.68896   1.71515   1.72263
 Alpha virt. eigenvalues --    1.74457   1.75783   1.77522   1.78565   1.80773
 Alpha virt. eigenvalues --    1.82348   1.83806   1.84615   1.85754   1.86573
 Alpha virt. eigenvalues --    1.88075   1.91802   1.92603   1.93640   1.95976
 Alpha virt. eigenvalues --    1.97514   1.98117   2.00144   2.01603   2.02996
 Alpha virt. eigenvalues --    2.03077   2.05559   2.06543   2.07342   2.11675
 Alpha virt. eigenvalues --    2.12076   2.14593   2.14841   2.16456   2.17167
 Alpha virt. eigenvalues --    2.18356   2.19080   2.19814   2.21157   2.21235
 Alpha virt. eigenvalues --    2.23827   2.24389   2.28523   2.29390   2.29611
 Alpha virt. eigenvalues --    2.30079   2.31121   2.31373   2.33524   2.35362
 Alpha virt. eigenvalues --    2.37498   2.38846   2.40873   2.43535   2.43648
 Alpha virt. eigenvalues --    2.44205   2.45600   2.46953   2.48358   2.49035
 Alpha virt. eigenvalues --    2.50690   2.52058   2.52825   2.54790   2.55655
 Alpha virt. eigenvalues --    2.56585   2.59068   2.61276   2.63584   2.64729
 Alpha virt. eigenvalues --    2.66757   2.67747   2.68322   2.71094   2.71523
 Alpha virt. eigenvalues --    2.72899   2.73041   2.73994   2.75027   2.78195
 Alpha virt. eigenvalues --    2.78729   2.80749   2.81120   2.82242   2.84453
 Alpha virt. eigenvalues --    2.85630   2.88769   2.89529   2.92491   2.93997
 Alpha virt. eigenvalues --    2.95579   2.97019   2.97493   2.98572   2.99871
 Alpha virt. eigenvalues --    3.01739   3.02475   3.03286   3.05236   3.08352
 Alpha virt. eigenvalues --    3.08525   3.09084   3.09484   3.11380   3.12645
 Alpha virt. eigenvalues --    3.14630   3.15761   3.16151   3.16848   3.17977
 Alpha virt. eigenvalues --    3.18822   3.19795   3.21686   3.22145   3.22464
 Alpha virt. eigenvalues --    3.22665   3.25077   3.25471   3.26903   3.27577
 Alpha virt. eigenvalues --    3.28372   3.31025   3.31554   3.33755   3.34566
 Alpha virt. eigenvalues --    3.37383   3.39059   3.40350   3.44200   3.46254
 Alpha virt. eigenvalues --    3.51235   3.51966   3.53471   3.54397   3.56014
 Alpha virt. eigenvalues --    3.56966   3.59331   3.62025   3.62963   3.65055
 Alpha virt. eigenvalues --    3.67710   3.69841   3.75134   3.78127   3.80977
 Alpha virt. eigenvalues --    3.84003   3.88096   3.88915   3.91687   3.92002
 Alpha virt. eigenvalues --    3.94108   3.95528   3.97638   3.99800   4.00877
 Alpha virt. eigenvalues --    4.08017   4.10898   4.14735   4.15818   4.21261
 Alpha virt. eigenvalues --    4.23718   4.25211   4.26083   4.28741   4.29526
 Alpha virt. eigenvalues --    4.32148   4.34980   4.37572   4.39134   4.43671
 Alpha virt. eigenvalues --    4.45785   4.47408   4.53101   4.60136   4.61273
 Alpha virt. eigenvalues --    4.67643   4.69896   4.71871   4.73662   4.74910
 Alpha virt. eigenvalues --    4.79755   4.85051   4.91511   4.93281   4.96313
 Alpha virt. eigenvalues --    4.99011   5.02137   5.03889   5.05544   5.09149
 Alpha virt. eigenvalues --    5.14466   5.17611   5.19883   5.21752   5.22126
 Alpha virt. eigenvalues --    5.31325   5.33417   5.37239   5.42268   5.46235
 Alpha virt. eigenvalues --    5.55604   5.55828   5.60472   5.69346   5.70411
 Alpha virt. eigenvalues --    5.74689   5.86635   5.95481   5.98322   6.01412
 Alpha virt. eigenvalues --    6.03820   6.08127   6.12460   6.18052   6.21210
 Alpha virt. eigenvalues --    6.23933   6.26186   6.26696   6.36050   6.45329
 Alpha virt. eigenvalues --    6.50189   6.50524   6.52803   6.58154   6.61163
 Alpha virt. eigenvalues --    6.61798   6.69702   6.74807   6.78253   6.87849
 Alpha virt. eigenvalues --    6.89611   6.89964   6.98128   7.12385   7.22166
 Alpha virt. eigenvalues --    7.26522  22.38691  22.41720  22.42420  22.43900
 Alpha virt. eigenvalues --   22.61806  23.14778  23.43618  32.29778  43.74202
 Alpha virt. eigenvalues --   43.78525  43.90476  44.42360
  Beta  occ. eigenvalues --  -19.87721 -19.84947 -19.84206 -19.81589 -15.06689
  Beta  occ. eigenvalues --  -10.89909 -10.89666 -10.81541 -10.74891 -10.65369
  Beta  occ. eigenvalues --  -10.65173 -10.64876  -1.44560  -1.43223  -1.34911
  Beta  occ. eigenvalues --   -1.33641  -1.28298  -1.08124  -1.03793  -0.93265
  Beta  occ. eigenvalues --   -0.91821  -0.91698  -0.90565  -0.86484  -0.80687
  Beta  occ. eigenvalues --   -0.78550  -0.76830  -0.76001  -0.74262  -0.72281
  Beta  occ. eigenvalues --   -0.71003  -0.68422  -0.68014  -0.67123  -0.65084
  Beta  occ. eigenvalues --   -0.62499  -0.59963  -0.59232  -0.58965  -0.57285
  Beta  occ. eigenvalues --   -0.56778  -0.56195  -0.55710  -0.54421  -0.51560
  Beta  occ. eigenvalues --   -0.51309
  Beta virt. eigenvalues --   -0.39388  -0.15241  -0.11849  -0.10766  -0.07979
  Beta virt. eigenvalues --   -0.05976  -0.05152  -0.03482  -0.01119  -0.00272
  Beta virt. eigenvalues --    0.00301   0.00991   0.01368   0.02208   0.02463
  Beta virt. eigenvalues --    0.02790   0.04745   0.05323   0.05599   0.07106
  Beta virt. eigenvalues --    0.07468   0.07823   0.08239   0.08857   0.09010
  Beta virt. eigenvalues --    0.09369   0.09684   0.11598   0.13024   0.14339
  Beta virt. eigenvalues --    0.14476   0.15675   0.17495   0.17774   0.18567
  Beta virt. eigenvalues --    0.19284   0.20235   0.21514   0.22115   0.23277
  Beta virt. eigenvalues --    0.23932   0.24146   0.25316   0.25801   0.26674
  Beta virt. eigenvalues --    0.27889   0.28242   0.29731   0.30393   0.31720
  Beta virt. eigenvalues --    0.32161   0.32915   0.33263   0.34153   0.34901
  Beta virt. eigenvalues --    0.35809   0.36513   0.37024   0.38068   0.38218
  Beta virt. eigenvalues --    0.38501   0.39214   0.39663   0.40448   0.41071
  Beta virt. eigenvalues --    0.41689   0.42333   0.43740   0.45364   0.45917
  Beta virt. eigenvalues --    0.46581   0.47331   0.48364   0.49767   0.50443
  Beta virt. eigenvalues --    0.51819   0.53461   0.54341   0.54687   0.58787
  Beta virt. eigenvalues --    0.60212   0.60601   0.62599   0.63376   0.66384
  Beta virt. eigenvalues --    0.69285   0.70267   0.70990   0.72846   0.73489
  Beta virt. eigenvalues --    0.75669   0.76212   0.77153   0.78587   0.79797
  Beta virt. eigenvalues --    0.80165   0.80857   0.81463   0.84129   0.84586
  Beta virt. eigenvalues --    0.86377   0.86769   0.88624   0.90369   0.90536
  Beta virt. eigenvalues --    0.92411   0.93889   0.95778   0.97940   0.99906
  Beta virt. eigenvalues --    1.01752   1.03190   1.03649   1.06325   1.08236
  Beta virt. eigenvalues --    1.10377   1.12355   1.14182   1.17005   1.18322
  Beta virt. eigenvalues --    1.19096   1.20556   1.23117   1.24839   1.25227
  Beta virt. eigenvalues --    1.25853   1.29897   1.30315   1.32018   1.34252
  Beta virt. eigenvalues --    1.35756   1.37383   1.39248   1.40073   1.41532
  Beta virt. eigenvalues --    1.43192   1.44459   1.45048   1.45705   1.46941
  Beta virt. eigenvalues --    1.47583   1.48959   1.50921   1.51698   1.52582
  Beta virt. eigenvalues --    1.53058   1.53385   1.53664   1.55370   1.55777
  Beta virt. eigenvalues --    1.56879   1.58176   1.59434   1.63286   1.63414
  Beta virt. eigenvalues --    1.64303   1.65999   1.66066   1.68977   1.71990
  Beta virt. eigenvalues --    1.72536   1.74521   1.75803   1.77637   1.78640
  Beta virt. eigenvalues --    1.80932   1.82401   1.83974   1.84691   1.85795
  Beta virt. eigenvalues --    1.86778   1.88165   1.92075   1.92818   1.93796
  Beta virt. eigenvalues --    1.96489   1.97539   1.98707   2.00268   2.01641
  Beta virt. eigenvalues --    2.03113   2.03455   2.05917   2.06650   2.07674
  Beta virt. eigenvalues --    2.11839   2.12450   2.14909   2.15091   2.17041
  Beta virt. eigenvalues --    2.17615   2.18354   2.19170   2.19862   2.21163
  Beta virt. eigenvalues --    2.21250   2.23981   2.24483   2.28665   2.29470
  Beta virt. eigenvalues --    2.29693   2.30225   2.31391   2.31428   2.33533
  Beta virt. eigenvalues --    2.35577   2.37552   2.38961   2.41370   2.43582
  Beta virt. eigenvalues --    2.43709   2.44233   2.45927   2.46976   2.48675
  Beta virt. eigenvalues --    2.49236   2.50720   2.52247   2.53274   2.54869
  Beta virt. eigenvalues --    2.55717   2.56620   2.59187   2.61502   2.63971
  Beta virt. eigenvalues --    2.64866   2.66785   2.67820   2.68411   2.71314
  Beta virt. eigenvalues --    2.71585   2.72980   2.73187   2.74193   2.75082
  Beta virt. eigenvalues --    2.78255   2.78918   2.80986   2.81098   2.82283
  Beta virt. eigenvalues --    2.84525   2.85620   2.88650   2.89536   2.92491
  Beta virt. eigenvalues --    2.93965   2.95512   2.96993   2.97529   2.98654
  Beta virt. eigenvalues --    2.99921   3.01780   3.02468   3.03277   3.05424
  Beta virt. eigenvalues --    3.08363   3.08548   3.09158   3.09470   3.11281
  Beta virt. eigenvalues --    3.12678   3.14950   3.15741   3.16231   3.16870
  Beta virt. eigenvalues --    3.18032   3.18839   3.19772   3.21675   3.22162
  Beta virt. eigenvalues --    3.22509   3.22712   3.25053   3.25464   3.26916
  Beta virt. eigenvalues --    3.27632   3.28594   3.30947   3.31723   3.33824
  Beta virt. eigenvalues --    3.34564   3.37553   3.39244   3.40304   3.44239
  Beta virt. eigenvalues --    3.46229   3.51252   3.51971   3.53463   3.54324
  Beta virt. eigenvalues --    3.55893   3.56941   3.59378   3.61936   3.63294
  Beta virt. eigenvalues --    3.65049   3.67682   3.69958   3.75294   3.78132
  Beta virt. eigenvalues --    3.81021   3.83935   3.88077   3.88986   3.91684
  Beta virt. eigenvalues --    3.92018   3.94040   3.95943   3.97631   3.99800
  Beta virt. eigenvalues --    4.00933   4.08113   4.10787   4.14952   4.15823
  Beta virt. eigenvalues --    4.21596   4.23797   4.25348   4.26158   4.28726
  Beta virt. eigenvalues --    4.29462   4.32030   4.34990   4.37872   4.39857
  Beta virt. eigenvalues --    4.44943   4.46448   4.49283   4.54994   4.61142
  Beta virt. eigenvalues --    4.65733   4.67726   4.71519   4.72460   4.74979
  Beta virt. eigenvalues --    4.75817   4.82272   4.87143   4.94406   4.95157
  Beta virt. eigenvalues --    4.96764   4.99621   5.02611   5.04641   5.06520
  Beta virt. eigenvalues --    5.09797   5.15888   5.18156   5.20095   5.21991
  Beta virt. eigenvalues --    5.23368   5.31487   5.33991   5.38103   5.42440
  Beta virt. eigenvalues --    5.46872   5.56042   5.56181   5.60800   5.69344
  Beta virt. eigenvalues --    5.70537   5.75094   5.87064   5.95394   5.98628
  Beta virt. eigenvalues --    6.01982   6.03987   6.08271   6.13669   6.18257
  Beta virt. eigenvalues --    6.22887   6.24185   6.26687   6.28350   6.37630
  Beta virt. eigenvalues --    6.46127   6.50556   6.50967   6.53217   6.58229
  Beta virt. eigenvalues --    6.61872   6.62252   6.70280   6.75061   6.78606
  Beta virt. eigenvalues --    6.88225   6.90011   6.90412   6.98476   7.12385
  Beta virt. eigenvalues --    7.22125   7.26647  22.38692  22.41726  22.42344
  Beta virt. eigenvalues --   22.43841  22.61786  23.14688  23.43475  32.30167
  Beta virt. eigenvalues --   43.74165  43.78471  43.90448  44.42346
          Condensed to atoms (all electrons):
               1          2          3          4          5          6
     1  C    5.258944   0.278906  -0.112585  -0.108675  -0.037395  -0.003981
     2  C    0.278906   5.180876   0.293259   0.304320   0.130200  -0.052944
     3  C   -0.112585   0.293259   5.235944  -0.107055  -0.034210  -0.009105
     4  C   -0.108675   0.304320  -0.107055   5.164428  -0.049876  -0.002735
     5  O   -0.037395   0.130200  -0.034210  -0.049876   7.981196   0.388585
     6  C   -0.003981  -0.052944  -0.009105  -0.002735   0.388585   4.378650
     7  O   -0.019416   0.033251  -0.019984   0.000368  -0.066454   0.560447
     8  N   -0.001013   0.004880  -0.001182   0.000495  -0.078305   0.332866
     9  C    0.000528  -0.000921   0.000031   0.000005   0.003383  -0.045344
    10  C   -0.000053   0.000147  -0.000018  -0.000004  -0.000288   0.002854
    11  O   -0.000003  -0.000001   0.000000   0.000000  -0.000001   0.000018
    12  O    0.000511  -0.000314  -0.000005  -0.000014  -0.000212  -0.003375
    13  H    0.403962  -0.018522  -0.005359  -0.012031   0.003946   0.001018
    14  H    0.405473  -0.024705  -0.011619   0.012379  -0.001360  -0.002508
    15  H    0.395873  -0.030035   0.013575  -0.011908   0.000685  -0.000794
    16  H    0.013690  -0.028273   0.397900  -0.012440   0.000327  -0.001211
    17  H   -0.005182  -0.020083   0.405538  -0.013392   0.003954   0.001457
    18  H   -0.012606  -0.023755   0.403732   0.012563  -0.001312  -0.002518
    19  H    0.014363  -0.022722  -0.016893   0.403779  -0.001751  -0.000774
    20  H   -0.017753  -0.020762   0.014358   0.401972  -0.002069  -0.001089
    21  H   -0.010326  -0.020680  -0.010781   0.411180   0.004563   0.000466
    22  H    0.000173  -0.000346   0.000230  -0.000200   0.006312  -0.034483
    23  H    0.000002  -0.000025   0.000004  -0.000003   0.000012   0.005423
    24  H   -0.000013  -0.000041   0.000042   0.000004   0.000061  -0.010936
    25  H    0.000019   0.000008  -0.000002   0.000000  -0.000029  -0.000327
               7          8          9         10         11         12
     1  C   -0.019416  -0.001013   0.000528  -0.000053  -0.000003   0.000511
     2  C    0.033251   0.004880  -0.000921   0.000147  -0.000001  -0.000314
     3  C   -0.019984  -0.001182   0.000031  -0.000018   0.000000  -0.000005
     4  C    0.000368   0.000495   0.000005  -0.000004   0.000000  -0.000014
     5  O   -0.066454  -0.078305   0.003383  -0.000288  -0.000001  -0.000212
     6  C    0.560447   0.332866  -0.045344   0.002854   0.000018  -0.003375
     7  O    7.846723  -0.075899   0.021008  -0.000038  -0.000182  -0.001357
     8  N   -0.075899   6.395451   0.206192  -0.003937   0.004124   0.016423
     9  C    0.021008   0.206192   5.174605   0.214533  -0.056954  -0.101634
    10  C   -0.000038  -0.003937   0.214533   4.485201   0.632655   0.379254
    11  O   -0.000182   0.004124  -0.056954   0.632655   7.642827  -0.072498
    12  O   -0.001357   0.016423  -0.101634   0.379254  -0.072498   7.848438
    13  H    0.000371   0.000016  -0.000009   0.000001  -0.000000   0.000014
    14  H   -0.001408   0.000309   0.000067  -0.000081  -0.000003   0.000070
    15  H   -0.000591   0.000075  -0.000111   0.000035   0.000001   0.000184
    16  H   -0.000442   0.000090   0.000014   0.000002  -0.000000   0.000001
    17  H    0.000276   0.000021   0.000001  -0.000000  -0.000000   0.000000
    18  H   -0.000619   0.000158   0.000053   0.000016   0.000000  -0.000003
    19  H    0.000005   0.000016   0.000005   0.000001  -0.000000   0.000000
    20  H    0.000007  -0.000033  -0.000013  -0.000001   0.000000  -0.000001
    21  H    0.000044   0.000001  -0.000001   0.000000  -0.000000   0.000000
    22  H    0.002154   0.364828  -0.015813  -0.004787   0.000024   0.001032
    23  H    0.001579  -0.025808   0.399094  -0.022937  -0.000673   0.001003
    24  H    0.000258  -0.013420   0.415555  -0.033711   0.000789   0.001417
    25  H   -0.000118  -0.000444   0.012234  -0.018250   0.003971   0.299177
              13         14         15         16         17         18
     1  C    0.403962   0.405473   0.395873   0.013690  -0.005182  -0.012606
     2  C   -0.018522  -0.024705  -0.030035  -0.028273  -0.020083  -0.023755
     3  C   -0.005359  -0.011619   0.013575   0.397900   0.405538   0.403732
     4  C   -0.012031   0.012379  -0.011908  -0.012440  -0.013392   0.012563
     5  O    0.003946  -0.001360   0.000685   0.000327   0.003954  -0.001312
     6  C    0.001018  -0.002508  -0.000794  -0.001211   0.001457  -0.002518
     7  O    0.000371  -0.001408  -0.000591  -0.000442   0.000276  -0.000619
     8  N    0.000016   0.000309   0.000075   0.000090   0.000021   0.000158
     9  C   -0.000009   0.000067  -0.000111   0.000014   0.000001   0.000053
    10  C    0.000001  -0.000081   0.000035   0.000002  -0.000000   0.000016
    11  O   -0.000000  -0.000003   0.000001  -0.000000  -0.000000   0.000000
    12  O    0.000014   0.000070   0.000184   0.000001   0.000000  -0.000003
    13  H    0.467323  -0.014672  -0.013231  -0.000096   0.000629  -0.000064
    14  H   -0.014672   0.479503  -0.026002  -0.000130  -0.000037   0.002510
    15  H   -0.013231  -0.026002   0.506122  -0.000491  -0.000073  -0.000152
    16  H   -0.000096  -0.000130  -0.000491   0.495256  -0.014062  -0.023667
    17  H    0.000629  -0.000037  -0.000073  -0.014062   0.470436  -0.015355
    18  H   -0.000064   0.002510  -0.000152  -0.023667  -0.015355   0.477898
    19  H    0.000038  -0.000379  -0.000293   0.002710   0.000263   0.000021
    20  H    0.000255   0.000005   0.002722  -0.000269   0.000069  -0.000392
    21  H    0.001565  -0.000055   0.000540   0.000535   0.001484  -0.000064
    22  H   -0.000003  -0.000033   0.000065   0.000000  -0.000004  -0.000031
    23  H   -0.000000   0.000001  -0.000001  -0.000000   0.000000   0.000001
    24  H    0.000000   0.000014   0.000003  -0.000009  -0.000000   0.000012
    25  H   -0.000000  -0.000001  -0.000001   0.000000   0.000000  -0.000000
              19         20         21         22         23         24
     1  C    0.014363  -0.017753  -0.010326   0.000173   0.000002  -0.000013
     2  C   -0.022722  -0.020762  -0.020680  -0.000346  -0.000025  -0.000041
     3  C   -0.016893   0.014358  -0.010781   0.000230   0.000004   0.000042
     4  C    0.403779   0.401972   0.411180  -0.000200  -0.000003   0.000004
     5  O   -0.001751  -0.002069   0.004563   0.006312   0.000012   0.000061
     6  C   -0.000774  -0.001089   0.000466  -0.034483   0.005423  -0.010936
     7  O    0.000005   0.000007   0.000044   0.002154   0.001579   0.000258
     8  N    0.000016  -0.000033   0.000001   0.364828  -0.025808  -0.013420
     9  C    0.000005  -0.000013  -0.000001  -0.015813   0.399094   0.415555
    10  C    0.000001  -0.000001   0.000000  -0.004787  -0.022937  -0.033711
    11  O   -0.000000   0.000000  -0.000000   0.000024  -0.000673   0.000789
    12  O    0.000000  -0.000001   0.000000   0.001032   0.001003   0.001417
    13  H    0.000038   0.000255   0.001565  -0.000003  -0.000000   0.000000
    14  H   -0.000379   0.000005  -0.000055  -0.000033   0.000001   0.000014
    15  H   -0.000293   0.002722   0.000540   0.000065  -0.000001   0.000003
    16  H    0.002710  -0.000269   0.000535   0.000000  -0.000000  -0.000009
    17  H    0.000263   0.000069   0.001484  -0.000004   0.000000  -0.000000
    18  H    0.000021  -0.000392  -0.000064  -0.000031   0.000001   0.000012
    19  H    0.493019  -0.021886  -0.018113  -0.000005  -0.000000  -0.000001
    20  H   -0.021886   0.498915  -0.018639   0.000051  -0.000000   0.000000
    21  H   -0.018113  -0.018639   0.487614   0.000006   0.000000  -0.000000
    22  H   -0.000005   0.000051   0.000006   0.363614  -0.004267   0.002340
    23  H   -0.000000  -0.000000   0.000000  -0.004267   0.418659  -0.008399
    24  H   -0.000001   0.000000  -0.000000   0.002340  -0.008399   0.391550
    25  H    0.000000  -0.000000   0.000000  -0.000080  -0.000268  -0.000294
              25
     1  C    0.000019
     2  C    0.000008
     3  C   -0.000002
     4  C    0.000000
     5  O   -0.000029
     6  C   -0.000327
     7  O   -0.000118
     8  N   -0.000444
     9  C    0.012234
    10  C   -0.018250
    11  O    0.003971
    12  O    0.299177
    13  H   -0.000000
    14  H   -0.000001
    15  H   -0.000001
    16  H    0.000000
    17  H    0.000000
    18  H   -0.000000
    19  H    0.000000
    20  H   -0.000000
    21  H    0.000000
    22  H   -0.000080
    23  H   -0.000268
    24  H   -0.000294
    25  H    0.319375
          Atomic-Atomic Spin Densities.
               1          2          3          4          5          6
     1  C    0.002315   0.005508   0.000032   0.000720   0.000149   0.000003
     2  C    0.005508   0.002008   0.002098   0.000563  -0.006643   0.000856
     3  C    0.000032   0.002098   0.007115  -0.000336   0.000118  -0.000102
     4  C    0.000720   0.000563  -0.000336  -0.000716   0.000157  -0.000042
     5  O    0.000149  -0.006643   0.000118   0.000157   0.049744   0.008954
     6  C    0.000003   0.000856  -0.000102  -0.000042   0.008954  -0.095428
     7  O    0.000220  -0.002322  -0.000876  -0.000064   0.003098   0.003811
     8  N    0.000401   0.000536   0.000025  -0.000063  -0.012684  -0.029022
     9  C   -0.000123   0.000021   0.000142   0.000009   0.001133   0.014566
    10  C   -0.000039  -0.000043   0.000005  -0.000001  -0.000011  -0.001169
    11  O    0.000000   0.000000  -0.000000  -0.000000  -0.000001  -0.000215
    12  O   -0.000008  -0.000009   0.000002  -0.000001   0.000203  -0.000049
    13  H    0.001001  -0.000973   0.000273  -0.000021   0.000047   0.000022
    14  H   -0.000068   0.000107   0.000025  -0.000018   0.000030   0.000017
    15  H    0.000737  -0.000195  -0.000034  -0.000129   0.000005   0.000097
    16  H   -0.000187   0.000092  -0.000107   0.000134  -0.000015   0.000114
    17  H    0.000072  -0.000386   0.000520   0.000015   0.000051   0.000029
    18  H    0.000291  -0.000158   0.001099  -0.000033   0.000053  -0.000123
    19  H   -0.000082  -0.000139   0.000090   0.000125   0.000105   0.000003
    20  H    0.000071  -0.000040   0.000000  -0.000082   0.000034   0.000003
    21  H    0.000006   0.000030  -0.000003   0.000032  -0.000004   0.000006
    22  H    0.000036  -0.000023  -0.000035  -0.000000   0.000030   0.001215
    23  H   -0.000000   0.000003  -0.000001   0.000000  -0.000015  -0.000263
    24  H    0.000013   0.000016  -0.000038  -0.000000  -0.000035   0.000137
    25  H   -0.000005  -0.000007   0.000002   0.000000   0.000038   0.000283
               7          8          9         10         11         12
     1  C    0.000220   0.000401  -0.000123  -0.000039   0.000000  -0.000008
     2  C   -0.002322   0.000536   0.000021  -0.000043   0.000000  -0.000009
     3  C   -0.000876   0.000025   0.000142   0.000005  -0.000000   0.000002
     4  C   -0.000064  -0.000063   0.000009  -0.000001  -0.000000  -0.000001
     5  O    0.003098  -0.012684   0.001133  -0.000011  -0.000001   0.000203
     6  C    0.003811  -0.029022   0.014566  -0.001169  -0.000215  -0.000049
     7  O    0.140591  -0.009221   0.003898   0.001773  -0.000103  -0.000508
     8  N   -0.009221   0.751742  -0.060003  -0.021199   0.000966   0.000246
     9  C    0.003898  -0.060003  -0.066256   0.081658   0.003933   0.007487
    10  C    0.001773  -0.021199   0.081658   0.021261  -0.042480  -0.004188
    11  O   -0.000103   0.000966   0.003933  -0.042480   0.242483   0.000194
    12  O   -0.000508   0.000246   0.007487  -0.004188   0.000194   0.030569
    13  H   -0.000044  -0.000007   0.000004   0.000001   0.000000   0.000000
    14  H   -0.000245  -0.000017   0.000021  -0.000004   0.000000  -0.000003
    15  H    0.000119  -0.000177   0.000022   0.000015   0.000000   0.000010
    16  H    0.000215  -0.000061  -0.000015  -0.000001   0.000000  -0.000000
    17  H    0.000059   0.000000  -0.000002   0.000000   0.000000  -0.000000
    18  H   -0.001195  -0.000026   0.000010   0.000004  -0.000000   0.000000
    19  H    0.000008  -0.000011  -0.000004  -0.000000   0.000000  -0.000000
    20  H   -0.000000  -0.000008   0.000003   0.000000   0.000000   0.000001
    21  H   -0.000001   0.000000  -0.000000   0.000000   0.000000  -0.000000
    22  H   -0.000128  -0.002884  -0.000927   0.000522   0.000025   0.000001
    23  H   -0.000152  -0.000054   0.003163  -0.003016   0.000859   0.000071
    24  H   -0.001100  -0.001449   0.004937  -0.005758   0.003323   0.000628
    25  H    0.000177  -0.001054  -0.000562   0.000747   0.001164   0.000362
              13         14         15         16         17         18
     1  C    0.001001  -0.000068   0.000737  -0.000187   0.000072   0.000291
     2  C   -0.000973   0.000107  -0.000195   0.000092  -0.000386  -0.000158
     3  C    0.000273   0.000025  -0.000034  -0.000107   0.000520   0.001099
     4  C   -0.000021  -0.000018  -0.000129   0.000134   0.000015  -0.000033
     5  O    0.000047   0.000030   0.000005  -0.000015   0.000051   0.000053
     6  C    0.000022   0.000017   0.000097   0.000114   0.000029  -0.000123
     7  O   -0.000044  -0.000245   0.000119   0.000215   0.000059  -0.001195
     8  N   -0.000007  -0.000017  -0.000177  -0.000061   0.000000  -0.000026
     9  C    0.000004   0.000021   0.000022  -0.000015  -0.000002   0.000010
    10  C    0.000001  -0.000004   0.000015  -0.000001   0.000000   0.000004
    11  O    0.000000   0.000000   0.000000   0.000000   0.000000  -0.000000
    12  O    0.000000  -0.000003   0.000010  -0.000000  -0.000000   0.000000
    13  H    0.001407  -0.000013   0.000051  -0.000011  -0.000180   0.000027
    14  H   -0.000013  -0.000363   0.000009  -0.000002  -0.000008   0.000018
    15  H    0.000051   0.000009  -0.000868   0.000010  -0.000009  -0.000014
    16  H   -0.000011  -0.000002   0.000010  -0.000238   0.000241   0.000088
    17  H   -0.000180  -0.000008  -0.000009   0.000241   0.002877  -0.000214
    18  H    0.000027   0.000018  -0.000014   0.000088  -0.000214   0.000377
    19  H   -0.000010  -0.000000   0.000007  -0.000016   0.000050   0.000001
    20  H    0.000027   0.000001  -0.000002  -0.000001  -0.000011  -0.000001
    21  H   -0.000046  -0.000001  -0.000001   0.000001   0.000018   0.000001
    22  H   -0.000000   0.000001  -0.000008   0.000006   0.000000  -0.000001
    23  H    0.000000  -0.000000   0.000000   0.000000   0.000000  -0.000000
    24  H   -0.000000  -0.000001  -0.000002   0.000005   0.000000  -0.000007
    25  H    0.000001   0.000002   0.000009  -0.000000  -0.000000   0.000000
              19         20         21         22         23         24
     1  C   -0.000082   0.000071   0.000006   0.000036  -0.000000   0.000013
     2  C   -0.000139  -0.000040   0.000030  -0.000023   0.000003   0.000016
     3  C    0.000090   0.000000  -0.000003  -0.000035  -0.000001  -0.000038
     4  C    0.000125  -0.000082   0.000032  -0.000000   0.000000  -0.000000
     5  O    0.000105   0.000034  -0.000004   0.000030  -0.000015  -0.000035
     6  C    0.000003   0.000003   0.000006   0.001215  -0.000263   0.000137
     7  O    0.000008  -0.000000  -0.000001  -0.000128  -0.000152  -0.001100
     8  N   -0.000011  -0.000008   0.000000  -0.002884  -0.000054  -0.001449
     9  C   -0.000004   0.000003  -0.000000  -0.000927   0.003163   0.004937
    10  C   -0.000000   0.000000   0.000000   0.000522  -0.003016  -0.005758
    11  O    0.000000   0.000000   0.000000   0.000025   0.000859   0.003323
    12  O   -0.000000   0.000001  -0.000000   0.000001   0.000071   0.000628
    13  H   -0.000010   0.000027  -0.000046  -0.000000   0.000000  -0.000000
    14  H   -0.000000   0.000001  -0.000001   0.000001  -0.000000  -0.000001
    15  H    0.000007  -0.000002  -0.000001  -0.000008   0.000000  -0.000002
    16  H   -0.000016  -0.000001   0.000001   0.000006   0.000000   0.000005
    17  H    0.000050  -0.000011   0.000018   0.000000   0.000000   0.000000
    18  H    0.000001  -0.000001   0.000001  -0.000001  -0.000000  -0.000007
    19  H    0.000186  -0.000055   0.000040   0.000005   0.000000   0.000000
    20  H   -0.000055   0.000169  -0.000009  -0.000002   0.000000  -0.000000
    21  H    0.000040  -0.000009  -0.000085   0.000000   0.000000   0.000000
    22  H    0.000005  -0.000002   0.000000  -0.020164   0.000299   0.000049
    23  H    0.000000   0.000000   0.000000   0.000299   0.002780   0.001208
    24  H    0.000000  -0.000000   0.000000   0.000049   0.001208   0.019003
    25  H   -0.000000   0.000000  -0.000000  -0.000023  -0.000016  -0.000088
              25
     1  C   -0.000005
     2  C   -0.000007
     3  C    0.000002
     4  C    0.000000
     5  O    0.000038
     6  C    0.000283
     7  O    0.000177
     8  N   -0.001054
     9  C   -0.000562
    10  C    0.000747
    11  O    0.001164
    12  O    0.000362
    13  H    0.000001
    14  H    0.000002
    15  H    0.000009
    16  H   -0.000000
    17  H   -0.000000
    18  H    0.000000
    19  H   -0.000000
    20  H    0.000000
    21  H   -0.000000
    22  H   -0.000023
    23  H   -0.000016
    24  H   -0.000088
    25  H   -0.000185
 Mulliken charges and spin densities:
               1          2
     1  C   -0.443443   0.011062
     2  C    0.038282   0.000899
     3  C   -0.435816   0.010014
     4  C   -0.393161   0.000250
     5  O   -0.249965   0.044542
     6  C    0.500341  -0.096297
     7  O   -0.279985   0.138011
     8  N   -0.125904   0.615976
     9  C   -0.226507  -0.006885
    10  C    0.369407   0.028078
    11  O   -0.154095   0.210149
    12  O   -0.368109   0.035008
    13  H    0.184848   0.001554
    14  H    0.182660  -0.000511
    15  H    0.163802  -0.000351
    16  H    0.170567   0.000252
    17  H    0.184063   0.003125
    18  H    0.183572   0.000197
    19  H    0.168599   0.000303
    20  H    0.164551   0.000100
    21  H    0.170661  -0.000018
    22  H    0.319222  -0.022008
    23  H    0.236603   0.004865
    24  H    0.254777   0.020840
    25  H    0.385031   0.000846
 Sum of Mulliken charges =   1.00000   1.00000
 Mulliken charges and spin densities with hydrogens summed into heavy atoms:
               1          2
     1  C    0.087867   0.011754
     2  C    0.038282   0.000899
     3  C    0.102386   0.013589
     4  C    0.110649   0.000634
     5  O   -0.249965   0.044542
     6  C    0.500341  -0.096297
     7  O   -0.279985   0.138011
     8  N    0.193318   0.593968
     9  C    0.264873   0.018820
    10  C    0.369407   0.028078
    11  O   -0.154095   0.210149
    12  O    0.016922   0.035854
 Electronic spatial extent (au):  <R**2>=           2572.3593
 Charge=              1.0000 electrons
 Dipole moment (field-independent basis, Debye):
    X=             -2.9205    Y=             -1.2320    Z=             -3.3987  Tot=              4.6474
 Quadrupole moment (field-independent basis, Debye-Ang):
   XX=            -40.5165   YY=            -55.8852   ZZ=            -66.0415
   XY=              2.8252   XZ=              7.7522   YZ=              2.3644
 Traceless Quadrupole moment (field-independent basis, Debye-Ang):
   XX=             13.6312   YY=             -1.7375   ZZ=            -11.8938
   XY=              2.8252   XZ=              7.7522   YZ=              2.3644
 Octapole moment (field-independent basis, Debye-Ang**2):
  XXX=              4.7490  YYY=             11.1263  ZZZ=            -11.7004  XYY=            -33.1946
  XXY=              5.5076  XXZ=            -14.9424  XZZ=             -8.8572  YZZ=             -5.0504
  YYZ=             -4.5128  XYZ=             -1.5840
 Hexadecapole moment (field-independent basis, Debye-Ang**3):
 XXXX=          -2331.0390 YYYY=           -357.5124 ZZZZ=           -317.3313 XXXY=              3.3131
 XXXZ=             79.0518 YYYX=            -45.0875 YYYZ=             -2.1522 ZZZX=              7.8717
 ZZZY=              9.9202 XXYY=           -385.3681 XXZZ=           -452.5198 YYZZ=           -114.9634
 XXYZ=              1.1147 YYXZ=             10.6539 ZZXY=              6.3584
 N-N= 7.693836648912D+02 E-N=-2.996507011374D+03  KE= 6.271070269533D+02
 There are a total of      568836 grid points.
 ElSum from          density=       93.0000134774
 ElSum from atomic densities=       94.0000313272
 Hirshfeld populations at iteration   1 (CA, CB, DipXYZ):
               1          2          3          4          5
     1  C    3.046617   3.037978   0.033315   0.021600   0.013731
     2  C    2.952772   2.946085  -0.049445  -0.021953  -0.020030
     3  C    3.046048   3.037068   0.035454   0.002849   0.018014
     4  C    3.040785   3.039976   0.032532   0.008527  -0.002086
     5  O    4.067302   4.030784   0.040197   0.035134   0.108862
     6  C    2.868020   2.872544   0.016056  -0.039560  -0.071932
     7  O    4.150374   4.033492   0.054355  -0.001305  -0.040184
     8  N    3.684949   3.219979   0.003161  -0.041669  -0.044745
     9  C    3.002401   2.953005   0.010754  -0.022746  -0.029501
    10  C    2.892953   2.845817   0.043943   0.001595  -0.035726
    11  O    4.159849   3.979577   0.032951   0.003319  -0.015998
    12  O    4.082291   4.047691  -0.099091   0.063281   0.057155
    13  H    0.471270   0.469835   0.132404   0.075231   0.053336
    14  H    0.482153   0.481899  -0.072046   0.023678   0.120440
    15  H    0.480571   0.480217  -0.047837   0.100424  -0.099229
    16  H    0.478761   0.477966   0.030005  -0.143169  -0.044039
    17  H    0.471527   0.468923   0.143069   0.041346   0.062189
    18  H    0.481579   0.480418  -0.063444  -0.013467   0.127537
    19  H    0.478206   0.477988   0.038258  -0.132905  -0.064716
    20  H    0.478890   0.478866  -0.034012   0.091292  -0.115769
    21  H    0.472470   0.472438   0.143220   0.055514   0.041648
    22  H    0.412035   0.395804   0.012269  -0.002716  -0.215154
    23  H    0.452411   0.445046  -0.111632  -0.105344  -0.108859
    24  H    0.457174   0.439324  -0.030600  -0.111450   0.147701
    25  H    0.388598   0.387286  -0.090447   0.218500   0.032453
       Tot  47.000007  46.000007   0.203387   0.106007  -0.124903

 Dip from Atomic Chgs             -1.352402  -0.590735  -1.212231
         Total Dipole             -1.149015  -0.484728  -1.337134

 Hirshfeld charges, spin densities, dipoles, and CM5 charges using IRadAn=      5:
              Q-H        S-H        Dx         Dy         Dz        Q-CM5   
     1  C   -0.084595   0.008639   0.033315   0.021600   0.013731  -0.229129
     2  C    0.101143   0.006687  -0.049445  -0.021953  -0.020030   0.091064
     3  C   -0.083115   0.008980   0.035454   0.002849   0.018014  -0.227684
     4  C   -0.080762   0.000809   0.032532   0.008527  -0.002086  -0.225288
     5  O   -0.098086   0.036517   0.040197   0.035134   0.108862  -0.168984
     6  C    0.259436  -0.004523   0.016056  -0.039560  -0.071932   0.385250
     7  O   -0.183867   0.116882   0.054355  -0.001305  -0.040184  -0.234305
     8  N    0.095071   0.464970   0.003161  -0.041669  -0.044745  -0.259874
     9  C    0.044594   0.049396   0.010754  -0.022746  -0.029501   0.008855
    10  C    0.261230   0.047136   0.043943   0.001595  -0.035726   0.314902
    11  O   -0.139426   0.180272   0.032951   0.003319  -0.015998  -0.190222
    12  O   -0.129982   0.034601  -0.099091   0.063281   0.057155  -0.324456
    13  H    0.058896   0.001435   0.132404   0.075231   0.053336   0.112209
    14  H    0.035948   0.000253  -0.072046   0.023678   0.120440   0.095727
    15  H    0.039213   0.000354  -0.047837   0.100424  -0.099229   0.094632
    16  H    0.043273   0.000795   0.030005  -0.143169  -0.044039   0.098525
    17  H    0.059550   0.002604   0.143069   0.041346   0.062189   0.112858
    18  H    0.038002   0.001161  -0.063444  -0.013467   0.127537   0.097669
    19  H    0.043806   0.000217   0.038258  -0.132905  -0.064716   0.099228
    20  H    0.042243   0.000024  -0.034012   0.091292  -0.115769   0.097642
    21  H    0.055092   0.000032   0.143220   0.055514   0.041648   0.108403
    22  H    0.192162   0.016231   0.012269  -0.002716  -0.215154   0.394333
    23  H    0.102543   0.007365  -0.111632  -0.105344  -0.108859   0.170745
    24  H    0.103502   0.017850  -0.030600  -0.111450   0.147701   0.176073
    25  H    0.224115   0.001312  -0.090447   0.218500   0.032453   0.401816
       Tot   0.999987   1.000000   0.203387   0.106007  -0.124903   0.999987
 Hirshfeld charges and spin densities with hydrogens summed into heavy atoms:
              Q-H        S-H       Q-CM5   
     1  C    0.049461   0.010681   0.073439
     2  C    0.101143   0.006687   0.091064
     3  C    0.057710   0.013540   0.081367
     4  C    0.060380   0.001082   0.079984
     5  O   -0.098086   0.036517  -0.168984
     6  C    0.259436  -0.004523   0.385250
     7  O   -0.183867   0.116882  -0.234305
     8  N    0.287233   0.481201   0.134459
     9  C    0.250639   0.074611   0.355673
    10  C    0.261230   0.047136   0.314902
    11  O   -0.139426   0.180272  -0.190222
    12  O    0.094134   0.035913   0.077360
 
 EQQ= 0.759154018189E-01 EQD=-0.648291074367E-01 EDD= 0.638745462815E-02
 EQQ+QD+DD= 0.174737490103E-01
 
                          Isotropic Fermi Contact Couplings
        Atom                 a.u.       MegaHertz       Gauss      10(-4) cm-1
     1  C(13)              0.00480       5.39449       1.92489       1.79941
     2  C(13)             -0.00180      -2.01861      -0.72029      -0.67334
     3  C(13)              0.00576       6.48042       2.31238       2.16164
     4  C(13)              0.00028       0.31540       0.11254       0.10521
     5  O(17)              0.00388      -2.35074      -0.83880      -0.78412
     6  C(13)             -0.03550     -39.90482     -14.23903     -13.31082
     7  O(17)              0.01946     -11.79843      -4.20997      -3.93553
     8  N(14)              0.12313      39.78519      14.19635      13.27091
     9  C(13)             -0.03496     -39.30082     -14.02351     -13.10934
    10  C(13)              0.04821      54.19613      19.33853      18.07788
    11  O(17)              0.02937     -17.80619      -6.35369      -5.93951
    12  O(17)             -0.00698       4.23397       1.51079       1.41230
    13  H(1)               0.00083       3.69681       1.31912       1.23312
    14  H(1)              -0.00015      -0.66435      -0.23706      -0.22160
    15  H(1)              -0.00008      -0.33820      -0.12068      -0.11281
    16  H(1)               0.00024       1.05058       0.37487       0.35044
    17  H(1)               0.00171       7.64562       2.72815       2.55031
    18  H(1)               0.00099       4.44676       1.58671       1.48328
    19  H(1)               0.00009       0.38235       0.13643       0.12754
    20  H(1)               0.00003       0.11421       0.04075       0.03810
    21  H(1)               0.00000       0.00480       0.00171       0.00160
    22  H(1)              -0.01010     -45.16808     -16.11709     -15.06645
    23  H(1)               0.00389      17.37143       6.19856       5.79449
    24  H(1)               0.01186      53.01708      18.91781      17.68460
    25  H(1)              -0.00055      -2.47835      -0.88434      -0.82669
 --------------------------------------------------------
       Center         ----  Spin Dipole Couplings  ----
                      3XX-RR        3YY-RR        3ZZ-RR
 --------------------------------------------------------
     1   Atom       -0.007062      0.014603     -0.007541
     2   Atom       -0.000223      0.009980     -0.009758
     3   Atom        0.013091     -0.005663     -0.007428
     4   Atom        0.002874     -0.002117     -0.000757
     5   Atom       -0.020670      0.134393     -0.113723
     6   Atom        0.025418     -0.064536      0.039118
     7   Atom        0.084225      0.127575     -0.211800
     8   Atom       -0.606898      1.297006     -0.690108
     9   Atom       -0.019362      0.076103     -0.056741
    10   Atom        0.002716      0.053758     -0.056474
    11   Atom       -0.435233      0.845522     -0.410290
    12   Atom        0.036484     -0.008449     -0.028035
    13   Atom        0.001797     -0.000239     -0.001559
    14   Atom        0.000496      0.000597     -0.001094
    15   Atom       -0.000188      0.001726     -0.001538
    16   Atom        0.002011     -0.000317     -0.001694
    17   Atom        0.002174     -0.000913     -0.001261
    18   Atom        0.002302     -0.003712      0.001410
    19   Atom        0.002185     -0.001373     -0.000812
    20   Atom        0.001171     -0.000780     -0.000392
    21   Atom        0.001522     -0.000756     -0.000767
    22   Atom       -0.057430     -0.020314      0.077744
    23   Atom        0.009656     -0.005831     -0.003825
    24   Atom       -0.001183     -0.008441      0.009625
    25   Atom       -0.002077      0.009762     -0.007685
 --------------------------------------------------------
                        XY            XZ            YZ
 --------------------------------------------------------
     1   Atom        0.004966      0.001297      0.007757
     2   Atom       -0.008501      0.000727     -0.000472
     3   Atom       -0.009622      0.005922     -0.002801
     4   Atom        0.000938     -0.002117     -0.000188
     5   Atom       -0.131259     -0.004537      0.024072
     6   Atom        0.042701      0.007787      0.034762
     7   Atom       -0.411700      0.147182     -0.151756
     8   Atom       -0.454845      0.024690     -0.103470
     9   Atom       -0.050503     -0.007684     -0.001584
    10   Atom       -0.080250     -0.033001      0.027928
    11   Atom       -0.109553      0.041489     -0.046628
    12   Atom        0.103839     -0.129261     -0.091595
    13   Atom        0.001711      0.001032      0.000567
    14   Atom        0.002554      0.000192      0.002016
    15   Atom        0.001723      0.000598     -0.000660
    16   Atom       -0.001239      0.001329      0.000419
    17   Atom        0.000993      0.001637      0.000531
    18   Atom        0.000033      0.001172     -0.001057
    19   Atom        0.000001     -0.001219      0.000183
    20   Atom        0.001282     -0.001308     -0.000719
    21   Atom        0.000708     -0.000438     -0.000083
    22   Atom       -0.009251     -0.021520     -0.008023
    23   Atom        0.004967      0.005921      0.003765
    24   Atom        0.001566     -0.007883     -0.004605
    25   Atom       -0.004124     -0.004548     -0.000726
 --------------------------------------------------------


 ---------------------------------------------------------------------------------
              Anisotropic Spin Dipole Couplings in Principal Axis System
 ---------------------------------------------------------------------------------

       Atom             a.u.   MegaHertz   Gauss  10(-4) cm-1        Axes

              Baa    -0.0100    -1.345    -0.480    -0.449  0.1281 -0.3214  0.9382
     1 C(13)  Bbb    -0.0081    -1.083    -0.387    -0.361  0.9714 -0.1498 -0.1840
              Bcc     0.0181     2.428     0.866     0.810  0.1997  0.9350  0.2930
 
              Baa    -0.0098    -1.317    -0.470    -0.439 -0.0880 -0.0140  0.9960
     2 C(13)  Bbb    -0.0050    -0.671    -0.240    -0.224  0.8656  0.4938  0.0834
              Bcc     0.0148     1.988     0.709     0.663 -0.4930  0.8695 -0.0313
 
              Baa    -0.0098    -1.318    -0.470    -0.440  0.2924  0.8982  0.3282
     3 C(13)  Bbb    -0.0090    -1.203    -0.429    -0.401 -0.3421 -0.2222  0.9130
              Bcc     0.0188     2.521     0.899     0.841  0.8930 -0.3792  0.2423
 
              Baa    -0.0023    -0.314    -0.112    -0.105 -0.2689  0.9302 -0.2497
     4 C(13)  Bbb    -0.0017    -0.222    -0.079    -0.074  0.3416  0.3345  0.8783
              Bcc     0.0040     0.535     0.191     0.179  0.9006  0.1508 -0.4077
 
              Baa    -0.1182     8.552     3.052     2.853 -0.2559 -0.2227  0.9407
     5 O(17)  Bbb    -0.0928     6.713     2.395     2.239  0.8316  0.4454  0.3317
              Bcc     0.2110   -15.265    -5.447    -5.092 -0.4928  0.8672  0.0712
 
              Baa    -0.0885   -11.878    -4.238    -3.962 -0.3278  0.9164 -0.2296
     6 C(13)  Bbb     0.0246     3.301     1.178     1.101  0.7501  0.1047 -0.6530
              Bcc     0.0639     8.577     3.061     2.861  0.5744  0.3862  0.7217
 
              Baa    -0.3065    22.178     7.914     7.398  0.7343  0.6764 -0.0573
     7 O(17)  Bbb    -0.2685    19.426     6.932     6.480 -0.1354  0.2287  0.9640
              Bcc     0.5750   -41.604   -14.845   -13.878 -0.6652  0.7001 -0.2595
 
              Baa    -0.7101   -27.386    -9.772    -9.135  0.9729  0.2162 -0.0825
     8 N(14)  Bbb    -0.6954   -26.820    -9.570    -8.946  0.0694  0.0675  0.9953
              Bcc     1.4055    54.206    19.342    18.081 -0.2208  0.9740 -0.0507
 
              Baa    -0.0599    -8.038    -2.868    -2.681  0.3515  0.1413  0.9255
     9 C(13)  Bbb    -0.0380    -5.096    -1.818    -1.700  0.8483  0.3703 -0.3786
              Bcc     0.0979    13.134     4.687     4.381 -0.3962  0.9181  0.0103
 
              Baa    -0.0723    -9.706    -3.463    -3.238  0.5299  0.1525  0.8343
    10 C(13)  Bbb    -0.0500    -6.713    -2.395    -2.239  0.6139  0.6097 -0.5014
              Bcc     0.1224    16.419     5.859     5.477 -0.5851  0.7779  0.2294
 
              Baa    -0.4691    33.944    12.112    11.322  0.8344  0.0501 -0.5489
    11 O(17)  Bbb    -0.3877    28.053    10.010     9.358  0.5445  0.0799  0.8349
              Bcc     0.8568   -61.997   -22.122   -20.680 -0.0857  0.9955 -0.0394
 
              Baa    -0.1304     9.432     3.366     3.146  0.5400  0.1607  0.8261
    12 O(17)  Bbb    -0.0905     6.548     2.336     2.184 -0.5130  0.8410  0.1717
              Bcc     0.2208   -15.980    -5.702    -5.330  0.6672  0.5165 -0.5367
 
              Baa    -0.0019    -0.992    -0.354    -0.331 -0.2269 -0.0994  0.9688
    13 H(1)   Bbb    -0.0012    -0.646    -0.231    -0.216 -0.4878  0.8726 -0.0247
              Bcc     0.0031     1.638     0.584     0.546  0.8429  0.4783  0.2465
 
              Baa    -0.0031    -1.628    -0.581    -0.543 -0.4333  0.6489 -0.6255
    14 H(1)   Bbb    -0.0006    -0.323    -0.115    -0.108 -0.6679  0.2349  0.7062
              Bcc     0.0037     1.951     0.696     0.651  0.6052  0.7238  0.3316
 
              Baa    -0.0022    -1.198    -0.427    -0.400 -0.5231  0.3558  0.7745
    15 H(1)   Bbb    -0.0005    -0.273    -0.097    -0.091  0.6944 -0.3489  0.6293
              Bcc     0.0028     1.471     0.525     0.491  0.4941  0.8670 -0.0645
 
              Baa    -0.0024    -1.302    -0.465    -0.434 -0.3600 -0.3782  0.8528
    16 H(1)   Bbb    -0.0004    -0.195    -0.070    -0.065  0.1913  0.8648  0.4643
              Bcc     0.0028     1.498     0.534     0.500  0.9131 -0.3303  0.2390
 
              Baa    -0.0019    -1.033    -0.369    -0.345 -0.3312 -0.1611  0.9297
    17 H(1)   Bbb    -0.0012    -0.642    -0.229    -0.214 -0.3064  0.9503  0.0555
              Bcc     0.0031     1.675     0.598     0.559  0.8924  0.2665  0.3641
 
              Baa    -0.0039    -2.098    -0.749    -0.700 -0.0434  0.9782  0.2031
    18 H(1)   Bbb     0.0008     0.412     0.147     0.138 -0.5948 -0.1886  0.7814
              Bcc     0.0032     1.686     0.602     0.562  0.8027 -0.0869  0.5901
 
              Baa    -0.0015    -0.797    -0.284    -0.266 -0.1798  0.8209 -0.5420
    19 H(1)   Bbb    -0.0011    -0.600    -0.214    -0.200  0.2836  0.5708  0.7705
              Bcc     0.0026     1.397     0.499     0.466  0.9419 -0.0151 -0.3355
 
              Baa    -0.0014    -0.761    -0.272    -0.254 -0.3617  0.9151  0.1784
    20 H(1)   Bbb    -0.0011    -0.605    -0.216    -0.202  0.4846  0.0211  0.8745
              Bcc     0.0026     1.366     0.487     0.456  0.7964  0.4027 -0.4511
 
              Baa    -0.0010    -0.518    -0.185    -0.173 -0.3087  0.9042 -0.2950
    21 H(1)   Bbb    -0.0008    -0.443    -0.158    -0.148  0.0752  0.3324  0.9401
              Bcc     0.0018     0.961     0.343     0.321  0.9482  0.2681 -0.1706
 
              Baa    -0.0633   -33.771   -12.050   -11.265  0.9585  0.2361  0.1597
    22 H(1)   Bbb    -0.0182    -9.717    -3.467    -3.241 -0.2433  0.9696  0.0265
              Bcc     0.0815    43.488    15.518    14.506 -0.1486 -0.0643  0.9868
 
              Baa    -0.0087    -4.660    -1.663    -1.555 -0.0307  0.8106 -0.5847
    23 H(1)   Bbb    -0.0050    -2.664    -0.951    -0.889 -0.4652  0.5062  0.7262
              Bcc     0.0137     7.324     2.614     2.443  0.8847  0.2943  0.3616
 
              Baa    -0.0096    -5.105    -1.821    -1.703  0.0610  0.9646  0.2565
    24 H(1)   Bbb    -0.0052    -2.778    -0.991    -0.927  0.8911 -0.1684  0.4213
              Bcc     0.0148     7.882     2.813     2.629 -0.4496 -0.2029  0.8699
 
              Baa    -0.0106    -5.647    -2.015    -1.884  0.5173  0.1350  0.8451
    25 H(1)   Bbb    -0.0005    -0.266    -0.095    -0.089  0.7973  0.2827 -0.5332
              Bcc     0.0111     5.913     2.110     1.972 -0.3109  0.9496  0.0386
 

 ---------------------------------------------------------------------------------

 Running external command "gaunbo6 R"
         input file       "/tmp/Gau-1606207.EIn"
         output file      "/tmp/Gau-1606207.EOu"
         message file     "/tmp/Gau-1606207.EMs"
         fchk file        "/tmp/Gau-1606207.EFC"
         mat. el file     "/tmp/Gau-1606207.EUF"

 Writing WrtUnf unformatted file "/tmp/Gau-1606207.EUF"
 Gaussian matrix elements                                         Version   2 NLab=11 Len12L=8 Len4L=8
 Write SHELL TO ATOM MAP                   from file      0 offset           0 length                 184 to matrix element file.
 Write SHELL TYPES                         from file      0 offset           0 length                 184 to matrix element file.
 Write NUMBER OF PRIMITIVES PER SHELL      from file      0 offset           0 length                 184 to matrix element file.
 Write PRIMITIVE EXPONENTS                 from file      0 offset           0 length                 318 to matrix element file.
 Write CONTRACTION COEFFICIENTS            from file      0 offset           0 length                 318 to matrix element file.
 Write P(S=P) CONTRACTION COEFFICIENTS     from file      0 offset           0 length                 318 to matrix element file.
 Write COORDINATES OF EACH SHELL           from file      0 offset           0 length                 552 to matrix element file.
 Write BONDS PER ATOM                      from file      0 offset           0 length                  25 to matrix element file.
 Write BONDED ATOMS                        from file      0 offset           0 length                  48 to matrix element file.
 Write BOND TYPES                          from file      0 offset           0 length                  48 to matrix element file.
 Write ONIOM CHARGE/MULT                   from file      0 offset           0 length                  32 to matrix element file.
 Write ONIOM ATOM LAYERS                   from file      0 offset           0 length                  25 to matrix element file.
 Write ONIOM ATOM MODIFIERS                from file      0 offset           0 length                  25 to matrix element file.
 Write ONIOM ATOM TYPES                    from file      0 offset           0 length                  25 to matrix element file.
 Write ONIOM LINK ATOMS                    from file      0 offset           0 length                  25 to matrix element file.
 Write ONIOM LINK CHARGES                  from file      0 offset           0 length                  25 to matrix element file.
 Write ONIOM LINK DISTANCES                from file      0 offset           0 length                 100 to matrix element file.
 Write SYMINF INTS                         from file      0 offset           0 length                  26 to matrix element file.
 Write ROTTR TO SO                         from file      0 offset           0 length                  12 to matrix element file.
 Write GAUSSIAN SCALARS                    from file    501 offset           0 to matrix element file.
 Write OPTIMIZATION FLAGS                  from file      0 offset           0 length                  25 to matrix element file.
 Write INTEGER ISO                         from file      0 offset           0 length                  25 to matrix element file.
 Write INTEGER SPIN                        from file      0 offset           0 length                  25 to matrix element file.
 Write REAL ZEFFECTIVE                     from file      0 offset           0 length                  25 to matrix element file.
 Write REAL QUADRUPOLEMOMENT               from file      0 offset           0 length                  25 to matrix element file.
 Write REAL GFACTOR                        from file      0 offset           0 length                  25 to matrix element file.
 Write REAL ZNUCLEAR                       from file      0 offset           0 length                  25 to matrix element file.
 Write MULLIKEN CHARGES                    from file      0 offset           0 length                  25 to matrix element file.
 Write TYPE 6 CHARGES                      from file      0 offset           0 length                  25 to matrix element file.
 Write TYPE 7 CHARGES                      from file      0 offset           0 length                  25 to matrix element file.
 Write NUCLEAR GRADIENT                    from file  10584 offset           0 length                  75 to matrix element file.
 Array NUCLEAR FORCE CONSTANTS              on  file  10585 does not exist.
 Write ELECTRIC DIPOLE MOMENT              from file      0 offset           0 length                   3 to matrix element file.
 Write NON-ADIABATIC COUPLING              from file  10810 offset           0 length                  75 to matrix element file.
 Write FINITE EM FIELD                     from file  10521 offset           0 length                  35 to matrix element file.
 Write OVERLAP                             from file  10514 offset           0 length              101475 to matrix element file.
 Write CORE HAMILTONIAN ALPHA              from file  10515 offset           0 length              101475 to matrix element file.
 Write CORE HAMILTONIAN BETA               from file  10515 offset      101475 length              101475 to matrix element file.
 Write KINETIC ENERGY                      from file  10516 offset           0 length              101475 to matrix element file.
 Write ORTHOGONAL BASIS                    from file  10685 offset           0 length              202500 to matrix element file.
 Write DIPOLE INTEGRALS                    from file  10518 offset           0 length              304425 to matrix element file.
 Array DIP VEL INTEGRALS                    on  file  10572 does not exist.
[...]
  134. RY ( 9) C  3             0.00002     2.13087
  135. RY (10) C  3             0.00001     2.04390
  136. RY (11) C  3             0.00001     2.19784
  137. RY (12) C  3             0.00000     2.16344
  138. RY (13) C  3             0.00000     2.56204
  139. RY (14) C  3             0.00000     3.19144
  140. RY (15) C  3             0.00000     3.22760
  141. RY (16) C  3             0.00000     3.03443
  142. RY (17) C  3             0.00000     7.34628
  143. RY (18) C  3             0.00000    11.47481
  144. RY (19) C  3             0.00000     3.62025
  145. RY (20) C  3             0.00000     3.80201
  146. RY (21) C  3             0.00000     3.53537
  147. RY (22) C  3             0.00000     3.19260
  148. RY (23) C  3             0.00000     3.90137
  149. RY (24) C  3             0.00000     1.77622
  150. RY (25) C  3             0.00000     3.81100
  151. RY (26) C  3             0.00000     3.61418
  152. RY ( 1) C  4             0.00074     0.92823
  153. RY ( 2) C  4             0.00062     0.92704
  154. RY ( 3) C  4             0.00016     1.82488
  155. RY ( 4) C  4             0.00008     1.25401
  156. RY ( 5) C  4             0.00006     1.39621
  157. RY ( 6) C  4             0.00004     1.68106
  158. RY ( 7) C  4             0.00003     1.72443
  159. RY ( 8) C  4             0.00002     2.07858
  160. RY ( 9) C  4             0.00001     2.10330
  161. RY (10) C  4             0.00001     2.06700
  162. RY (11) C  4             0.00001     2.23853
  163. RY (12) C  4             0.00000     2.57074
  164. RY (13) C  4             0.00000     4.05920
  165. RY (14) C  4             0.00000     3.48478
  166. RY (15) C  4             0.00000     4.29954
  167. RY (16) C  4             0.00000     9.13423
  168. RY (17) C  4             0.00000     4.69216
  169. RY (18) C  4             0.00000     2.97183
  170. RY (19) C  4             0.00000     3.66173
  171. RY (20) C  4             0.00000     2.74958
  172. RY (21) C  4             0.00000     2.78123
  173. RY (22) C  4             0.00000     3.15948
  174. RY (23) C  4             0.00000     3.17563
  175. RY (24) C  4             0.00000     3.21024
  176. RY (25) C  4             0.00000     7.78689
  177. RY (26) C  4             0.00000     2.12207
  178. RY ( 1) O  5             0.00208     0.62411
  179. RY ( 2) O  5             0.00168     0.74372
  180. RY ( 3) O  5             0.00062     1.44907
  181. RY ( 4) O  5             0.00046     2.83676
  182. RY ( 5) O  5             0.00009     2.86989
  183. RY ( 6) O  5             0.00008     2.84033
  184. RY ( 7) O  5             0.00004     1.97825
  185. RY ( 8) O  5             0.00002     3.14791
  186. RY ( 9) O  5             0.00002     4.23809
  187. RY (10) O  5             0.00002     4.67326
  188. RY (11) O  5             0.00002     4.21131
  189. RY (12) O  5             0.00001     4.12260
  190. RY (13) O  5             0.00000     5.07302
  191. RY (14) O  5             0.00000     3.79607
  192. RY (15) O  5             0.00000     4.56434
  193. RY (16) O  5             0.00000     4.81651
  194. RY (17) O  5             0.00000    14.99477
  195. RY (18) O  5             0.00000     5.41891
  196. RY (19) O  5             0.00000    17.72329
  197. RY (20) O  5             0.00000     5.91697
  198. RY (21) O  5             0.00000     9.16639
  199. RY (22) O  5             0.00000    12.48822
  200. RY (23) O  5             0.00000     5.35612
  201. RY (24) O  5             0.00000     6.14534
  202. RY (25) O  5             0.00000     6.47391
  203. RY (26) O  5             0.00000     5.93973
  204. RY ( 1) C  6             0.00867     1.15421
  205. RY ( 2) C  6             0.00284     1.91214
  206. RY ( 3) C  6             0.00270     1.82675
  207. RY ( 4) C  6             0.00122     2.47393
  208. RY ( 5) C  6             0.00062     2.00662
  209. RY ( 6) C  6             0.00044     1.32831
  210. RY ( 7) C  6             0.00037     1.97462
  211. RY ( 8) C  6             0.00030     1.80772
  212. RY ( 9) C  6             0.00014     1.07290
  213. RY (10) C  6             0.00006     1.54772
  214. RY (11) C  6             0.00005     2.14087
  215. RY (12) C  6             0.00004     2.03531
  216. RY (13) C  6             0.00004     1.61902
  217. RY (14) C  6             0.00002     2.65956
  218. RY (15) C  6             0.00002     2.39868
  219. RY (16) C  6             0.00001     3.45462
  220. RY (17) C  6             0.00001     2.96515
  221. RY (18) C  6             0.00000     3.26425
  222. RY (19) C  6             0.00000     3.80076
  223. RY (20) C  6             0.00000     3.77443
  224. RY (21) C  6             0.00000     3.72371
  225. RY (22) C  6             0.00000     3.91316
  226. RY (23) C  6             0.00000     7.01791
  227. RY (24) C  6             0.00000    10.19864
  228. RY (25) C  6             0.00000     4.04238
  229. RY (26) C  6             0.00000     7.35160
  230. RY ( 1) O  7             0.00081     0.80786
  231. RY ( 2) O  7             0.00053     0.86142
  232. RY ( 3) O  7             0.00009     1.35338
  233. RY ( 4) O  7             0.00008     1.52768
  234. RY ( 5) O  7             0.00005     3.83692
  235. RY ( 6) O  7             0.00005     1.85844
  236. RY ( 7) O  7             0.00003     1.36137
  237. RY ( 8) O  7             0.00001     3.77660
  238. RY ( 9) O  7             0.00001     5.51251
  239. RY (10) O  7             0.00001     3.37688
  240. RY (11) O  7             0.00000     2.91731
  241. RY (12) O  7             0.00000     3.43230
  242. RY (13) O  7             0.00000     6.01603
  243. RY (14) O  7             0.00000     5.97931
  244. RY (15) O  7             0.00000     6.33148
  245. RY (16) O  7             0.00000     3.42487
  246. RY (17) O  7             0.00000    16.27017
  247. RY (18) O  7             0.00000     7.15203
  248. RY (19) O  7             0.00000     6.74706
  249. RY (20) O  7             0.00000     4.19328
  250. RY (21) O  7             0.00000     5.43672
  251. RY (22) O  7             0.00000    10.92819
  252. RY (23) O  7             0.00000     6.92522
  253. RY (24) O  7             0.00000     5.61670
  254. RY (25) O  7             0.00000    17.45391
  255. RY (26) O  7             0.00000     5.48755
  256. RY ( 1) N  8             0.00152     0.63571
  257. RY ( 2) N  8             0.00114     0.77828
  258. RY ( 3) N  8             0.00080     1.44448
  259. RY ( 4) N  8             0.00035     1.52181
  260. RY ( 5) N  8             0.00024     1.59151
  261. RY ( 6) N  8             0.00021     2.25819
  262. RY ( 7) N  8             0.00011     2.59209
  263. RY ( 8) N  8             0.00007     2.91889
  264. RY ( 9) N  8             0.00003     3.33691
  265. RY (10) N  8             0.00002     3.42059
  266. RY (11) N  8             0.00001     2.91000
  267. RY (12) N  8             0.00001     3.28335
  268. RY (13) N  8             0.00001     3.34674
  269. RY (14) N  8             0.00000     2.67050
  270. RY (15) N  8             0.00000     3.39483
  271. RY (16) N  8             0.00000     3.44731
  272. RY (17) N  8             0.00000     3.86293
  273. RY (18) N  8             0.00000     8.92724
  274. RY (19) N  8             0.00000    16.33244
  275. RY (20) N  8             0.00000     4.76300
  276. RY (21) N  8             0.00000     4.28838
  277. RY (22) N  8             0.00000     4.63374
  278. RY (23) N  8             0.00000     7.36267
  279. RY (24) N  8             0.00000     4.61502
  280. RY (25) N  8             0.00000     5.95848
  281. RY (26) N  8             0.00000     5.05854
  282. RY ( 1) C  9             0.00151     1.12204
  283. RY ( 2) C  9             0.00106     0.98388
  284. RY ( 3) C  9             0.00058     1.33165
  285. RY ( 4) C  9             0.00040     0.71854
  286. RY ( 5) C  9             0.00021     1.20333
  287. RY ( 6) C  9             0.00019     1.04825
  288. RY ( 7) C  9             0.00011     1.90568
  289. RY ( 8) C  9             0.00009     2.01991
  290. RY ( 9) C  9             0.00007     2.55078
  291. RY (10) C  9             0.00004     1.94204
  292. RY (11) C  9             0.00004     1.54368
  293. RY (12) C  9             0.00001     1.77190
  294. RY (13) C  9             0.00001     2.98121
  295. RY (14) C  9             0.00001     2.79258
  296. RY (15) C  9             0.00000     3.25792
  297. RY (16) C  9             0.00000     2.71705
  298. RY (17) C  9             0.00000     2.97692
  299. RY (18) C  9             0.00000     5.51129
  300. RY (19) C  9             0.00000     4.33556
  301. RY (20) C  9             0.00000     3.24886
  302. RY (21) C  9             0.00000     7.79323
  303. RY (22) C  9             0.00000     3.44672
  304. RY (23) C  9             0.00000     2.63867
  305. RY (24) C  9             0.00000     6.38040
  306. RY (25) C  9             0.00000     7.08475
  307. RY (26) C  9             0.00000     4.56783
  308. RY ( 1) C 10             0.00836     1.04725
  309. RY ( 2) C 10             0.00268     1.54681
  310. RY ( 3) C 10             0.00201     1.79686
  311. RY ( 4) C 10             0.00113     2.05028
  312. RY ( 5) C 10             0.00034     1.49357
  313. RY ( 6) C 10             0.00030     3.02969
  314. RY ( 7) C 10             0.00011     1.38700
  315. RY ( 8) C 10             0.00004     2.22081
  316. RY ( 9) C 10             0.00003     2.22472
  317. RY (10) C 10             0.00001     2.56367
  318. RY (11) C 10             0.00001     1.36720
  319. RY (12) C 10             0.00001     2.85658
  320. RY (13) C 10             0.00000     2.40304
  321. RY (14) C 10             0.00000     1.46183
  322. RY (15) C 10             0.00000     2.28575
  323. RY (16) C 10             0.00000     2.13681
  324. RY (17) C 10             0.00000     2.76840
  325. RY (18) C 10             0.00000     7.48680
  326. RY (19) C 10             0.00000    10.35200
  327. RY (20) C 10             0.00000     4.08041
  328. RY (21) C 10             0.00000     3.12935
  329. RY (22) C 10             0.00000     3.95509
  330. RY (23) C 10             0.00000     3.20320
  331. RY (24) C 10             0.00000     4.87208
  332. RY (25) C 10             0.00000     3.14950
  333. RY (26) C 10             0.00000     2.55765
  334. RY ( 1) O 11             0.00106     0.76254
  335. RY ( 2) O 11             0.00041     0.84914
  336. RY ( 3) O 11             0.00007     2.28532
  337. RY ( 4) O 11             0.00005     1.66755
  338. RY ( 5) O 11             0.00003     1.46742
  339. RY ( 6) O 11             0.00001     2.22030
  340. RY ( 7) O 11             0.00001     2.52036
  341. RY ( 8) O 11             0.00000     2.40364
  342. RY ( 9) O 11             0.00000     2.12650
  343. RY (10) O 11             0.00000     5.65415
  344. RY (11) O 11             0.00000     4.18789
  345. RY (12) O 11             0.00000     5.78844
  346. RY (13) O 11             0.00000     9.59996
  347. RY (14) O 11             0.00000     6.63759
  348. RY (15) O 11             0.00000     6.72175
  349. RY (16) O 11             0.00000     4.90183
  350. RY (17) O 11             0.00000     7.73216
  351. RY (18) O 11             0.00000     2.28063
  352. RY (19) O 11             0.00000     9.31124
  353. RY (20) O 11             0.00000     7.12434
  354. RY (21) O 11             0.00000     9.96168
  355. RY (22) O 11             0.00000     6.97355
  356. RY (23) O 11             0.00000    10.17031
  357. RY (24) O 11             0.00000     3.43323
  358. RY (25) O 11             0.00000     5.63903
  359. RY (26) O 11             0.00000    15.07687
  360. RY ( 1) O 12             0.00058     0.75562
  361. RY ( 2) O 12             0.00049     1.09982
  362. RY ( 3) O 12             0.00028     2.14009
  363. RY ( 4) O 12             0.00006     1.09661
  364. RY ( 5) O 12             0.00003     1.70014
  365. RY ( 6) O 12             0.00002     3.03709
  366. RY ( 7) O 12             0.00001     2.52414
  367. RY ( 8) O 12             0.00000     2.99356
  368. RY ( 9) O 12             0.00000     2.64080
  369. RY (10) O 12             0.00000     3.53964
  370. RY (11) O 12             0.00000     9.63086
  371. RY (12) O 12             0.00000     5.90527
  372. RY (13) O 12             0.00000     3.65314
  373. RY (14) O 12             0.00000     4.01809
  374. RY (15) O 12             0.00000     5.64334
  375. RY (16) O 12             0.00000     6.50763
  376. RY (17) O 12             0.00000     6.46551
  377. RY (18) O 12             0.00000     4.16641
  378. RY (19) O 12             0.00000     8.33417
  379. RY (20) O 12             0.00000     6.53632
  380. RY (21) O 12             0.00000    18.67031
  381. RY (22) O 12             0.00000     5.32825
  382. RY (23) O 12             0.00000    11.80938
  383. RY (24) O 12             0.00000     6.67685
  384. RY (25) O 12             0.00000     4.68034
  385. RY (26) O 12             0.00000     7.38967
  386. RY ( 1) H 13             0.00006     1.16573
  387. RY ( 2) H 13             0.00003     1.97649
  388. RY ( 3) H 13             0.00001     2.03557
  389. RY ( 4) H 13             0.00001     2.08930
  390. RY ( 5) H 13             0.00000     1.99942
  391. RY ( 1) H 14             0.00020     0.76525
  392. RY ( 2) H 14             0.00003     2.09713
  393. RY ( 3) H 14             0.00002     2.22937
  394. RY ( 4) H 14             0.00001     2.14356
  395. RY ( 5) H 14             0.00000     2.20106
  396. RY ( 1) H 15             0.00021     0.72017
  397. RY ( 2) H 15             0.00003     2.08122
  398. RY ( 3) H 15             0.00001     2.19884
  399. RY ( 4) H 15             0.00001     2.06607
  400. RY ( 5) H 15             0.00000     2.26796
  401. RY ( 1) H 16             0.00020     0.74258
  402. RY ( 2) H 16             0.00003     2.08266
  403. RY ( 3) H 16             0.00001     2.20351
  404. RY ( 4) H 16             0.00001     2.07373
  405. RY ( 5) H 16             0.00000     2.23589
  406. RY ( 1) H 17             0.00006     1.23232
  407. RY ( 2) H 17             0.00003     1.92516
  408. RY ( 3) H 17             0.00001     2.03697
  409. RY ( 4) H 17             0.00001     2.06427
  410. RY ( 5) H 17             0.00000     2.01699
  411. RY ( 1) H 18             0.00020     0.77634
  412. RY ( 2) H 18             0.00003     2.09097
  413. RY ( 3) H 18             0.00002     2.22071
  414. RY ( 4) H 18             0.00001     2.15846
  415. RY ( 5) H 18             0.00000     2.19589
  416. RY ( 1) H 19             0.00018     0.79184
  417. RY ( 2) H 19             0.00002     2.11120
  418. RY ( 3) H 19             0.00001     2.14632
  419. RY ( 4) H 19             0.00001     2.08339
  420. RY ( 5) H 19             0.00000     2.22327
  421. RY ( 1) H 20             0.00019     0.78615
  422. RY ( 2) H 20             0.00002     2.11515
  423. RY ( 3) H 20             0.00001     2.14377
  424. RY ( 4) H 20             0.00001     2.08504
  425. RY ( 5) H 20             0.00000     2.22429
  426. RY ( 1) H 21             0.00005     1.14442
  427. RY ( 2) H 21             0.00003     1.96444
  428. RY ( 3) H 21             0.00001     2.04640
  429. RY ( 4) H 21             0.00001     2.03687
  430. RY ( 5) H 21             0.00000     2.10067
  431. RY ( 1) H 22             0.00019     0.85305
  432. RY ( 2) H 22             0.00009     1.54176
  433. RY ( 3) H 22             0.00005     1.99608
  434. RY ( 4) H 22             0.00002     2.16813
  435. RY ( 5) H 22             0.00001     2.91486
  436. RY ( 1) H 23             0.00012     0.72802
  437. RY ( 2) H 23             0.00003     2.09120
  438. RY ( 3) H 23             0.00002     2.15970
  439. RY ( 4) H 23             0.00001     2.02955
  440. RY ( 5) H 23             0.00000     2.07619
  441. RY ( 1) H 24             0.00025     0.76514
  442. RY ( 2) H 24             0.00003     2.07532
  443. RY ( 3) H 24             0.00002     2.11883
  444. RY ( 4) H 24             0.00001     2.29526
  445. RY ( 5) H 24             0.00000     1.83834
  446. RY ( 1) H 25             0.00037     0.99183
  447. RY ( 2) H 25             0.00028     1.79988
  448. RY ( 3) H 25             0.00024     1.33725
  449. RY ( 4) H 25             0.00006     1.94381
  450. RY ( 5) H 25             0.00000     3.02816
          -------------------------------
                 Total Lewis   45.10222  ( 98.0483%)
           Valence non-Lewis    0.83241  (  1.8096%)
           Rydberg non-Lewis    0.06537  (  0.1421%)
          -------------------------------
               Total unit  1   46.00000  (100.0000%)
              Charge unit  1    1.00000

 $CHOOSE
  ALPHA
   LONE 5 2 7 2 8 1 11 2 12 2 END
   BOND S 1 2 S 1 13 S 1 14 S 1 15 S 2 3 S 2 4 S 2 5 S 3 16 S 3 17 S 3 18
        S 4 19 S 4 20 S 4 21 S 5 6 D 6 7 S 6 8 S 8 9 S 8 22 S 9 10 S 9 23
        S 9 24 D 10 11 S 10 12 S 12 25 END
  END
  BETA
   LONE 5 2 7 2 11 1 12 2 END
   BOND S 1 2 S 1 13 S 1 14 S 1 15 S 2 3 S 2 4 S 2 5 S 3 16 S 3 17 S 3 18
        S 4 19 S 4 20 S 4 21 S 5 6 D 6 7 S 6 8 S 8 9 S 8 11 S 8 22 S 9 10
        S 9 23 S 9 24 D 10 11 S 10 12 S 12 25 END
  END
 $END

 NBO analysis completed in 9.49 CPU seconds (9 wall seconds)
 Maximum scratch memory used by NBO was 2165414 words (16.52 MB)
 Maximum scratch memory used by G16NBO was 415929 words (3.17 MB)

 Opening RunExU unformatted file "/tmp/Gau-1606207.EUF"
 Read unf file /tmp/Gau-1606207.EUF:
 Label Gaussian matrix elements                                         IVers= 2 NLab= 2 Version=AS64L-G16RevC.01
 Title Ac2_rdkit_conf_1_SP_charge_p                                    
 NAtoms=    25 NBasis=   450 NBsUse=   450 ICharg=     1 Multip=     2 NE=    93 Len12L=8 Len4L=8 IOpCl= 1 ICGU=112
 GAUSSIAN SCALARS                    NI= 1 NR= 1 NTot=       1 LenBuf=    2 NRI=1 N=    1000
 NPA CHARGES                         NI= 0 NR= 1 NTot=      25 LenBuf= 2048 NRI=1 N=      25
 Recovered energy= -629.908754814     dipole=     -1.149008989499     -0.484700399137     -1.337155223336
 Unable to Open any file for archive entry.
 1\1\GINC-NODE16\SP\UM062X\def2TZVP\C7H13N1O4(1+,2)\SVSS\29-Jan-2024\0\
 \# pop=(nbo6, hirshfeld) m062x/def2tzvp\\Ac2_rdkit_conf_1_SP_charge_p\
 \1,2\C,0,2.053957,1.557221,0.532157\C,0,2.335022,0.161885,-0.008472\C,
 0,2.821563,-0.78873,1.076335\C,0,3.335887,0.224162,-1.151737\O,0,1.142
 898,-0.375709,-0.651047\C,0,0.020673,-0.563173,0.0519\O,0,-0.135927,-0
 .34947,1.229699\N,0,-0.96193,-1.067315,-0.754312\C,0,-2.304023,-1.0936
 24,-0.246375\C,0,-2.949429,0.263284,-0.020777\O,0,-3.97746,0.412531,0.
 572593\O,0,-2.268863,1.272621,-0.585152\H,0,2.990701,2.005361,0.866506
 \H,0,1.36021,1.524228,1.368425\H,0,1.635417,2.18502,-0.256066\H,0,2.94
 9752,-1.791205,0.665383\H,0,3.788773,-0.443692,1.444634\H,0,2.122081,-
 0.829366,1.907448\H,0,3.50078,-0.77062,-1.566153\H,0,2.967382,0.876055
 ,-1.944118\H,0,4.28686,0.615225,-0.790025\H,0,-0.813109,-0.97993,-1.74
 5699\H,0,-2.944314,-1.646084,-0.933997\H,0,-2.33053,-1.60754,0.713021\
 H,0,-2.747569,2.087813,-0.376096\\Version=AS64L-G16RevC.01\State=2-A\H
 F=-629.9087548\S2=0.760815\S2-1=0.\S2A=0.750082\RMSD=3.100e-09\Dipole=
 -1.149009,-0.4847004,-1.3371552\Quadrupole=10.1344773,-1.2917623,-8.84
 2715,2.1004812,5.7635459,1.7578763\PG=C01 [X(C7H13N1O4)]\\@
 The archive entry for this job was punched.


 A MUSTACHE HAIR ACROSS A CHIP IS LIKE A REDWOOD
 TREE FALLING THROUGH A HOUSING PROJECT.
 - AN IBM MANAGER IN EAST FISHKILL, NEW YORK
   AS QUOTED IN "FROM SANDS TO CIRCUITS", IBM INNOVATION JANUARY 1985.
 Job cpu time:       0 days  0 hours 55 minutes 29.9 seconds.
 Elapsed time:       0 days  0 hours  7 minutes 18.8 seconds.
 File lengths (MBytes):  RWF=    196 Int=      0 D2E=      0 Chk=     15 Scr=      1
 Normal termination of Gaussian 16 at Mon Jan 29 15:38:10 2024.
