Job Start Time: Mon Jan 29 15:30:51 MST 2024
SLURM Job ID: 229854
SLURM Job Name: Ac2_rdkit_conf_4_SP_charge_p
 Entering Gaussian System, Link 0=/opt/apps/Gaussian/G16C/g16/g16
 Initial command:
 /opt/apps/Gaussian/G16C/g16/l1.exe "/tmp/Gau-3382958.inp" -scrdir="/tmp/"
 Entering Link 1 = /opt/apps/Gaussian/G16C/g16/l1.exe PID=   3382970.
  
 Copyright (c) 1988-2019, Gaussian, Inc.  All Rights Reserved.
  
 This is part of the Gaussian(R) 16 program.  It is based on
 the Gaussian(R) 09 system (copyright 2009, Gaussian, Inc.),
 the Gaussian(R) 03 system (copyright 2003, Gaussian, Inc.),
 the Gaussian(R) 98 system (copyright 1998, Gaussian, Inc.),
 the Gaussian(R) 94 system (copyright 1995, Gaussian, Inc.),
 the Gaussian 92(TM) system (copyright 1992, Gaussian, Inc.),
 the Gaussian 90(TM) system (copyright 1990, Gaussian, Inc.),
 the Gaussian 88(TM) system (copyright 1988, Gaussian, Inc.),
 the Gaussian 86(TM) system (copyright 1986, Carnegie Mellon
 University), and the Gaussian 82(TM) system (copyright 1983,
 Carnegie Mellon University). Gaussian is a federally registered
 trademark of Gaussian, Inc.
  
 This software contains proprietary and confidential information,
 including trade secrets, belonging to Gaussian, Inc.
  
 This software is provided under written license and may be
 used, copied, transmitted, or stored only in accord with that
 written license.
  
 The following legend is applicable only to US Government
 contracts under FAR:
  
                    RESTRICTED RIGHTS LEGEND
  
 Use, reproduction and disclosure by the US Government is
 subject to restrictions as set forth in subparagraphs (a)
 and (c) of the Commercial Computer Software - Restricted
 Rights clause in FAR 52.227-19.
  
 Gaussian, Inc.
 340 Quinnipiac St., Bldg. 40, Wallingford CT 06492
  
  
 ---------------------------------------------------------------
 Warning -- This program may not be used in any manner that
 competes with the business of Gaussian, Inc. or will provide
 assistance to any competitor of Gaussian, Inc.  The licensee
 of this program is prohibited from giving any competitor of
 Gaussian, Inc. access to this program.  By using this program,
 the user acknowledges that Gaussian, Inc. is engaged in the
 business of creating and licensing software in the field of
 computational chemistry and represents and warrants to the
 licensee that it is not a competitor of Gaussian, Inc. and that
 it will not use this program in any manner prohibited above.
 ---------------------------------------------------------------
  

 Cite this work as:
 Gaussian 16, Revision C.01,
 M. J. Frisch, G. W. Trucks, H. B. Schlegel, G. E. Scuseria, 
 M. A. Robb, J. R. Cheeseman, G. Scalmani, V. Barone, 
 G. A. Petersson, H. Nakatsuji, X. Li, M. Caricato, A. V. Marenich, 
 J. Bloino, B. G. Janesko, R. Gomperts, B. Mennucci, H. P. Hratchian, 
 J. V. Ortiz, A. F. Izmaylov, J. L. Sonnenberg, D. Williams-Young, 
 F. Ding, F. Lipparini, F. Egidi, J. Goings, B. Peng, A. Petrone, 
 T. Henderson, D. Ranasinghe, V. G. Zakrzewski, J. Gao, N. Rega, 
 G. Zheng, W. Liang, M. Hada, M. Ehara, K. Toyota, R. Fukuda, 
 J. Hasegawa, M. Ishida, T. Nakajima, Y. Honda, O. Kitao, H. Nakai, 
 T. Vreven, K. Throssell, J. A. Montgomery, Jr., J. E. Peralta, 
 F. Ogliaro, M. J. Bearpark, J. J. Heyd, E. N. Brothers, K. N. Kudin, 
 V. N. Staroverov, T. A. Keith, R. Kobayashi, J. Normand, 
 K. Raghavachari, A. P. Rendell, J. C. Burant, S. S. Iyengar, 
 J. Tomasi, M. Cossi, J. M. Millam, M. Klene, C. Adamo, R. Cammi, 
 J. W. Ochterski, R. L. Martin, K. Morokuma, O. Farkas, 
 J. B. Foresman, and D. J. Fox, Gaussian, Inc., Wallingford CT, 2019.
 
 ******************************************
 Gaussian 16:  AS64L-G16RevC.01  3-Jul-2019
                29-Jan-2024 
 ******************************************
 %nprocshared=8
 Will use up to    8 processors via shared memory.
 %mem=16GB
 --------------------------------------
 # pop=(nbo6, hirshfeld) m062x/def2tzvp
 --------------------------------------
 1/38=1,172=1/1;
 2/12=2,17=6,18=5,40=1/2;
 3/5=44,7=101,11=2,25=1,30=1,74=-55/1,2,3;
 4//1;
 5/5=2,38=5/2;
 6/7=2,8=2,9=2,10=2,28=1,40=1,79=1,113=1,114=1,124=3103,126=1/1,12;
 99/5=1,9=1/99;
 ----------------------------
 Ac2_rdkit_conf_4_SP_charge_p
 ----------------------------
 Symbolic Z-matrix:
 Charge =  1 Multiplicity = 2
 C                    -3.30886   1.53999   0.00047 
 C                    -2.60312   0.19257   0.00003 
 C                    -2.94261  -0.5869    1.2632 
 C                    -2.94307  -0.5863   -1.26339 
 O                    -1.19626   0.56495  -0.0001 
 C                    -0.24297  -0.37789  -0.00022 
 O                    -0.41661  -1.57534  -0.00001 
 N                     0.9847    0.19552  -0.00014 
 C                     2.16116  -0.622    -0.00006 
 C                     3.3791    0.2613   -0.00004 
 O                     3.36119   1.45984  -0.00003 
 O                     4.50615  -0.46066   0.00016 
 H                    -3.03263   2.1125    0.88615 
 H                    -4.38889   1.39249   0.00062 
 H                    -3.03293   2.11291  -0.88503 
 H                    -2.46069  -1.56127   1.26641 
 H                    -2.62628  -0.02652   2.1443 
 H                    -4.02334  -0.72627   1.31664 
 H                    -2.627    -0.02552  -2.14433 
 H                    -4.02382  -0.72558  -1.31653 
 H                    -2.46121  -1.56069  -1.26722 
 H                     1.08896   1.19779  -0.0002 
 H                     2.20548  -1.27596  -0.87545 
 H                     2.20541  -1.27591   0.87537 
 H                     5.25052   0.15849   0.00023 
 
                          Input orientation:                          
 ---------------------------------------------------------------------
 Center     Atomic      Atomic             Coordinates (Angstroms)
 Number     Number       Type             X           Y           Z
 ---------------------------------------------------------------------
      1          6           0       -3.308862    1.539993    0.000472
      2          6           0       -2.603121    0.192574    0.000031
      3          6           0       -2.942612   -0.586903    1.263197
      4          6           0       -2.943069   -0.586303   -1.263386
      5          8           0       -1.196259    0.564946   -0.000103
      6          6           0       -0.242965   -0.377887   -0.000222
      7          8           0       -0.416612   -1.575343   -0.000014
      8          7           0        0.984700    0.195520   -0.000139
      9          6           0        2.161161   -0.621998   -0.000062
     10          6           0        3.379096    0.261295   -0.000041
     11          8           0        3.361191    1.459841   -0.000029
     12          8           0        4.506147   -0.460661    0.000158
     13          1           0       -3.032631    2.112495    0.886151
     14          1           0       -4.388890    1.392494    0.000621
     15          1           0       -3.032934    2.112914   -0.885031
     16          1           0       -2.460693   -1.561266    1.266412
     17          1           0       -2.626275   -0.026517    2.144299
     18          1           0       -4.023335   -0.726266    1.316636
     19          1           0       -2.626995   -0.025521   -2.144331
     20          1           0       -4.023818   -0.725578   -1.316533
     21          1           0       -2.461207   -1.560689   -1.267221
     22          1           0        1.088965    1.197792   -0.000203
     23          1           0        2.205485   -1.275955   -0.875452
     24          1           0        2.205408   -1.275905    0.875368
     25          1           0        5.250519    0.158486    0.000230
 ---------------------------------------------------------------------
                    Distance matrix (angstroms):
                    1          2          3          4          5
     1  C    0.000000
     2  C    1.521055   0.000000
     3  C    2.500460   1.522638   0.000000
     4  C    2.500455   1.522641   2.526583   0.000000
     5  O    2.326759   1.455308   2.443856   2.443891   0.000000
     6  C    3.616350   2.428119   2.987977   2.988241   1.340785
     7  O    4.250933   2.811824   2.992222   2.992874   2.277869
     8  N    4.499142   3.587822   4.199046   4.199334   2.212026
     9  C    5.881782   4.833416   5.257904   5.258367   3.561054
    10  C    6.809101   5.982612   6.502246   6.502633   4.585420
    11  O    6.670535   6.097457   6.747061   6.747331   4.644479
    12  O    8.067031   7.139216   7.556138   7.556663   5.793902
    13  H    1.090179   2.157727   2.727089   3.451383   2.559808
    14  H    1.090053   2.151460   2.757504   2.757490   3.298140
    15  H    1.090179   2.157726   3.451384   2.727086   2.559820
    16  H    3.455402   2.167939   1.087032   2.753746   2.779142
    17  H    2.741509   2.155556   1.091074   3.467858   2.644472
    18  H    2.716374   2.143531   1.090981   2.800550   3.375409
    19  H    2.741525   2.155556   3.467854   1.091074   2.644498
    20  H    2.716335   2.143531   2.800579   1.090981   3.375430
    21  H    3.455401   2.167948   2.753729   1.087030   2.779210
    22  H    4.411121   3.826482   4.586385   4.586494   2.371232
    23  H    6.253385   5.103503   5.617074   5.209004   3.965730
    24  H    6.253151   5.103391   5.208382   5.617529   3.965668
    25  H    8.670154   7.853714   8.323346   8.323840   6.459579
                    6          7          8          9         10
     6  C    0.000000
     7  O    1.209981   0.000000
     8  N    1.354975   2.258236   0.000000
     9  C    2.416488   2.748414   1.432619   0.000000
    10  C    3.678027   4.216709   2.395299   1.504517   0.000000
    11  O    4.045638   4.846043   2.691880   2.402941   1.198680
    12  O    4.749833   5.047383   3.582061   2.350530   1.338456
    13  H    3.843162   4.607493   4.538640   5.936186   6.732200
    14  H    4.508098   4.958533   5.505290   6.852835   7.849918
    15  H    3.843293   4.607780   4.538812   5.936458   6.732446
    16  H    2.814794   2.404641   4.069543   4.883412   6.247301
    17  H    3.225306   3.446672   4.205598   5.279434   6.383221
    18  H    4.018293   3.932296   5.259658   6.323967   7.583199
    19  H    3.225673   3.447584   4.206038   5.280162   6.383837
    20  H    4.018509   3.932843   5.259902   6.324381   7.583548
    21  H    2.815121   2.405493   4.069895   4.883965   6.247760
    22  H    2.063202   3.155478   1.007681   2.112165   2.474212
    23  H    2.750902   2.780543   2.102790   1.093587   2.122933
    24  H    2.750932   2.780458   2.102791   1.093586   2.122939
    25  H    5.519607   5.926427   4.265980   3.186422   1.874245
                   11         12         13         14         15
    11  O    0.000000
    12  O    2.235901   0.000000
    13  H    6.487853   8.014942   0.000000
    14  H    7.750374   9.086026   1.772570   0.000000
    15  H    6.488033   8.015272   1.771182   1.772569   0.000000
    16  H    6.680217   7.166002   3.737410   3.747648   4.296017
    17  H    6.531244   7.460380   2.514644   3.117011   3.730868
    18  H    7.813059   8.634566   3.037330   2.520847   3.726818
    19  H    6.531669   7.461226   3.730881   3.117027   2.514662
    20  H    7.813296   8.635054   3.726785   2.520794   3.037282
    21  H    6.680546   7.166612   4.296023   3.747623   3.737419
    22  H    2.287287   3.798368   4.313915   5.481314   4.313980
    23  H    3.096224   2.593153   6.482492   7.167559   6.239035
    24  H    3.096201   2.593071   6.238463   7.167308   6.482540
    25  H    2.294141   0.968211   8.556494   9.718075   8.556814
                   16         17         18         19         20
    16  H    0.000000
    17  H    1.775826   0.000000
    18  H    1.772455   1.768177   0.000000
    19  H    3.744240   4.288630   3.797249   0.000000
    20  H    3.132625   3.797258   2.633169   1.768175   0.000000
    21  H    2.533633   3.744249   3.132543   1.775823   1.772455
    22  H    4.670844   4.461035   5.618868   4.461181   5.618952
    23  H    5.142198   5.833172   6.626131   5.150389   6.269105
    24  H    4.691145   5.149400   6.268497   5.833880   6.626503
    25  H    8.001472   8.165485   9.408511   8.166286   9.408972
                   21         22         23         24         25
    21  H    0.000000
    22  H    4.671003   0.000000
    23  H    4.691756   2.851684   0.000000
    24  H    5.142867   2.851709   1.750820   0.000000
    25  H    8.002044   4.289369   3.478027   3.477937   0.000000
 Stoichiometry    C7H13NO4(1+,2)
 Framework group  C1[X(C7H13NO4)]
 Deg. of freedom    69
 Full point group                 C1      NOp   1
 Largest Abelian subgroup         C1      NOp   1
 Largest concise Abelian subgroup C1      NOp   1
                         Standard orientation:                         
 ---------------------------------------------------------------------
 Center     Atomic      Atomic             Coordinates (Angstroms)
 Number     Number       Type             X           Y           Z
 ---------------------------------------------------------------------
      1          6           0        3.308862    1.539993   -0.000472
      2          6           0        2.603121    0.192574   -0.000031
      3          6           0        2.942612   -0.586903   -1.263197
      4          6           0        2.943069   -0.586303    1.263386
      5          8           0        1.196259    0.564946    0.000103
      6          6           0        0.242965   -0.377887    0.000222
      7          8           0        0.416612   -1.575343    0.000014
      8          7           0       -0.984700    0.195520    0.000139
      9          6           0       -2.161161   -0.621998    0.000062
     10          6           0       -3.379096    0.261295    0.000041
     11          8           0       -3.361191    1.459841    0.000029
     12          8           0       -4.506147   -0.460661   -0.000158
     13          1           0        3.032631    2.112495   -0.886151
     14          1           0        4.388890    1.392494   -0.000621
     15          1           0        3.032934    2.112914    0.885031
     16          1           0        2.460693   -1.561266   -1.266412
     17          1           0        2.626275   -0.026517   -2.144299
     18          1           0        4.023335   -0.726266   -1.316636
     19          1           0        2.626995   -0.025521    2.144331
     20          1           0        4.023818   -0.725578    1.316533
     21          1           0        2.461207   -1.560689    1.267221
     22          1           0       -1.088965    1.197792    0.000203
     23          1           0       -2.205485   -1.275955    0.875452
     24          1           0       -2.205408   -1.275905   -0.875368
     25          1           0       -5.250519    0.158486   -0.000230
 ---------------------------------------------------------------------
 Rotational constants (GHZ):           2.4510163           0.3742939           0.3505770
 Standard basis: def2TZVP (5D, 7F)
 There are   510 symmetry adapted cartesian basis functions of A   symmetry.
 There are   450 symmetry adapted basis functions of A   symmetry.
   450 basis functions,   716 primitive gaussians,   510 cartesian basis functions
    47 alpha electrons       46 beta electrons
       nuclear repulsion energy       744.8979756228 Hartrees.
 NAtoms=   25 NActive=   25 NUniq=   25 SFac= 1.00D+00 NAtFMM=   60 NAOKFM=F Big=F
 Integral buffers will be    131072 words long.
 Raffenetti 2 integral format.
 Two-electron integral symmetry is turned on.
 One-electron integrals computed using PRISM.
   1 Symmetry operations used in ECPInt.
 ECPInt:  NShTT=   17020 NPrTT=   51024 LenC2=   15381 LenP2D=   34630.
 LDataN:  DoStor=T MaxTD1= 6 Len=  172
 NBasis=   450 RedAO= T EigKep=  1.97D-04  NBF=   450
 NBsUse=   450 1.00D-06 EigRej= -1.00D+00 NBFU=   450
 ExpMin= 9.52D-02 ExpMax= 2.70D+04 ExpMxC= 9.22D+02 IAcc=3 IRadAn=         5 AccDes= 0.00D+00
 Harris functional with IExCor= 1009 and IRadAn=       5 diagonalized for initial guess.
 HarFok:  IExCor= 1009 AccDes= 0.00D+00 IRadAn=         5 IDoV= 1 UseB2=F ITyADJ=14
 ICtDFT=  3500011 ScaDFX=  1.000000  1.000000  1.000000  1.000000
 FoFCou: FMM=F IPFlag=           0 FMFlag=      100000 FMFlg1=           0
         NFxFlg=           0 DoJE=T BraDBF=F KetDBF=T FulRan=T
         wScrn=  0.000000 ICntrl=       500 IOpCl=  0 I1Cent=   200000004 NGrid=           0
         NMat0=    1 NMatS0=      1 NMatT0=    0 NMatD0=    1 NMtDS0=    0 NMtDT0=    0
 Petite list used in FoFCou.
 Initial guess <Sx>= 0.0000 <Sy>= 0.0000 <Sz>= 0.5000 <S**2>= 0.7500 S= 0.5000
 Requested convergence on RMS density matrix=1.00D-08 within 128 cycles.
 Requested convergence on MAX density matrix=1.00D-06.
 Requested convergence on             energy=1.00D-06.
 No special actions if energy rises.
 Integral accuracy reduced to 1.0D-05 until final iterations.
 Initial convergence to 1.0D-05 achieved.  Increase integral accuracy.
 SCF Done:  E(UM062X) =  -629.910839786     A.U. after   23 cycles
            NFock= 23  Conv=0.18D-08     -V/T= 2.0044
 <Sx>= 0.0000 <Sy>= 0.0000 <Sz>= 0.5000 <S**2>= 0.7612 S= 0.5056
 <L.S>=  0.00000000000    
 Annihilation of the first spin contaminant:
 S**2 before annihilation     0.7612,   after     0.7501

 **********************************************************************

            Population analysis using the SCF Density.

 **********************************************************************

 Orbital symmetries:
 Alpha Orbitals:
       Occupied  (A) (A) (A) (A) (A) (A) (A) (A) (A) (A) (A) (A)
                 (A) (A) (A) (A) (A) (A) (A) (A) (A) (A) (A) (A)
                 (A) (A) (A) (A) (A) (A) (A) (A) (A) (A) (A) (A)
                 (A) (A) (A) (A) (A) (A) (A) (A) (A) (A) (A)
       Virtual   (A) (A) (A) (A) (A) (A) (A) (A) (A) (A) (A) (A)
                 (A) (A) (A) (A) (A) (A) (A) (A) (A) (A) (A) (A)
                 (A) (A) (A) (A) (A) (A) (A) (A) (A) (A) (A) (A)
                 (A) (A) (A) (A) (A) (A) (A) (A) (A) (A) (A) (A)
                 (A) (A) (A) (A) (A) (A) (A) (A) (A) (A) (A) (A)
                 (A) (A) (A) (A) (A) (A) (A) (A) (A) (A) (A) (A)
                 (A) (A) (A) (A) (A) (A) (A) (A) (A) (A) (A) (A)
                 (A) (A) (A) (A) (A) (A) (A) (A) (A) (A) (A) (A)
                 (A) (A) (A) (A) (A) (A) (A) (A) (A) (A) (A) (A)
                 (A) (A) (A) (A) (A) (A) (A) (A) (A) (A) (A) (A)
                 (A) (A) (A) (A) (A) (A) (A) (A) (A) (A) (A) (A)
                 (A) (A) (A) (A) (A) (A) (A) (A) (A) (A) (A) (A)
                 (A) (A) (A) (A) (A) (A) (A) (A) (A) (A) (A) (A)
                 (A) (A) (A) (A) (A) (A) (A) (A) (A) (A) (A) (A)
                 (A) (A) (A) (A) (A) (A) (A) (A) (A) (A) (A) (A)
                 (A) (A) (A) (A) (A) (A) (A) (A) (A) (A) (A) (A)
                 (A) (A) (A) (A) (A) (A) (A) (A) (A) (A) (A) (A)
                 (A) (A) (A) (A) (A) (A) (A) (A) (A) (A) (A) (A)
                 (A) (A) (A) (A) (A) (A) (A) (A) (A) (A) (A) (A)
                 (A) (A) (A) (A) (A) (A) (A) (A) (A) (A) (A) (A)
                 (A) (A) (A) (A) (A) (A) (A) (A) (A) (A) (A) (A)
                 (A) (A) (A) (A) (A) (A) (A) (A) (A) (A) (A) (A)
                 (A) (A) (A) (A) (A) (A) (A) (A) (A) (A) (A) (A)
                 (A) (A) (A) (A) (A) (A) (A) (A) (A) (A) (A) (A)
                 (A) (A) (A) (A) (A) (A) (A) (A) (A) (A) (A) (A)
                 (A) (A) (A) (A) (A) (A) (A) (A) (A) (A) (A) (A)
                 (A) (A) (A) (A) (A) (A) (A) (A) (A) (A) (A) (A)
                 (A) (A) (A) (A) (A) (A) (A) (A) (A) (A) (A) (A)
                 (A) (A) (A) (A) (A) (A) (A) (A) (A) (A) (A) (A)
                 (A) (A) (A) (A) (A) (A) (A) (A) (A) (A) (A) (A)
                 (A) (A) (A) (A) (A) (A) (A) (A) (A) (A) (A) (A)
                 (A) (A) (A) (A) (A) (A) (A) (A) (A) (A) (A) (A)
                 (A) (A) (A) (A) (A) (A) (A) (A) (A) (A) (A) (A)
                 (A) (A) (A) (A) (A) (A) (A)
 Beta  Orbitals:
       Occupied  (A) (A) (A) (A) (A) (A) (A) (A) (A) (A) (A) (A)
                 (A) (A) (A) (A) (A) (A) (A) (A) (A) (A) (A) (A)
                 (A) (A) (A) (A) (A) (A) (A) (A) (A) (A) (A) (A)
                 (A) (A) (A) (A) (A) (A) (A) (A) (A) (A)
       Virtual   (A) (A) (A) (A) (A) (A) (A) (A) (A) (A) (A) (A)
                 (A) (A) (A) (A) (A) (A) (A) (A) (A) (A) (A) (A)
                 (A) (A) (A) (A) (A) (A) (A) (A) (A) (A) (A) (A)
                 (A) (A) (A) (A) (A) (A) (A) (A) (A) (A) (A) (A)
                 (A) (A) (A) (A) (A) (A) (A) (A) (A) (A) (A) (A)
                 (A) (A) (A) (A) (A) (A) (A) (A) (A) (A) (A) (A)
                 (A) (A) (A) (A) (A) (A) (A) (A) (A) (A) (A) (A)
                 (A) (A) (A) (A) (A) (A) (A) (A) (A) (A) (A) (A)
                 (A) (A) (A) (A) (A) (A) (A) (A) (A) (A) (A) (A)
                 (A) (A) (A) (A) (A) (A) (A) (A) (A) (A) (A) (A)
                 (A) (A) (A) (A) (A) (A) (A) (A) (A) (A) (A) (A)
                 (A) (A) (A) (A) (A) (A) (A) (A) (A) (A) (A) (A)
                 (A) (A) (A) (A) (A) (A) (A) (A) (A) (A) (A) (A)
                 (A) (A) (A) (A) (A) (A) (A) (A) (A) (A) (A) (A)
                 (A) (A) (A) (A) (A) (A) (A) (A) (A) (A) (A) (A)
                 (A) (A) (A) (A) (A) (A) (A) (A) (A) (A) (A) (A)
                 (A) (A) (A) (A) (A) (A) (A) (A) (A) (A) (A) (A)
                 (A) (A) (A) (A) (A) (A) (A) (A) (A) (A) (A) (A)
                 (A) (A) (A) (A) (A) (A) (A) (A) (A) (A) (A) (A)
                 (A) (A) (A) (A) (A) (A) (A) (A) (A) (A) (A) (A)
                 (A) (A) (A) (A) (A) (A) (A) (A) (A) (A) (A) (A)
                 (A) (A) (A) (A) (A) (A) (A) (A) (A) (A) (A) (A)
                 (A) (A) (A) (A) (A) (A) (A) (A) (A) (A) (A) (A)
                 (A) (A) (A) (A) (A) (A) (A) (A) (A) (A) (A) (A)
                 (A) (A) (A) (A) (A) (A) (A) (A) (A) (A) (A) (A)
                 (A) (A) (A) (A) (A) (A) (A) (A) (A) (A) (A) (A)
                 (A) (A) (A) (A) (A) (A) (A) (A) (A) (A) (A) (A)
                 (A) (A) (A) (A) (A) (A) (A) (A) (A) (A) (A) (A)
                 (A) (A) (A) (A) (A) (A) (A) (A) (A) (A) (A) (A)
                 (A) (A) (A) (A) (A) (A) (A) (A) (A) (A) (A) (A)
                 (A) (A) (A) (A) (A) (A) (A) (A) (A) (A) (A) (A)
                 (A) (A) (A) (A) (A) (A) (A) (A) (A) (A) (A) (A)
                 (A) (A) (A) (A) (A) (A) (A) (A) (A) (A) (A) (A)
                 (A) (A) (A) (A) (A) (A) (A) (A)
 The electronic state is 2-A.
 Alpha  occ. eigenvalues --  -19.86282 -19.84513 -19.83442 -19.80523 -15.10850
 Alpha  occ. eigenvalues --  -10.91294 -10.86838 -10.81729 -10.75569 -10.65858
 Alpha  occ. eigenvalues --  -10.65857 -10.65279  -1.45715  -1.42056  -1.35557
 Alpha  occ. eigenvalues --   -1.33780  -1.32057  -1.09935  -1.05037  -0.95756
 Alpha  occ. eigenvalues --   -0.92929  -0.92488  -0.91527  -0.85760  -0.82887
 Alpha  occ. eigenvalues --   -0.80376  -0.77600  -0.76396  -0.75016  -0.74586
 Alpha  occ. eigenvalues --   -0.72167  -0.69575  -0.68781  -0.66272  -0.65608
 Alpha  occ. eigenvalues --   -0.63172  -0.62542  -0.60434  -0.59847  -0.58489
 Alpha  occ. eigenvalues --   -0.57630  -0.57434  -0.57414  -0.56162  -0.55057
 Alpha  occ. eigenvalues --   -0.52559  -0.52393
 Alpha virt. eigenvalues --   -0.14074  -0.12709  -0.10644  -0.08361  -0.06866
 Alpha virt. eigenvalues --   -0.04811  -0.02297  -0.02193  -0.00901  -0.00083
 Alpha virt. eigenvalues --    0.00138   0.00908   0.01702   0.02118   0.02899
 Alpha virt. eigenvalues --    0.03646   0.04750   0.06521   0.06787   0.07011
 Alpha virt. eigenvalues --    0.07659   0.07894   0.08215   0.08737   0.09284
 Alpha virt. eigenvalues --    0.09628   0.09725   0.11508   0.13700   0.14206
 Alpha virt. eigenvalues --    0.16876   0.17485   0.18096   0.18450   0.19628
 Alpha virt. eigenvalues --    0.21322   0.21396   0.22804   0.23647   0.23697
 Alpha virt. eigenvalues --    0.24237   0.26156   0.27069   0.27229   0.27860
 Alpha virt. eigenvalues --    0.28280   0.28455   0.30132   0.31096   0.31864
 Alpha virt. eigenvalues --    0.32542   0.32861   0.33315   0.35161   0.35985
 Alpha virt. eigenvalues --    0.36273   0.36943   0.36977   0.37904   0.38555
 Alpha virt. eigenvalues --    0.39232   0.39999   0.40505   0.40520   0.40905
 Alpha virt. eigenvalues --    0.40973   0.43488   0.44266   0.44284   0.45541
 Alpha virt. eigenvalues --    0.46254   0.48109   0.48528   0.49888   0.50381
 Alpha virt. eigenvalues --    0.50615   0.54519   0.55937   0.57029   0.58887
 Alpha virt. eigenvalues --    0.60551   0.61282   0.63214   0.65344   0.67033
 Alpha virt. eigenvalues --    0.67408   0.69363   0.70224   0.71467   0.73127
 Alpha virt. eigenvalues --    0.73629   0.74293   0.77000   0.77023   0.79079
 Alpha virt. eigenvalues --    0.81109   0.82062   0.84023   0.85151   0.85842
 Alpha virt. eigenvalues --    0.88580   0.88692   0.90192   0.90895   0.91941
 Alpha virt. eigenvalues --    0.93611   0.93922   0.97300   1.01106   1.01279
 Alpha virt. eigenvalues --    1.02676   1.03874   1.06351   1.07632   1.09756
 Alpha virt. eigenvalues --    1.11449   1.14696   1.14997   1.18829   1.18834
 Alpha virt. eigenvalues --    1.20271   1.21336   1.22845   1.24346   1.24860
 Alpha virt. eigenvalues --    1.25512   1.28379   1.28849   1.33125   1.33523
 Alpha virt. eigenvalues --    1.36190   1.36429   1.36796   1.41586   1.43175
 Alpha virt. eigenvalues --    1.44750   1.44845   1.45557   1.46373   1.46604
 Alpha virt. eigenvalues --    1.47786   1.50612   1.51849   1.51986   1.52299
 Alpha virt. eigenvalues --    1.52349   1.53323   1.54798   1.55544   1.56291
 Alpha virt. eigenvalues --    1.57180   1.60330   1.62239   1.63483   1.64682
 Alpha virt. eigenvalues --    1.64812   1.65467   1.69472   1.70286   1.72985
 Alpha virt. eigenvalues --    1.75131   1.76030   1.76743   1.80000   1.80861
 Alpha virt. eigenvalues --    1.82013   1.82985   1.85988   1.86661   1.88415
 Alpha virt. eigenvalues --    1.90394   1.91926   1.94815   1.96248   1.96855
 Alpha virt. eigenvalues --    1.98412   1.99425   1.99596   2.00645   2.02331
 Alpha virt. eigenvalues --    2.03627   2.03997   2.05633   2.08516   2.09828
 Alpha virt. eigenvalues --    2.12131   2.12385   2.15480   2.16402   2.17663
 Alpha virt. eigenvalues --    2.18687   2.19259   2.19472   2.20647   2.21569
 Alpha virt. eigenvalues --    2.22605   2.24833   2.26400   2.27141   2.27964
 Alpha virt. eigenvalues --    2.28622   2.29339   2.29490   2.29927   2.35162
 Alpha virt. eigenvalues --    2.36629   2.37732   2.37867   2.40815   2.41922
 Alpha virt. eigenvalues --    2.43016   2.43178   2.44878   2.47863   2.48448
 Alpha virt. eigenvalues --    2.48708   2.50942   2.51474   2.54417   2.55288
 Alpha virt. eigenvalues --    2.56494   2.59338   2.60197   2.63791   2.64593
 Alpha virt. eigenvalues --    2.65984   2.66487   2.68547   2.68942   2.70773
 Alpha virt. eigenvalues --    2.71054   2.72555   2.73507   2.75310   2.78115
 Alpha virt. eigenvalues --    2.79703   2.81196   2.82258   2.83428   2.85410
 Alpha virt. eigenvalues --    2.85870   2.88622   2.92011   2.92774   2.93767
 Alpha virt. eigenvalues --    2.94672   2.96017   2.96518   2.98779   2.98897
 Alpha virt. eigenvalues --    2.99153   3.03111   3.03661   3.04383   3.04633
 Alpha virt. eigenvalues --    3.05197   3.07316   3.07827   3.08427   3.09938
 Alpha virt. eigenvalues --    3.11637   3.13901   3.15665   3.16944   3.17982
 Alpha virt. eigenvalues --    3.18729   3.21050   3.21171   3.21420   3.21482
 Alpha virt. eigenvalues --    3.22430   3.23366   3.24683   3.25766   3.26445
 Alpha virt. eigenvalues --    3.27064   3.31141   3.31871   3.33270   3.33565
 Alpha virt. eigenvalues --    3.36597   3.40155   3.40501   3.45249   3.45323
 Alpha virt. eigenvalues --    3.51426   3.51513   3.52634   3.54523   3.56510
 Alpha virt. eigenvalues --    3.56730   3.58131   3.58942   3.61891   3.62847
 Alpha virt. eigenvalues --    3.63813   3.73609   3.76489   3.81372   3.83897
 Alpha virt. eigenvalues --    3.86366   3.88813   3.90592   3.91688   3.92026
 Alpha virt. eigenvalues --    3.94753   3.95849   3.97159   3.99339   4.00042
 Alpha virt. eigenvalues --    4.07181   4.09902   4.15295   4.17547   4.21911
 Alpha virt. eigenvalues --    4.23088   4.27085   4.27328   4.28267   4.30511
 Alpha virt. eigenvalues --    4.31088   4.34467   4.37665   4.37716   4.38761
 Alpha virt. eigenvalues --    4.44363   4.49243   4.49465   4.52689   4.60403
 Alpha virt. eigenvalues --    4.67117   4.68082   4.68537   4.71802   4.74541
 Alpha virt. eigenvalues --    4.80225   4.80643   4.91240   4.98870   5.00352
 Alpha virt. eigenvalues --    5.03059   5.03351   5.05361   5.06701   5.09230
 Alpha virt. eigenvalues --    5.16322   5.18516   5.22146   5.23185   5.25742
 Alpha virt. eigenvalues --    5.31384   5.33897   5.35873   5.45165   5.46683
 Alpha virt. eigenvalues --    5.54061   5.56091   5.62740   5.71550   5.72656
 Alpha virt. eigenvalues --    5.73435   5.84398   5.97954   5.98562   6.00860
 Alpha virt. eigenvalues --    6.04615   6.08519   6.14160   6.18123   6.20951
 Alpha virt. eigenvalues --    6.21929   6.26794   6.31837   6.33950   6.49040
 Alpha virt. eigenvalues --    6.49705   6.51725   6.52492   6.57931   6.59859
 Alpha virt. eigenvalues --    6.63749   6.72889   6.73990   6.75970   6.87432
 Alpha virt. eigenvalues --    6.92380   6.94591   6.96898   7.15153   7.21933
 Alpha virt. eigenvalues --    7.25691  22.38246  22.40609  22.42510  22.44092
 Alpha virt. eigenvalues --   22.61389  23.17931  23.46682  32.29485  43.78594
 Alpha virt. eigenvalues --   43.82135  43.87819  44.41398
  Beta  occ. eigenvalues --  -19.86157 -19.84491 -19.83126 -19.80536 -15.09860
  Beta  occ. eigenvalues --  -10.91405 -10.86836 -10.81752 -10.75562 -10.65842
  Beta  occ. eigenvalues --  -10.65841 -10.65279  -1.44678  -1.42009  -1.34797
  Beta  occ. eigenvalues --   -1.32855  -1.29584  -1.09266  -1.04515  -0.94361
  Beta  occ. eigenvalues --   -0.92636  -0.92332  -0.91131  -0.85514  -0.79333
  Beta  occ. eigenvalues --   -0.78324  -0.77146  -0.76220  -0.74241  -0.73731
  Beta  occ. eigenvalues --   -0.71753  -0.68548  -0.67922  -0.65556  -0.65287
  Beta  occ. eigenvalues --   -0.63095  -0.60136  -0.59223  -0.58034  -0.57541
  Beta  occ. eigenvalues --   -0.57336  -0.56766  -0.56100  -0.55043  -0.52267
  Beta  occ. eigenvalues --   -0.51858
  Beta virt. eigenvalues --   -0.38964  -0.13529  -0.11163  -0.10756  -0.08197
  Beta virt. eigenvalues --   -0.06733  -0.04747  -0.02341  -0.02153  -0.00837
  Beta virt. eigenvalues --    0.00055   0.00381   0.00949   0.01674   0.02141
  Beta virt. eigenvalues --    0.02871   0.03760   0.04795   0.06596   0.06852
  Beta virt. eigenvalues --    0.07348   0.07738   0.07902   0.08234   0.08770
  Beta virt. eigenvalues --    0.09395   0.09640   0.09899   0.11787   0.13815
  Beta virt. eigenvalues --    0.14503   0.16792   0.17771   0.18153   0.18416
  Beta virt. eigenvalues --    0.19543   0.21381   0.21385   0.22856   0.23691
  Beta virt. eigenvalues --    0.23753   0.24193   0.26095   0.27266   0.27274
  Beta virt. eigenvalues --    0.27914   0.28385   0.28943   0.30303   0.31442
  Beta virt. eigenvalues --    0.32103   0.32562   0.32905   0.33319   0.35329
  Beta virt. eigenvalues --    0.36075   0.36283   0.36962   0.37038   0.37932
  Beta virt. eigenvalues --    0.38604   0.39253   0.40084   0.40577   0.40613
  Beta virt. eigenvalues --    0.40988   0.41047   0.43657   0.44358   0.44699
  Beta virt. eigenvalues --    0.45908   0.46254   0.48458   0.48592   0.50203
  Beta virt. eigenvalues --    0.50437   0.50812   0.54530   0.56022   0.56988
  Beta virt. eigenvalues --    0.58963   0.60207   0.61191   0.63079   0.65328
  Beta virt. eigenvalues --    0.67163   0.67227   0.69194   0.70227   0.71600
  Beta virt. eigenvalues --    0.73164   0.73678   0.74259   0.76937   0.77290
  Beta virt. eigenvalues --    0.79100   0.81555   0.82017   0.83995   0.85311
  Beta virt. eigenvalues --    0.86000   0.88652   0.88982   0.90251   0.90961
  Beta virt. eigenvalues --    0.91936   0.93963   0.94002   0.97219   1.01109
  Beta virt. eigenvalues --    1.01288   1.02790   1.03798   1.06338   1.08506
  Beta virt. eigenvalues --    1.09688   1.11515   1.14629   1.15071   1.18748
  Beta virt. eigenvalues --    1.19169   1.20306   1.21384   1.23148   1.24869
  Beta virt. eigenvalues --    1.24924   1.25717   1.28398   1.28840   1.32935
  Beta virt. eigenvalues --    1.33529   1.36121   1.36213   1.37087   1.41763
  Beta virt. eigenvalues --    1.43063   1.44885   1.45266   1.45574   1.46399
  Beta virt. eigenvalues --    1.46646   1.47907   1.50638   1.52068   1.52154
  Beta virt. eigenvalues --    1.52352   1.52604   1.53328   1.54826   1.55628
  Beta virt. eigenvalues --    1.56379   1.57332   1.60931   1.62255   1.63669
  Beta virt. eigenvalues --    1.64736   1.64759   1.65717   1.69726   1.70279
  Beta virt. eigenvalues --    1.73055   1.75156   1.76255   1.76960   1.79956
  Beta virt. eigenvalues --    1.81801   1.82301   1.83601   1.86272   1.86811
  Beta virt. eigenvalues --    1.88588   1.90687   1.92103   1.95150   1.96278
  Beta virt. eigenvalues --    1.96930   1.98659   1.99542   1.99700   2.00728
  Beta virt. eigenvalues --    2.02342   2.03702   2.05025   2.05681   2.08655
  Beta virt. eigenvalues --    2.10431   2.12193   2.12433   2.15606   2.16457
  Beta virt. eigenvalues --    2.17860   2.18791   2.19267   2.19764   2.20675
  Beta virt. eigenvalues --    2.22421   2.22878   2.25095   2.27206   2.28146
  Beta virt. eigenvalues --    2.28242   2.28780   2.29356   2.29706   2.29984
  Beta virt. eigenvalues --    2.35429   2.36697   2.37837   2.38798   2.41473
  Beta virt. eigenvalues --    2.42208   2.43023   2.43266   2.45039   2.47896
  Beta virt. eigenvalues --    2.48474   2.49011   2.50981   2.51611   2.54559
  Beta virt. eigenvalues --    2.55279   2.56524   2.59391   2.60664   2.64208
  Beta virt. eigenvalues --    2.64633   2.66011   2.66491   2.68548   2.69348
  Beta virt. eigenvalues --    2.70764   2.71366   2.72595   2.73581   2.75409
  Beta virt. eigenvalues --    2.78189   2.80088   2.81215   2.82440   2.83242
  Beta virt. eigenvalues --    2.85415   2.86019   2.88583   2.91896   2.92737
  Beta virt. eigenvalues --    2.93555   2.94777   2.96194   2.96457   2.98870
  Beta virt. eigenvalues --    2.98908   2.99188   3.03119   3.03721   3.04336
  Beta virt. eigenvalues --    3.04812   3.05373   3.07500   3.07897   3.08491
  Beta virt. eigenvalues --    3.10182   3.11567   3.14143   3.15699   3.16899
  Beta virt. eigenvalues --    3.17793   3.18806   3.21098   3.21160   3.21513
  Beta virt. eigenvalues --    3.21634   3.22616   3.23534   3.24673   3.26048
  Beta virt. eigenvalues --    3.26453   3.27048   3.31064   3.31825   3.33220
  Beta virt. eigenvalues --    3.33588   3.36906   3.40431   3.40476   3.45126
  Beta virt. eigenvalues --    3.45417   3.51499   3.51502   3.52636   3.54590
  Beta virt. eigenvalues --    3.56505   3.56894   3.58145   3.59501   3.61631
  Beta virt. eigenvalues --    3.62813   3.63950   3.73728   3.76550   3.81390
  Beta virt. eigenvalues --    3.83787   3.86385   3.88808   3.90692   3.91639
  Beta virt. eigenvalues --    3.91960   3.96208   3.96477   3.97242   3.99479
  Beta virt. eigenvalues --    4.00026   4.07307   4.10022   4.15417   4.17599
  Beta virt. eigenvalues --    4.22480   4.23213   4.27273   4.28162   4.30285
  Beta virt. eigenvalues --    4.30523   4.31350   4.34481   4.37875   4.38109
  Beta virt. eigenvalues --    4.44720   4.46128   4.49427   4.53137   4.57387
  Beta virt. eigenvalues --    4.60451   4.66998   4.70494   4.70910   4.73370
  Beta virt. eigenvalues --    4.74889   4.83726   4.84191   4.93553   4.98872
  Beta virt. eigenvalues --    5.02214   5.03671   5.04169   5.05374   5.07694
  Beta virt. eigenvalues --    5.10734   5.16749   5.20567   5.23077   5.23244
  Beta virt. eigenvalues --    5.26882   5.32201   5.33912   5.37625   5.45248
  Beta virt. eigenvalues --    5.47936   5.54471   5.56831   5.63143   5.71627
  Beta virt. eigenvalues --    5.72675   5.74380   5.84979   5.98491   5.99288
  Beta virt. eigenvalues --    6.01218   6.04680   6.08708   6.14146   6.20744
  Beta virt. eigenvalues --    6.20977   6.22241   6.26822   6.31855   6.36081
  Beta virt. eigenvalues --    6.49610   6.49759   6.52232   6.52536   6.59617
  Beta virt. eigenvalues --    6.59870   6.63732   6.72925   6.74304   6.76454
  Beta virt. eigenvalues --    6.88070   6.92426   6.94630   6.97316   7.15161
  Beta virt. eigenvalues --    7.21877   7.25856  22.38245  22.40617  22.42508
  Beta virt. eigenvalues --   22.44001  22.61364  23.17931  23.46483  32.30099
  Beta virt. eigenvalues --   43.78591  43.82136  43.87794  44.41384
          Condensed to atoms (all electrons):
               1          2          3          4          5          6
     1  C    5.167415   0.303862  -0.108951  -0.108954  -0.049182  -0.002622
     2  C    0.303862   5.192522   0.283101   0.283165   0.123685  -0.050056
     3  C   -0.108951   0.283101   5.246271  -0.111143  -0.032950  -0.006009
     4  C   -0.108954   0.283165  -0.111143   5.246100  -0.032933  -0.005975
     5  O   -0.049182   0.123685  -0.032950  -0.032933   7.973623   0.382529
     6  C   -0.002622  -0.050056  -0.006009  -0.005975   0.382529   4.375841
     7  O    0.000461   0.034070  -0.019432  -0.019431  -0.065561   0.548950
     8  N    0.000408   0.004899  -0.001006  -0.001003  -0.073983   0.343533
     9  C   -0.000012  -0.000289   0.000167   0.000167   0.002698  -0.049893
    10  C   -0.000002  -0.000060   0.000003   0.000003   0.000124   0.005322
    11  O    0.000003   0.000003   0.000001   0.000001   0.000109   0.005082
    12  O    0.000000  -0.000000   0.000000   0.000000   0.000001   0.000257
    13  H    0.402662  -0.021046  -0.017317   0.014199  -0.001949  -0.001009
    14  H    0.410273  -0.019482  -0.010638  -0.010643   0.004446   0.000493
    15  H    0.402670  -0.021054   0.014198  -0.017315  -0.001949  -0.001007
    16  H    0.012478  -0.025062   0.405239  -0.012389  -0.001302  -0.002131
    17  H   -0.012289  -0.028241   0.397641   0.013384   0.000358  -0.001266
    18  H   -0.012643  -0.018781   0.404289  -0.005547   0.003871   0.001198
    19  H   -0.012288  -0.028245   0.013387   0.397662   0.000360  -0.001278
    20  H   -0.012647  -0.018797  -0.005541   0.404310   0.003872   0.001197
    21  H    0.012480  -0.025033  -0.012406   0.405200  -0.001312  -0.002105
    22  H   -0.000138  -0.000151   0.000172   0.000172   0.007991  -0.019233
    23  H    0.000002  -0.000017   0.000005   0.000015   0.000088  -0.002871
    24  H    0.000002  -0.000017   0.000015   0.000005   0.000088  -0.002875
    25  H   -0.000000  -0.000000  -0.000000  -0.000000  -0.000000  -0.000020
               7          8          9         10         11         12
     1  C    0.000461   0.000408  -0.000012  -0.000002   0.000003   0.000000
     2  C    0.034070   0.004899  -0.000289  -0.000060   0.000003  -0.000000
     3  C   -0.019432  -0.001006   0.000167   0.000003   0.000001   0.000000
     4  C   -0.019431  -0.001003   0.000167   0.000003   0.000001   0.000000
     5  O   -0.065561  -0.073983   0.002698   0.000124   0.000109   0.000001
     6  C    0.548950   0.343533  -0.049893   0.005322   0.005082   0.000257
     7  O    7.829814  -0.062672   0.011101   0.003054  -0.000060   0.000006
     8  N   -0.062672   6.315768   0.205914  -0.003280   0.005774   0.004977
     9  C    0.011101   0.205914   5.184505   0.279639  -0.080114  -0.098256
    10  C    0.003054  -0.003280   0.279639   4.448346   0.590666   0.400902
    11  O   -0.000060   0.005774  -0.080114   0.590666   7.807170  -0.070317
    12  O    0.000006   0.004977  -0.098256   0.400902  -0.070317   7.822219
    13  H    0.000003   0.000009  -0.000002  -0.000001  -0.000000  -0.000000
    14  H    0.000040   0.000000  -0.000000   0.000000  -0.000000  -0.000000
    15  H    0.000003   0.000009  -0.000002  -0.000001  -0.000000  -0.000000
    16  H   -0.001669   0.000195   0.000067   0.000004   0.000000   0.000000
    17  H   -0.000500   0.000063  -0.000018  -0.000002  -0.000000  -0.000000
    18  H    0.000296   0.000015  -0.000003   0.000000   0.000000   0.000000
    19  H   -0.000496   0.000062  -0.000018  -0.000002  -0.000000  -0.000000
    20  H    0.000295   0.000015  -0.000003   0.000000   0.000000   0.000000
    21  H   -0.001659   0.000196   0.000067   0.000004   0.000000   0.000000
    22  H    0.001794   0.344184  -0.029554  -0.006917   0.023685   0.000977
    23  H   -0.000321  -0.017751   0.386017  -0.018368   0.000396   0.004250
    24  H   -0.000320  -0.017746   0.386010  -0.018364   0.000395   0.004252
    25  H    0.000002  -0.000463   0.013075  -0.018112   0.003752   0.298437
              13         14         15         16         17         18
     1  C    0.402662   0.410273   0.402670   0.012478  -0.012289  -0.012643
     2  C   -0.021046  -0.019482  -0.021054  -0.025062  -0.028241  -0.018781
     3  C   -0.017317  -0.010638   0.014198   0.405239   0.397641   0.404289
     4  C    0.014199  -0.010643  -0.017315  -0.012389   0.013384  -0.005547
     5  O   -0.001949   0.004446  -0.001949  -0.001302   0.000358   0.003871
     6  C   -0.001009   0.000493  -0.001007  -0.002131  -0.001266   0.001198
     7  O    0.000003   0.000040   0.000003  -0.001669  -0.000500   0.000296
     8  N    0.000009   0.000000   0.000009   0.000195   0.000063   0.000015
     9  C   -0.000002  -0.000000  -0.000002   0.000067  -0.000018  -0.000003
    10  C   -0.000001   0.000000  -0.000001   0.000004  -0.000002   0.000000
    11  O   -0.000000  -0.000000  -0.000000   0.000000  -0.000000   0.000000
    12  O   -0.000000  -0.000000  -0.000000   0.000000  -0.000000   0.000000
    13  H    0.492800  -0.018158  -0.021465   0.000019   0.002738   0.000237
    14  H   -0.018158   0.485950  -0.018159  -0.000056   0.000524   0.001483
    15  H   -0.021465  -0.018159   0.492794  -0.000382  -0.000271   0.000057
    16  H    0.000019  -0.000056  -0.000382   0.478207  -0.024804  -0.014756
    17  H    0.002738   0.000524  -0.000271  -0.024804   0.495565  -0.013247
    18  H    0.000237   0.001483   0.000057  -0.014756  -0.013247   0.466355
    19  H   -0.000271   0.000524   0.002737  -0.000130  -0.000474  -0.000075
    20  H    0.000057   0.001483   0.000237  -0.000076  -0.000075   0.000572
    21  H   -0.000382  -0.000056   0.000019   0.002602  -0.000129  -0.000076
    22  H    0.000017   0.000007   0.000017  -0.000028   0.000027  -0.000003
    23  H   -0.000000  -0.000000  -0.000000   0.000001  -0.000000   0.000000
    24  H   -0.000000  -0.000000  -0.000000   0.000011  -0.000001  -0.000000
    25  H    0.000000   0.000000   0.000000   0.000000  -0.000000   0.000000
              19         20         21         22         23         24
     1  C   -0.012288  -0.012647   0.012480  -0.000138   0.000002   0.000002
     2  C   -0.028245  -0.018797  -0.025033  -0.000151  -0.000017  -0.000017
     3  C    0.013387  -0.005541  -0.012406   0.000172   0.000005   0.000015
     4  C    0.397662   0.404310   0.405200   0.000172   0.000015   0.000005
     5  O    0.000360   0.003872  -0.001312   0.007991   0.000088   0.000088
     6  C   -0.001278   0.001197  -0.002105  -0.019233  -0.002871  -0.002875
     7  O   -0.000496   0.000295  -0.001659   0.001794  -0.000321  -0.000320
     8  N    0.000062   0.000015   0.000196   0.344184  -0.017751  -0.017746
     9  C   -0.000018  -0.000003   0.000067  -0.029554   0.386017   0.386010
    10  C   -0.000002   0.000000   0.000004  -0.006917  -0.018368  -0.018364
    11  O   -0.000000   0.000000   0.000000   0.023685   0.000396   0.000395
    12  O   -0.000000   0.000000   0.000000   0.000977   0.004250   0.004252
    13  H   -0.000271   0.000057  -0.000382   0.000017  -0.000000  -0.000000
    14  H    0.000524   0.001483  -0.000056   0.000007  -0.000000  -0.000000
    15  H    0.002737   0.000237   0.000019   0.000017  -0.000000  -0.000000
    16  H   -0.000130  -0.000076   0.002602  -0.000028   0.000001   0.000011
    17  H   -0.000474  -0.000075  -0.000129   0.000027  -0.000000  -0.000001
    18  H   -0.000075   0.000572  -0.000076  -0.000003   0.000000  -0.000000
    19  H    0.495541  -0.013249  -0.024802   0.000027  -0.000001  -0.000000
    20  H   -0.013249   0.466357  -0.014763  -0.000003  -0.000000   0.000000
    21  H   -0.024802  -0.014763   0.478232  -0.000028   0.000011   0.000001
    22  H    0.000027  -0.000003  -0.000028   0.334587   0.001736   0.001736
    23  H   -0.000001  -0.000000   0.000011   0.001736   0.397004  -0.011142
    24  H   -0.000000   0.000000   0.000001   0.001736  -0.011142   0.397002
    25  H   -0.000000   0.000000   0.000000  -0.000136  -0.000342  -0.000342
              25
     1  C   -0.000000
     2  C   -0.000000
     3  C   -0.000000
     4  C   -0.000000
     5  O   -0.000000
     6  C   -0.000020
     7  O    0.000002
     8  N   -0.000463
     9  C    0.013075
    10  C   -0.018112
    11  O    0.003752
    12  O    0.298437
    13  H    0.000000
    14  H    0.000000
    15  H    0.000000
    16  H    0.000000
    17  H   -0.000000
    18  H    0.000000
    19  H   -0.000000
    20  H    0.000000
    21  H    0.000000
    22  H   -0.000136
    23  H   -0.000342
    24  H   -0.000342
    25  H    0.325715
          Atomic-Atomic Spin Densities.
               1          2          3          4          5          6
     1  C   -0.000842   0.000480  -0.000089  -0.000090  -0.000016  -0.000012
     2  C    0.000480   0.003100   0.005141   0.005132  -0.007677   0.000647
     3  C   -0.000089   0.005141   0.007436  -0.000802  -0.000177  -0.000262
     4  C   -0.000090   0.005132  -0.000802   0.007459  -0.000177  -0.000259
     5  O   -0.000016  -0.007677  -0.000177  -0.000177   0.060786   0.012611
     6  C   -0.000012   0.000647  -0.000262  -0.000259   0.012611  -0.121558
     7  O   -0.000106  -0.004299  -0.000085  -0.000081   0.004619   0.008405
     8  N   -0.000064   0.000529   0.000396   0.000395  -0.015669  -0.028392
     9  C    0.000001  -0.000034  -0.000045  -0.000045   0.000566   0.008426
    10  C    0.000000   0.000003  -0.000000  -0.000000  -0.000072  -0.000048
    11  O    0.000000   0.000001  -0.000000  -0.000000   0.000005   0.000106
    12  O   -0.000000  -0.000000   0.000000   0.000000  -0.000000  -0.000024
    13  H   -0.000043  -0.000093   0.000108  -0.000030   0.000092   0.000009
    14  H   -0.000076   0.000092   0.000004   0.000004  -0.000005   0.000006
    15  H   -0.000043  -0.000092  -0.000030   0.000108   0.000091   0.000008
    16  H    0.000022   0.000362   0.000061   0.000079   0.000013  -0.000018
    17  H   -0.000034  -0.000078   0.000372  -0.000111  -0.000039   0.000189
    18  H   -0.000032  -0.000863   0.001070   0.000240   0.000043   0.000033
    19  H   -0.000034  -0.000075  -0.000112   0.000368  -0.000039   0.000188
    20  H   -0.000031  -0.000863   0.000239   0.001069   0.000043   0.000033
    21  H    0.000022   0.000359   0.000081   0.000061   0.000014  -0.000018
    22  H    0.000007   0.000022  -0.000010  -0.000010   0.000367   0.002689
    23  H    0.000000  -0.000001   0.000012  -0.000027   0.000021   0.001380
    24  H    0.000000  -0.000001  -0.000027   0.000012   0.000021   0.001376
    25  H   -0.000000   0.000000   0.000000   0.000000  -0.000000  -0.000000
               7          8          9         10         11         12
     1  C   -0.000106  -0.000064   0.000001   0.000000   0.000000  -0.000000
     2  C   -0.004299   0.000529  -0.000034   0.000003   0.000001  -0.000000
     3  C   -0.000085   0.000396  -0.000045  -0.000000  -0.000000   0.000000
     4  C   -0.000081   0.000395  -0.000045  -0.000000  -0.000000   0.000000
     5  O    0.004619  -0.015669   0.000566  -0.000072   0.000005  -0.000000
     6  C    0.008405  -0.028392   0.008426  -0.000048   0.000106  -0.000024
     7  O    0.178044  -0.011770   0.002043  -0.000305   0.000001  -0.000001
     8  N   -0.011770   0.942875  -0.072323   0.003469  -0.000450   0.000299
     9  C    0.002043  -0.072323  -0.023425   0.003851   0.000517  -0.000559
    10  C   -0.000305   0.003469   0.003851  -0.000172   0.000028  -0.001744
    11  O    0.000001  -0.000450   0.000517   0.000028  -0.006243   0.000300
    12  O   -0.000001   0.000299  -0.000559  -0.001744   0.000300   0.011274
    13  H    0.000005  -0.000013   0.000001  -0.000000  -0.000000  -0.000000
    14  H   -0.000001   0.000000  -0.000000   0.000000  -0.000000   0.000000
    15  H    0.000005  -0.000013   0.000001  -0.000000  -0.000000  -0.000000
    16  H   -0.000735   0.000001  -0.000002  -0.000000   0.000000  -0.000000
    17  H    0.000209  -0.000135   0.000011  -0.000000  -0.000000  -0.000000
    18  H    0.000015  -0.000003   0.000001   0.000000   0.000000  -0.000000
    19  H    0.000208  -0.000135   0.000011  -0.000000  -0.000000  -0.000000
    20  H    0.000015  -0.000003   0.000001   0.000000   0.000000  -0.000000
    21  H   -0.000733   0.000001  -0.000002  -0.000000   0.000000  -0.000000
    22  H   -0.000146  -0.009054   0.001231  -0.000056   0.000949   0.000001
    23  H    0.000659  -0.010147   0.023772  -0.000689   0.000013  -0.000433
    24  H    0.000659  -0.010144   0.023774  -0.000692   0.000013  -0.000433
    25  H   -0.000000  -0.000004   0.000013   0.000066   0.000072  -0.000126
              13         14         15         16         17         18
     1  C   -0.000043  -0.000076  -0.000043   0.000022  -0.000034  -0.000032
     2  C   -0.000093   0.000092  -0.000092   0.000362  -0.000078  -0.000863
     3  C    0.000108   0.000004  -0.000030   0.000061   0.000372   0.001070
     4  C   -0.000030   0.000004   0.000108   0.000079  -0.000111   0.000240
     5  O    0.000092  -0.000005   0.000091   0.000013  -0.000039   0.000043
     6  C    0.000009   0.000006   0.000008  -0.000018   0.000189   0.000033
     7  O    0.000005  -0.000001   0.000005  -0.000735   0.000209   0.000015
     8  N   -0.000013   0.000000  -0.000013   0.000001  -0.000135  -0.000003
     9  C    0.000001  -0.000000   0.000001  -0.000002   0.000011   0.000001
    10  C   -0.000000   0.000000  -0.000000  -0.000000  -0.000000   0.000000
    11  O   -0.000000  -0.000000  -0.000000   0.000000  -0.000000   0.000000
    12  O   -0.000000   0.000000  -0.000000  -0.000000  -0.000000  -0.000000
    13  H    0.000308   0.000021  -0.000075   0.000001  -0.000018   0.000046
    14  H    0.000021  -0.000124   0.000020  -0.000001   0.000002  -0.000013
    15  H   -0.000075   0.000020   0.000308  -0.000002   0.000006  -0.000012
    16  H    0.000001  -0.000001  -0.000002  -0.000276   0.000093  -0.000089
    17  H   -0.000018   0.000002   0.000006   0.000093  -0.000751   0.000141
    18  H    0.000046  -0.000013  -0.000012  -0.000089   0.000141   0.002586
    19  H    0.000006   0.000002  -0.000018  -0.000014   0.000015  -0.000007
    20  H   -0.000012  -0.000013   0.000046   0.000008  -0.000007  -0.000195
    21  H   -0.000002  -0.000001   0.000001   0.000048  -0.000014   0.000008
    22  H    0.000000   0.000000   0.000000   0.000001   0.000001   0.000000
    23  H   -0.000000   0.000000   0.000000   0.000001  -0.000001  -0.000000
    24  H    0.000000   0.000000  -0.000000  -0.000003   0.000004   0.000000
    25  H    0.000000   0.000000   0.000000  -0.000000   0.000000   0.000000
              19         20         21         22         23         24
     1  C   -0.000034  -0.000031   0.000022   0.000007   0.000000   0.000000
     2  C   -0.000075  -0.000863   0.000359   0.000022  -0.000001  -0.000001
     3  C   -0.000112   0.000239   0.000081  -0.000010   0.000012  -0.000027
     4  C    0.000368   0.001069   0.000061  -0.000010  -0.000027   0.000012
     5  O   -0.000039   0.000043   0.000014   0.000367   0.000021   0.000021
     6  C    0.000188   0.000033  -0.000018   0.002689   0.001380   0.001376
     7  O    0.000208   0.000015  -0.000733  -0.000146   0.000659   0.000659
     8  N   -0.000135  -0.000003   0.000001  -0.009054  -0.010147  -0.010144
     9  C    0.000011   0.000001  -0.000002   0.001231   0.023772   0.023774
    10  C   -0.000000   0.000000  -0.000000  -0.000056  -0.000689  -0.000692
    11  O   -0.000000   0.000000   0.000000   0.000949   0.000013   0.000013
    12  O   -0.000000  -0.000000  -0.000000   0.000001  -0.000433  -0.000433
    13  H    0.000006  -0.000012  -0.000002   0.000000  -0.000000   0.000000
    14  H    0.000002  -0.000013  -0.000001   0.000000   0.000000   0.000000
    15  H   -0.000018   0.000046   0.000001   0.000000   0.000000  -0.000000
    16  H   -0.000014   0.000008   0.000048   0.000001   0.000001  -0.000003
    17  H    0.000015  -0.000007  -0.000014   0.000001  -0.000001   0.000004
    18  H   -0.000007  -0.000195   0.000008   0.000000  -0.000000   0.000000
    19  H   -0.000750   0.000141   0.000094   0.000001   0.000004  -0.000001
    20  H    0.000141   0.002584  -0.000088   0.000000   0.000000  -0.000000
    21  H    0.000094  -0.000088  -0.000281   0.000001  -0.000003   0.000001
    22  H    0.000001   0.000000   0.000001  -0.023497  -0.000029  -0.000029
    23  H    0.000004   0.000000  -0.000003  -0.000029   0.048361  -0.006500
    24  H   -0.000001  -0.000000   0.000001  -0.000029  -0.006500   0.048363
    25  H    0.000000   0.000000  -0.000000  -0.000002  -0.000005  -0.000005
              25
     1  C   -0.000000
     2  C    0.000000
     3  C    0.000000
     4  C    0.000000
     5  O   -0.000000
     6  C   -0.000000
     7  O   -0.000000
     8  N   -0.000004
     9  C    0.000013
    10  C    0.000066
    11  O    0.000072
    12  O   -0.000126
    13  H    0.000000
    14  H    0.000000
    15  H    0.000000
    16  H   -0.000000
    17  H    0.000000
    18  H    0.000000
    19  H    0.000000
    20  H    0.000000
    21  H   -0.000000
    22  H   -0.000002
    23  H   -0.000005
    24  H   -0.000005
    25  H   -0.000387
 Mulliken charges and spin densities:
               1          2
     1  C   -0.392986  -0.000980
     2  C    0.031025   0.001792
     3  C   -0.439096   0.013283
     4  C   -0.439049   0.013294
     5  O   -0.242724   0.055422
     6  C    0.483949  -0.114486
     7  O   -0.257767   0.176625
     8  N   -0.048116   0.789646
     9  C   -0.211261  -0.032218
    10  C    0.337042   0.003637
    11  O   -0.286543  -0.004687
    12  O   -0.367705   0.008556
    13  H    0.168858   0.000311
    14  H    0.171969  -0.000083
    15  H    0.168863   0.000310
    16  H    0.183962  -0.000448
    17  H    0.171017  -0.000146
    18  H    0.186758   0.002968
    19  H    0.171030  -0.000147
    20  H    0.186760   0.002966
    21  H    0.183938  -0.000451
    22  H    0.339061  -0.027563
    23  H    0.261288   0.056389
    24  H    0.261290   0.056389
    25  H    0.378434  -0.000378
 Sum of Mulliken charges =   1.00000   1.00000
 Mulliken charges and spin densities with hydrogens summed into heavy atoms:
               1          2
     1  C    0.116705  -0.000443
     2  C    0.031025   0.001792
     3  C    0.102642   0.015657
     4  C    0.102680   0.015663
     5  O   -0.242724   0.055422
     6  C    0.483949  -0.114486
     7  O   -0.257767   0.176625
     8  N    0.290945   0.762083
     9  C    0.311317   0.080559
    10  C    0.337042   0.003637
    11  O   -0.286543  -0.004687
    12  O    0.010729   0.008179
 Electronic spatial extent (au):  <R**2>=           3108.3539
 Charge=              1.0000 electrons
 Dipole moment (field-independent basis, Debye):
    X=             -2.8308    Y=             -0.1798    Z=              0.0005  Tot=              2.8365
 Quadrupole moment (field-independent basis, Debye-Ang):
   XX=            -22.6245   YY=            -71.4600   ZZ=            -65.2145
   XY=              4.0879   XZ=              0.0005   YZ=             -0.0003
 Traceless Quadrupole moment (field-independent basis, Debye-Ang):
   XX=             30.4752   YY=            -18.3603   ZZ=            -12.1148
   XY=              4.0879   XZ=              0.0005   YZ=             -0.0003
 Octapole moment (field-independent basis, Debye-Ang**2):
  XXX=           -101.4672  YYY=              0.4214  ZZZ=              0.0009  XYY=              2.2698
  XXY=             -0.0733  XXZ=             -0.0051  XZZ=             -7.3366  YZZ=             -1.6610
  YYZ=              0.0004  XYZ=              0.0013
 Hexadecapole moment (field-independent basis, Debye-Ang**3):
 XXXX=          -2088.9218 YYYY=           -439.3161 ZZZZ=           -235.0269 XXXY=            -49.4453
 XXXZ=              0.0437 YYYX=             20.4918 YYYZ=              0.0012 ZZZX=              0.0049
 ZZZY=              0.0001 XXYY=           -633.9030 XXZZ=           -551.4504 YYZZ=           -106.7398
 XXYZ=             -0.0073 YYXZ=             -0.0004 ZZXY=              1.3462
 N-N= 7.448979756228D+02 E-N=-2.947492095271D+03  KE= 6.271656677187D+02
 There are a total of      570950 grid points.
 ElSum from          density=       93.0000026394
 ElSum from atomic densities=       94.0000056227
 Hirshfeld populations at iteration   1 (CA, CB, DipXYZ):
               1          2          3          4          5
     1  C    3.040117   3.039978   0.033470   0.011110  -0.000008
     2  C    2.953589   2.945034  -0.058073   0.009259   0.000016
     3  C    3.046720   3.035457   0.040453  -0.008233  -0.011482
     4  C    3.046716   3.035447   0.040450  -0.008236   0.011473
     5  O    4.069026   4.024025   0.072193  -0.096036  -0.000016
     6  C    2.861900   2.871027  -0.031026   0.077762   0.000092
     7  O    4.158741   4.007409   0.042058   0.047561  -0.000029
     8  N    3.722244   3.119110  -0.008392   0.044131  -0.000005
     9  C    3.003874   2.950132   0.032007   0.008477  -0.000001
    10  C    2.888073   2.882686  -0.033437  -0.088014   0.000033
    11  O    4.114610   4.118758  -0.012300  -0.069911  -0.000009
    12  O    4.073284   4.065433  -0.032218   0.116449  -0.000003
    13  H    0.477960   0.477835  -0.023717   0.090663  -0.121009
    14  H    0.471797   0.471875   0.159773  -0.008958  -0.000025
    15  H    0.477960   0.477834  -0.023677   0.090720   0.120976
    16  H    0.481495   0.480838  -0.035718  -0.137765  -0.020243
    17  H    0.478814   0.478094  -0.030235   0.069185  -0.132873
    18  H    0.470487   0.467849   0.159396  -0.027281  -0.019054
    19  H    0.478811   0.478091  -0.030196   0.069246   0.132853
    20  H    0.470484   0.467847   0.159406  -0.027262   0.019016
    21  H    0.481489   0.480834  -0.035729  -0.137763   0.020318
    22  H    0.414786   0.391784   0.014551   0.181539   0.000016
    23  H    0.463075   0.420923  -0.024204  -0.115255   0.148936
    24  H    0.463074   0.420922  -0.024188  -0.115246  -0.148945
    25  H    0.390874   0.390779  -0.204814   0.118471  -0.000023
       Tot  47.000001  46.000001   0.145834   0.094614   0.000004

 Dip from Atomic Chgs             -1.259573  -0.165402   0.000198
         Total Dipole             -1.113740  -0.070788   0.000202

 Hirshfeld charges, spin densities, dipoles, and CM5 charges using IRadAn=      5:
              Q-H        S-H        Dx         Dy         Dz        Q-CM5   
     1  C   -0.080095   0.000140   0.033470   0.011110  -0.000008  -0.224624
     2  C    0.101377   0.008556  -0.058073   0.009259   0.000016   0.091408
     3  C   -0.082178   0.011263   0.040453  -0.008233  -0.011482  -0.226744
     4  C   -0.082163   0.011268   0.040450  -0.008236   0.011473  -0.226730
     5  O   -0.093051   0.045001   0.072193  -0.096036  -0.000016  -0.163084
     6  C    0.267073  -0.009127  -0.031026   0.077762   0.000092   0.394289
     7  O   -0.166150   0.151331   0.042058   0.047561  -0.000029  -0.216222
     8  N    0.158646   0.603134  -0.008392   0.044131  -0.000005  -0.197696
     9  C    0.045994   0.053741   0.032007   0.008477  -0.000001   0.011696
    10  C    0.229241   0.005386  -0.033437  -0.088014   0.000033   0.283075
    11  O   -0.233367  -0.004148  -0.012300  -0.069911  -0.000009  -0.285741
    12  O   -0.138717   0.007851  -0.032218   0.116449  -0.000003  -0.337109
    13  H    0.044205   0.000126  -0.023717   0.090663  -0.121009   0.099630
    14  H    0.056328  -0.000078   0.159773  -0.008958  -0.000025   0.109634
    15  H    0.044206   0.000125  -0.023677   0.090720   0.120976   0.099631
    16  H    0.037667   0.000657  -0.035718  -0.137765  -0.020243   0.097341
    17  H    0.043092   0.000721  -0.030235   0.069185  -0.132873   0.098357
    18  H    0.061664   0.002638   0.159396  -0.027281  -0.019054   0.114969
    19  H    0.043098   0.000720  -0.030196   0.069246   0.132853   0.098361
    20  H    0.061669   0.002637   0.159406  -0.027262   0.019016   0.114974
    21  H    0.037677   0.000655  -0.035729  -0.137763   0.020318   0.097340
    22  H    0.193430   0.023003   0.014551   0.181539   0.000016   0.400034
    23  H    0.116002   0.042153  -0.024204  -0.115255   0.148936   0.185882
    24  H    0.116004   0.042152  -0.024188  -0.115246  -0.148945   0.185885
    25  H    0.218347   0.000095  -0.204814   0.118471  -0.000023   0.395437
       Tot   0.999997   1.000000   0.145834   0.094614   0.000004   0.999997
 Hirshfeld charges and spin densities with hydrogens summed into heavy atoms:
              Q-H        S-H       Q-CM5   
     1  C    0.064643   0.000313   0.084272
     2  C    0.101377   0.008556   0.091408
     3  C    0.060245   0.015278   0.083924
     4  C    0.060280   0.015281   0.083946
     5  O   -0.093051   0.045001  -0.163084
     6  C    0.267073  -0.009127   0.394289
     7  O   -0.166150   0.151331  -0.216222
     8  N    0.352076   0.626137   0.202338
     9  C    0.278000   0.138047   0.383463
    10  C    0.229241   0.005386   0.283075
    11  O   -0.233367  -0.004148  -0.285741
    12  O    0.079630   0.007946   0.058328
 
 EQQ= 0.741278143934E-01 EQD=-0.622151368483E-01 EDD= 0.396571160091E-02
 EQQ+QD+DD= 0.158783891460E-01
 
                          Isotropic Fermi Contact Couplings
        Atom                 a.u.       MegaHertz       Gauss      10(-4) cm-1
     1  C(13)             -0.00026      -0.28752      -0.10259      -0.09591
     2  C(13)             -0.00222      -2.49594      -0.89062      -0.83256
     3  C(13)              0.00730       8.20672       2.92836       2.73747
     4  C(13)              0.00730       8.20833       2.92894       2.73800
     5  O(17)              0.00674      -4.08816      -1.45876      -1.36366
     6  C(13)             -0.04626     -52.00570     -18.55693     -17.34723
     7  O(17)              0.02531     -15.34016      -5.47375      -5.11693
     8  N(14)              0.15599      50.40031      17.98408      16.81173
     9  C(13)             -0.02668     -29.99633     -10.70344     -10.00570
    10  C(13)              0.00047       0.52359       0.18683       0.17465
    11  O(17)             -0.00194       1.17789       0.42030       0.39290
    12  O(17)              0.00067      -0.40423      -0.14424      -0.13484
    13  H(1)               0.00008       0.36569       0.13049       0.12198
    14  H(1)              -0.00005      -0.21874      -0.07805      -0.07296
    15  H(1)               0.00008       0.36454       0.13008       0.12160
    16  H(1)               0.00028       1.25364       0.44733       0.41817
    17  H(1)               0.00010       0.45815       0.16348       0.15282
    18  H(1)               0.00167       7.46057       2.66212       2.48858
    19  H(1)               0.00010       0.45705       0.16309       0.15245
    20  H(1)               0.00167       7.45667       2.66073       2.48728
    21  H(1)               0.00028       1.24434       0.44401       0.41507
    22  H(1)              -0.01416     -63.29856     -22.58650     -21.11413
    23  H(1)               0.03175     141.91732      50.63963      47.33852
    24  H(1)               0.03175     141.91888      50.64019      47.33904
    25  H(1)              -0.00025      -1.10455      -0.39413      -0.36844
 --------------------------------------------------------
       Center         ----  Spin Dipole Couplings  ----
                      3XX-RR        3YY-RR        3ZZ-RR
 --------------------------------------------------------
     1   Atom        0.002260     -0.000181     -0.002080
     2   Atom       -0.006469     -0.012368      0.018837
     3   Atom        0.003866     -0.011092      0.007226
     4   Atom        0.003864     -0.011096      0.007232
     5   Atom       -0.109344     -0.123093      0.232437
     6   Atom        0.067297      0.056503     -0.123800
     7   Atom       -0.347914     -0.338211      0.686126
     8   Atom       -0.915984     -0.906042      1.822025
     9   Atom       -0.023252     -0.035399      0.058652
    10   Atom        0.012097     -0.007209     -0.004888
    11   Atom        0.008560      0.010220     -0.018780
    12   Atom       -0.017023     -0.023279      0.040302
    13   Atom        0.001416      0.000099     -0.001515
    14   Atom        0.001595     -0.000498     -0.001097
    15   Atom        0.001416      0.000099     -0.001515
    16   Atom        0.002433      0.000037     -0.002470
    17   Atom        0.001429     -0.002321      0.000891
    18   Atom        0.003616     -0.002228     -0.001388
    19   Atom        0.001428     -0.002319      0.000891
    20   Atom        0.003617     -0.002228     -0.001388
    21   Atom        0.002430      0.000036     -0.002466
    22   Atom       -0.079683      0.101175     -0.021492
    23   Atom       -0.003361      0.007088     -0.003727
    24   Atom       -0.003362      0.007087     -0.003725
    25   Atom        0.003730     -0.001650     -0.002080
 --------------------------------------------------------
                        XY            XZ            YZ
 --------------------------------------------------------
     1   Atom        0.002128     -0.000001     -0.000001
     2   Atom        0.000605      0.000007     -0.000007
     3   Atom       -0.002976     -0.017192      0.004199
     4   Atom       -0.002980      0.017199     -0.004205
     5   Atom        0.005401      0.000045     -0.000069
     6   Atom       -0.022738      0.000006      0.000007
     7   Atom        0.000186     -0.000156     -0.000250
     8   Atom       -0.000214     -0.000215     -0.000121
     9   Atom        0.015498     -0.000009     -0.000004
    10   Atom       -0.003013      0.000001     -0.000000
    11   Atom       -0.006458      0.000003     -0.000001
    12   Atom        0.000325     -0.000007     -0.000000
    13   Atom        0.002012     -0.000855     -0.000660
    14   Atom        0.001139     -0.000000     -0.000000
    15   Atom        0.002012      0.000854      0.000659
    16   Atom       -0.000603     -0.002746      0.002074
    17   Atom       -0.000464     -0.002226     -0.000998
    18   Atom       -0.000737     -0.000581      0.000030
    19   Atom       -0.000463      0.002225      0.001000
    20   Atom       -0.000736      0.000580     -0.000030
    21   Atom       -0.000602      0.002745     -0.002075
    22   Atom       -0.019894     -0.000006      0.000008
    23   Atom        0.007756     -0.005440     -0.015189
    24   Atom        0.007756      0.005441      0.015191
    25   Atom       -0.002083      0.000000     -0.000000
 --------------------------------------------------------


 ---------------------------------------------------------------------------------
              Anisotropic Spin Dipole Couplings in Principal Axis System
 ---------------------------------------------------------------------------------

       Atom             a.u.   MegaHertz   Gauss  10(-4) cm-1        Axes

              Baa    -0.0021    -0.279    -0.100    -0.093 -0.0001  0.0007  1.0000
     1 C(13)  Bbb    -0.0014    -0.190    -0.068    -0.063 -0.5013  0.8653 -0.0007
              Bcc     0.0035     0.469     0.167     0.156  0.8653  0.5013 -0.0003
 
              Baa    -0.0124    -1.668    -0.595    -0.556 -0.1010  0.9949  0.0002
     2 C(13)  Bbb    -0.0064    -0.860    -0.307    -0.287  0.9949  0.1010 -0.0003
              Bcc     0.0188     2.528     0.902     0.843  0.0003 -0.0002  1.0000
 
              Baa    -0.0124    -1.664    -0.594    -0.555 -0.4268  0.7323 -0.5306
     3 C(13)  Bbb    -0.0112    -1.499    -0.535    -0.500  0.6153  0.6652  0.4231
              Bcc     0.0236     3.163     1.129     1.055 -0.6628  0.1459  0.7345
 
              Baa    -0.0124    -1.665    -0.594    -0.555 -0.4265  0.7327  0.5304
     4 C(13)  Bbb    -0.0112    -1.500    -0.535    -0.500  0.6156  0.6647 -0.4233
              Bcc     0.0236     3.165     1.129     1.056  0.6627 -0.1460  0.7345
 
              Baa    -0.1250     9.042     3.226     3.016 -0.3269  0.9451  0.0002
     5 O(17)  Bbb    -0.1075     7.777     2.775     2.594  0.9451  0.3269 -0.0001
              Bcc     0.2324   -16.819    -6.001    -5.610  0.0001 -0.0002  1.0000
 
              Baa    -0.1238   -16.613    -5.928    -5.541 -0.0000 -0.0000  1.0000
     6 C(13)  Bbb     0.0385     5.170     1.845     1.725  0.6201  0.7845  0.0001
              Bcc     0.0853    11.442     4.083     3.817  0.7845 -0.6201  0.0000
 
              Baa    -0.3479    25.175     8.983     8.398  0.9998 -0.0191  0.0001
     7 O(17)  Bbb    -0.3382    24.472     8.732     8.163  0.0191  0.9998  0.0002
              Bcc     0.6861   -49.648   -17.715   -16.561 -0.0002 -0.0002  1.0000
 
              Baa    -0.9160   -35.328   -12.606   -11.784  0.9998  0.0215  0.0001
     8 N(14)  Bbb    -0.9060   -34.944   -12.469   -11.656 -0.0215  0.9998  0.0000
              Bcc     1.8220    70.271    25.075    23.440 -0.0001 -0.0000  1.0000
 
              Baa    -0.0460    -6.169    -2.201    -2.058 -0.5635  0.8261 -0.0000
     9 C(13)  Bbb    -0.0127    -1.702    -0.607    -0.568  0.8261  0.5635  0.0001
              Bcc     0.0587     7.870     2.808     2.625 -0.0001 -0.0001  1.0000
 
              Baa    -0.0077    -1.029    -0.367    -0.343  0.1507  0.9886  0.0001
    10 C(13)  Bbb    -0.0049    -0.656    -0.234    -0.219 -0.0001 -0.0001  1.0000
              Bcc     0.0126     1.685     0.601     0.562  0.9886 -0.1507  0.0001
 
              Baa    -0.0188     1.359     0.485     0.453 -0.0001 -0.0000  1.0000
    11 O(17)  Bbb     0.0029    -0.208    -0.074    -0.069  0.7508  0.6605  0.0001
              Bcc     0.0159    -1.151    -0.411    -0.384 -0.6605  0.7508 -0.0001
 
              Baa    -0.0233     1.686     0.601     0.562 -0.0517  0.9987 -0.0000
    12 O(17)  Bbb    -0.0170     1.231     0.439     0.410  0.9987  0.0517  0.0001
              Bcc     0.0403    -2.916    -1.041    -0.973 -0.0001 -0.0000  1.0000
 
              Baa    -0.0018    -0.943    -0.337    -0.315  0.1377  0.1947  0.9711
    13 H(1)   Bbb    -0.0014    -0.724    -0.258    -0.242 -0.6005  0.7961 -0.0745
              Bcc     0.0031     1.668     0.595     0.556  0.7877  0.5729 -0.2265
 
              Baa    -0.0011    -0.585    -0.209    -0.195 -0.0003  0.0011  1.0000
    14 H(1)   Bbb    -0.0010    -0.533    -0.190    -0.178 -0.4022  0.9155 -0.0011
              Bcc     0.0021     1.118     0.399     0.373  0.9155  0.4022 -0.0002
 
              Baa    -0.0018    -0.943    -0.337    -0.315 -0.1378 -0.1941  0.9713
    15 H(1)   Bbb    -0.0014    -0.724    -0.258    -0.242 -0.6005  0.7962  0.0739
              Bcc     0.0031     1.667     0.595     0.556  0.7877  0.5731  0.2262
 
              Baa    -0.0044    -2.323    -0.829    -0.775  0.3204 -0.3684  0.8727
    16 H(1)   Bbb     0.0002     0.094     0.034     0.031  0.4659  0.8634  0.1934
              Bcc     0.0042     2.229     0.795     0.743  0.8248 -0.3447 -0.4483
 
              Baa    -0.0029    -1.566    -0.559    -0.523  0.2953  0.8685  0.3982
    17 H(1)   Bbb    -0.0005    -0.259    -0.092    -0.086  0.6066 -0.4924  0.6242
              Bcc     0.0034     1.825     0.651     0.609  0.7382  0.0572 -0.6722
 
              Baa    -0.0023    -1.238    -0.442    -0.413  0.1276  0.9907  0.0478
    18 H(1)   Bbb    -0.0015    -0.775    -0.276    -0.258  0.1049 -0.0614  0.9926
              Bcc     0.0038     2.013     0.718     0.671  0.9863 -0.1216 -0.1118
 
              Baa    -0.0029    -1.566    -0.559    -0.523  0.2954  0.8683 -0.3986
    19 H(1)   Bbb    -0.0005    -0.258    -0.092    -0.086 -0.6067  0.4927  0.6238
              Bcc     0.0034     1.824     0.651     0.609  0.7380  0.0575  0.6723
 
              Baa    -0.0023    -1.239    -0.442    -0.413  0.1275  0.9907 -0.0478
    20 H(1)   Bbb    -0.0015    -0.774    -0.276    -0.258 -0.1047  0.0614  0.9926
              Bcc     0.0038     2.013     0.718     0.671  0.9863 -0.1215  0.1116
 
              Baa    -0.0044    -2.322    -0.828    -0.774 -0.3205  0.3688  0.8725
    21 H(1)   Bbb     0.0002     0.094     0.034     0.031  0.4662  0.8632 -0.1936
              Bcc     0.0042     2.227     0.795     0.743  0.8246 -0.3448  0.4486
 
              Baa    -0.0818   -43.669   -15.582   -14.566  0.9941  0.1081  0.0001
    22 H(1)   Bbb    -0.0215   -11.467    -4.092    -3.825 -0.0001 -0.0001  1.0000
              Bcc     0.1033    55.136    19.674    18.391 -0.1081  0.9941  0.0001
 
              Baa    -0.0144    -7.706    -2.750    -2.570 -0.0031  0.5772  0.8166
    23 H(1)   Bbb    -0.0070    -3.725    -1.329    -1.243  0.9341 -0.2899  0.2085
              Bcc     0.0214    11.431     4.079     3.813  0.3570  0.7634 -0.5383
 
              Baa    -0.0144    -7.706    -2.750    -2.570  0.0031 -0.5773  0.8166
    24 H(1)   Bbb    -0.0070    -3.726    -1.329    -1.243  0.9341 -0.2898 -0.2085
              Bcc     0.0214    11.432     4.079     3.813  0.3570  0.7634  0.5383
 
              Baa    -0.0024    -1.260    -0.450    -0.420  0.3235  0.9462  0.0002
    25 H(1)   Bbb    -0.0021    -1.110    -0.396    -0.370 -0.0001 -0.0001  1.0000
              Bcc     0.0044     2.370     0.846     0.790  0.9462 -0.3235  0.0001
 

 ---------------------------------------------------------------------------------

 Running external command "gaunbo6 R"
         input file       "/tmp/Gau-3382970.EIn"
         output file      "/tmp/Gau-3382970.EOu"
         message file     "/tmp/Gau-3382970.EMs"
         fchk file        "/tmp/Gau-3382970.EFC"
         mat. el file     "/tmp/Gau-3382970.EUF"

 Writing WrtUnf unformatted file "/tmp/Gau-3382970.EUF"
 Gaussian matrix elements                                         Version   2 NLab=11 Len12L=8 Len4L=8
 Write SHELL TO ATOM MAP                   from file      0 offset           0 length                 184 to matrix element file.
 Write SHELL TYPES                         from file      0 offset           0 length                 184 to matrix element file.
 Write NUMBER OF PRIMITIVES PER SHELL      from file      0 offset           0 length                 184 to matrix element file.
 Write PRIMITIVE EXPONENTS                 from file      0 offset           0 length                 318 to matrix element file.
 Write CONTRACTION COEFFICIENTS            from file      0 offset           0 length                 318 to matrix element file.
 Write P(S=P) CONTRACTION COEFFICIENTS     from file      0 offset           0 length                 318 to matrix element file.
 Write COORDINATES OF EACH SHELL           from file      0 offset           0 length                 552 to matrix element file.
 Write BONDS PER ATOM                      from file      0 offset           0 length                  25 to matrix element file.
 Write BONDED ATOMS                        from file      0 offset           0 length                  48 to matrix element file.
 Write BOND TYPES                          from file      0 offset           0 length                  48 to matrix element file.
 Write ONIOM CHARGE/MULT                   from file      0 offset           0 length                  32 to matrix element file.
 Write ONIOM ATOM LAYERS                   from file      0 offset           0 length                  25 to matrix element file.
 Write ONIOM ATOM MODIFIERS                from file      0 offset           0 length                  25 to matrix element file.
 Write ONIOM ATOM TYPES                    from file      0 offset           0 length                  25 to matrix element file.
 Write ONIOM LINK ATOMS                    from file      0 offset           0 length                  25 to matrix element file.
 Write ONIOM LINK CHARGES                  from file      0 offset           0 length                  25 to matrix element file.
 Write ONIOM LINK DISTANCES                from file      0 offset           0 length                 100 to matrix element file.
 Write SYMINF INTS                         from file      0 offset           0 length                  26 to matrix element file.
 Write ROTTR TO SO                         from file      0 offset           0 length                  12 to matrix element file.
 Write GAUSSIAN SCALARS                    from file    501 offset           0 to matrix element file.
 Write OPTIMIZATION FLAGS                  from file      0 offset           0 length                  25 to matrix element file.
 Write INTEGER ISO                         from file      0 offset           0 length                  25 to matrix element file.
 Write INTEGER SPIN                        from file      0 offset           0 length                  25 to matrix element file.
 Write REAL ZEFFECTIVE                     from file      0 offset           0 length                  25 to matrix element file.
 Write REAL QUADRUPOLEMOMENT               from file      0 offset           0 length                  25 to matrix element file.
 Write REAL GFACTOR                        from file      0 offset           0 length                  25 to matrix element file.
 Write REAL ZNUCLEAR                       from file      0 offset           0 length                  25 to matrix element file.
 Write MULLIKEN CHARGES                    from file      0 offset           0 length                  25 to matrix element file.
 Write TYPE 6 CHARGES                      from file      0 offset           0 length                  25 to matrix element file.
 Write TYPE 7 CHARGES                      from file      0 offset           0 length                  25 to matrix element file.
 Write NUCLEAR GRADIENT                    from file  10584 offset           0 length                  75 to matrix element file.
 Array NUCLEAR FORCE CONSTANTS              on  file  10585 does not exist.
 Write ELECTRIC DIPOLE MOMENT              from file      0 offset           0 length                   3 to matrix element file.
 Write NON-ADIABATIC COUPLING              from file  10810 offset           0 length                  75 to matrix element file.
 Write FINITE EM FIELD                     from file  10521 offset           0 length                  35 to matrix element file.
 Write OVERLAP                             from file  10514 offset           0 length              101475 to matrix element file.
 Write CORE HAMILTONIAN ALPHA              from file  10515 offset           0 length              101475 to matrix element file.
 Write CORE HAMILTONIAN BETA               from file  10515 offset      101475 length              101475 to matrix element file.
 Write KINETIC ENERGY                      from file  10516 offset           0 length              101475 to matrix element file.
 Write ORTHOGONAL BASIS                    from file  10685 offset           0 length              202500 to matrix element file.
 Write DIPOLE INTEGRALS                    from file  10518 offset           0 length              304425 to matrix element file.
 Array DIP VEL INTEGRALS                    on  file  10572 does not exist.
[...]
  134. RY ( 9) C  3             0.00002     2.06895
  135. RY (10) C  3             0.00001     2.02117
  136. RY (11) C  3             0.00001     2.13975
  137. RY (12) C  3             0.00000     2.27260
  138. RY (13) C  3             0.00000     2.37395
  139. RY (14) C  3             0.00000     2.55293
  140. RY (15) C  3             0.00000     8.31317
  141. RY (16) C  3             0.00000     2.43217
  142. RY (17) C  3             0.00000     1.96888
  143. RY (18) C  3             0.00000     3.35820
  144. RY (19) C  3             0.00000     6.04975
  145. RY (20) C  3             0.00000     6.33576
  146. RY (21) C  3             0.00000     5.64241
  147. RY (22) C  3             0.00000     3.59379
  148. RY (23) C  3             0.00000     3.22515
  149. RY (24) C  3             0.00000     5.74669
  150. RY (25) C  3             0.00000     3.42360
  151. RY (26) C  3             0.00000     2.93896
  152. RY ( 1) C  4             0.00072     0.92008
  153. RY ( 2) C  4             0.00034     0.97619
  154. RY ( 3) C  4             0.00019     1.70963
  155. RY ( 4) C  4             0.00011     1.26435
  156. RY ( 5) C  4             0.00007     1.37375
  157. RY ( 6) C  4             0.00006     1.77021
  158. RY ( 7) C  4             0.00005     1.38689
  159. RY ( 8) C  4             0.00003     2.13454
  160. RY ( 9) C  4             0.00002     2.06931
  161. RY (10) C  4             0.00001     2.02041
  162. RY (11) C  4             0.00001     2.13960
  163. RY (12) C  4             0.00000     2.27311
  164. RY (13) C  4             0.00000     2.37134
  165. RY (14) C  4             0.00000     1.96877
  166. RY (15) C  4             0.00000     2.55304
  167. RY (16) C  4             0.00000     8.38984
  168. RY (17) C  4             0.00000     2.43209
  169. RY (18) C  4             0.00000     5.64671
  170. RY (19) C  4             0.00000     6.05028
  171. RY (20) C  4             0.00000     6.26244
  172. RY (21) C  4             0.00000     3.59227
  173. RY (22) C  4             0.00000     3.35686
  174. RY (23) C  4             0.00000     3.21969
  175. RY (24) C  4             0.00000     5.74657
  176. RY (25) C  4             0.00000     3.41976
  177. RY (26) C  4             0.00000     2.94491
  178. RY ( 1) O  5             0.00213     0.60857
  179. RY ( 2) O  5             0.00168     0.73188
  180. RY ( 3) O  5             0.00063     1.44817
  181. RY ( 4) O  5             0.00046     2.94690
  182. RY ( 5) O  5             0.00009     2.79758
  183. RY ( 6) O  5             0.00008     3.05834
  184. RY ( 7) O  5             0.00004     1.88208
  185. RY ( 8) O  5             0.00003     3.81291
  186. RY ( 9) O  5             0.00002     3.40336
  187. RY (10) O  5             0.00002     5.27419
  188. RY (11) O  5             0.00002     3.51505
  189. RY (12) O  5             0.00001     4.21614
  190. RY (13) O  5             0.00000     5.41917
  191. RY (14) O  5             0.00000     3.14274
  192. RY (15) O  5             0.00000     4.80799
  193. RY (16) O  5             0.00000     4.76495
  194. RY (17) O  5             0.00000    33.03627
  195. RY (18) O  5             0.00000     5.86682
  196. RY (19) O  5             0.00000     5.33097
  197. RY (20) O  5             0.00000     5.90807
  198. RY (21) O  5             0.00000     5.35183
  199. RY (22) O  5             0.00000     5.55770
  200. RY (23) O  5             0.00000     7.59958
  201. RY (24) O  5             0.00000     5.32796
  202. RY (25) O  5             0.00000     5.64004
  203. RY (26) O  5             0.00000     9.73535
  204. RY ( 1) C  6             0.00821     1.17490
  205. RY ( 2) C  6             0.00291     1.73818
  206. RY ( 3) C  6             0.00278     2.00998
  207. RY ( 4) C  6             0.00127     2.31429
  208. RY ( 5) C  6             0.00054     2.86939
  209. RY ( 6) C  6             0.00041     0.65032
  210. RY ( 7) C  6             0.00036     2.11154
  211. RY ( 8) C  6             0.00012     0.96753
  212. RY ( 9) C  6             0.00010     1.49383
  213. RY (10) C  6             0.00006     2.37826
  214. RY (11) C  6             0.00005     1.32518
  215. RY (12) C  6             0.00002     2.92622
  216. RY (13) C  6             0.00002     1.30417
  217. RY (14) C  6             0.00002     2.61096
  218. RY (15) C  6             0.00002     2.64363
  219. RY (16) C  6             0.00001     2.95698
  220. RY (17) C  6             0.00000     2.77690
  221. RY (18) C  6             0.00000     3.71131
  222. RY (19) C  6             0.00000     8.75346
  223. RY (20) C  6             0.00000     2.53944
  224. RY (21) C  6             0.00000     9.54958
  225. RY (22) C  6             0.00000     3.24627
  226. RY (23) C  6             0.00000     8.02845
  227. RY (24) C  6             0.00000     2.99878
  228. RY (25) C  6             0.00000     5.11761
  229. RY (26) C  6             0.00000     3.13361
  230. RY ( 1) O  7             0.00083     0.81232
  231. RY ( 2) O  7             0.00049     0.86880
  232. RY ( 3) O  7             0.00009     1.37958
  233. RY ( 4) O  7             0.00008     1.49200
  234. RY ( 5) O  7             0.00005     3.90742
  235. RY ( 6) O  7             0.00004     2.00447
  236. RY ( 7) O  7             0.00003     1.50814
  237. RY ( 8) O  7             0.00001     2.73228
  238. RY ( 9) O  7             0.00001     6.11234
  239. RY (10) O  7             0.00000     4.03096
  240. RY (11) O  7             0.00000     3.21915
  241. RY (12) O  7             0.00000     2.20562
  242. RY (13) O  7             0.00000     2.87805
  243. RY (14) O  7             0.00000     5.81817
  244. RY (15) O  7             0.00000     5.96350
  245. RY (16) O  7             0.00000    19.51131
  246. RY (17) O  7             0.00000     5.80175
  247. RY (18) O  7             0.00000     5.78945
  248. RY (19) O  7             0.00000    11.10183
  249. RY (20) O  7             0.00000    13.51633
  250. RY (21) O  7             0.00000     5.62683
  251. RY (22) O  7             0.00000     9.51534
  252. RY (23) O  7             0.00000     6.61539
  253. RY (24) O  7             0.00000     5.02108
  254. RY (25) O  7             0.00000     5.34649
  255. RY (26) O  7             0.00000     5.35983
  256. RY ( 1) N  8             0.00124     0.97411
  257. RY ( 2) N  8             0.00113     0.88378
  258. RY ( 3) N  8             0.00059     0.49444
  259. RY ( 4) N  8             0.00047     2.42197
  260. RY ( 5) N  8             0.00030     2.01074
  261. RY ( 6) N  8             0.00021     1.43610
  262. RY ( 7) N  8             0.00013     2.11389
  263. RY ( 8) N  8             0.00008     2.01527
  264. RY ( 9) N  8             0.00005     3.74788
  265. RY (10) N  8             0.00002     3.43323
  266. RY (11) N  8             0.00002     3.78902
  267. RY (12) N  8             0.00001     3.41510
  268. RY (13) N  8             0.00000     2.83996
  269. RY (14) N  8             0.00000     2.07354
  270. RY (15) N  8             0.00000     3.68725
  271. RY (16) N  8             0.00000     4.86518
  272. RY (17) N  8             0.00000     4.22776
  273. RY (18) N  8             0.00000    22.71375
  274. RY (19) N  8             0.00000     5.59411
  275. RY (20) N  8             0.00000     4.11836
  276. RY (21) N  8             0.00000     4.12284
  277. RY (22) N  8             0.00000     7.46861
  278. RY (23) N  8             0.00000     4.30682
  279. RY (24) N  8             0.00000     4.14124
  280. RY (25) N  8             0.00000     4.39960
  281. RY (26) N  8             0.00000     3.66522
  282. RY ( 1) C  9             0.00158     1.02162
  283. RY ( 2) C  9             0.00091     0.85619
  284. RY ( 3) C  9             0.00032     1.34926
  285. RY ( 4) C  9             0.00031     0.67133
  286. RY ( 5) C  9             0.00024     1.45814
  287. RY ( 6) C  9             0.00016     1.40636
  288. RY ( 7) C  9             0.00015     1.74894
  289. RY ( 8) C  9             0.00012     1.13448
  290. RY ( 9) C  9             0.00005     1.44334
  291. RY (10) C  9             0.00005     2.79001
  292. RY (11) C  9             0.00003     2.58960
  293. RY (12) C  9             0.00003     2.00610
  294. RY (13) C  9             0.00001     1.95019
  295. RY (14) C  9             0.00001     3.67558
  296. RY (15) C  9             0.00000     2.66806
  297. RY (16) C  9             0.00000     3.79490
  298. RY (17) C  9             0.00000     2.02540
  299. RY (18) C  9             0.00000    15.37615
  300. RY (19) C  9             0.00000     2.49486
  301. RY (20) C  9             0.00000     4.06274
  302. RY (21) C  9             0.00000     3.34547
  303. RY (22) C  9             0.00000     3.11383
  304. RY (23) C  9             0.00000     5.28024
  305. RY (24) C  9             0.00000     5.47555
  306. RY (25) C  9             0.00000     3.28044
  307. RY (26) C  9             0.00000     3.21962
  308. RY ( 1) C 10             0.00846     1.11887
  309. RY ( 2) C 10             0.00299     1.63454
  310. RY ( 3) C 10             0.00232     1.72084
  311. RY ( 4) C 10             0.00113     2.20966
  312. RY ( 5) C 10             0.00031     2.93548
  313. RY ( 6) C 10             0.00027     1.38935
  314. RY ( 7) C 10             0.00014     1.79564
  315. RY ( 8) C 10             0.00003     3.24580
  316. RY ( 9) C 10             0.00003     0.93799
  317. RY (10) C 10             0.00001     3.26717
  318. RY (11) C 10             0.00001     1.96727
  319. RY (12) C 10             0.00000     2.04783
  320. RY (13) C 10             0.00000     1.70071
  321. RY (14) C 10             0.00000     3.57332
  322. RY (15) C 10             0.00000     2.83962
  323. RY (16) C 10             0.00000     2.94057
  324. RY (17) C 10             0.00000     2.09554
  325. RY (18) C 10             0.00000     5.63088
  326. RY (19) C 10             0.00000     2.74256
  327. RY (20) C 10             0.00000    10.21377
  328. RY (21) C 10             0.00000     3.19944
  329. RY (22) C 10             0.00000     4.03878
  330. RY (23) C 10             0.00000     6.26899
  331. RY (24) C 10             0.00000     2.69309
  332. RY (25) C 10             0.00000     3.05725
  333. RY (26) C 10             0.00000     2.27004
  334. RY ( 1) O 11             0.00110     0.80076
  335. RY ( 2) O 11             0.00043     0.86451
  336. RY ( 3) O 11             0.00010     1.64347
  337. RY ( 4) O 11             0.00006     2.55286
  338. RY ( 5) O 11             0.00002     1.39028
  339. RY ( 6) O 11             0.00002     2.06408
  340. RY ( 7) O 11             0.00001     2.73416
  341. RY ( 8) O 11             0.00000     1.92668
  342. RY ( 9) O 11             0.00000     4.10495
  343. RY (10) O 11             0.00000    18.57255
  344. RY (11) O 11             0.00000     3.70755
  345. RY (12) O 11             0.00000     5.75820
  346. RY (13) O 11             0.00000     5.98463
  347. RY (14) O 11             0.00000     3.07123
  348. RY (15) O 11             0.00000     5.72073
  349. RY (16) O 11             0.00000     1.94278
  350. RY (17) O 11             0.00000     5.10124
  351. RY (18) O 11             0.00000     6.22622
  352. RY (19) O 11             0.00000     7.16902
  353. RY (20) O 11             0.00000     5.19705
  354. RY (21) O 11             0.00000     6.46971
  355. RY (22) O 11             0.00000    16.31352
  356. RY (23) O 11             0.00000     5.73431
  357. RY (24) O 11             0.00000     5.34754
  358. RY (25) O 11             0.00000    11.85349
  359. RY (26) O 11             0.00000     5.67977
  360. RY ( 1) O 12             0.00060     0.64695
  361. RY ( 2) O 12             0.00044     0.92807
  362. RY ( 3) O 12             0.00031     2.33904
  363. RY ( 4) O 12             0.00005     1.64604
  364. RY ( 5) O 12             0.00003     1.44982
  365. RY ( 6) O 12             0.00001     2.02456
  366. RY ( 7) O 12             0.00000     1.72846
  367. RY ( 8) O 12             0.00000     3.32338
  368. RY ( 9) O 12             0.00000    22.08276
  369. RY (10) O 12             0.00000     3.09248
  370. RY (11) O 12             0.00000     8.51653
  371. RY (12) O 12             0.00000    12.11318
  372. RY (13) O 12             0.00000     4.36230
  373. RY (14) O 12             0.00000     5.60412
  374. RY (15) O 12             0.00000     2.32737
  375. RY (16) O 12             0.00000     5.69554
  376. RY (17) O 12             0.00000     7.30101
  377. RY (18) O 12             0.00000     3.30737
  378. RY (19) O 12             0.00000     6.26500
  379. RY (20) O 12             0.00000     4.50174
  380. RY (21) O 12             0.00000     5.85837
  381. RY (22) O 12             0.00000     9.31208
  382. RY (23) O 12             0.00000     5.63344
  383. RY (24) O 12             0.00000     5.46387
  384. RY (25) O 12             0.00000     6.67869
  385. RY (26) O 12             0.00000     5.39522
  386. RY ( 1) H 13             0.00018     0.79554
  387. RY ( 2) H 13             0.00002     2.10671
  388. RY ( 3) H 13             0.00001     2.14660
  389. RY ( 4) H 13             0.00001     2.08228
  390. RY ( 5) H 13             0.00000     2.20806
  391. RY ( 1) H 14             0.00005     1.19140
  392. RY ( 2) H 14             0.00003     1.92638
  393. RY ( 3) H 14             0.00001     2.04291
  394. RY ( 4) H 14             0.00001     2.03383
  395. RY ( 5) H 14             0.00000     2.08193
  396. RY ( 1) H 15             0.00018     0.79556
  397. RY ( 2) H 15             0.00002     2.10668
  398. RY ( 3) H 15             0.00001     2.14664
  399. RY ( 4) H 15             0.00001     2.08228
  400. RY ( 5) H 15             0.00000     2.20803
  401. RY ( 1) H 16             0.00020     0.75289
  402. RY ( 2) H 16             0.00003     2.09545
  403. RY ( 3) H 16             0.00002     2.22411
  404. RY ( 4) H 16             0.00001     2.15157
  405. RY ( 5) H 16             0.00000     2.18053
  406. RY ( 1) H 17             0.00020     0.74338
  407. RY ( 2) H 17             0.00003     2.08720
  408. RY ( 3) H 17             0.00001     2.19577
  409. RY ( 4) H 17             0.00001     2.06459
  410. RY ( 5) H 17             0.00000     2.21249
  411. RY ( 1) H 18             0.00006     1.19864
  412. RY ( 2) H 18             0.00003     1.94535
  413. RY ( 3) H 18             0.00001     2.03364
  414. RY ( 4) H 18             0.00001     2.06242
  415. RY ( 5) H 18             0.00000     2.00484
  416. RY ( 1) H 19             0.00020     0.74338
  417. RY ( 2) H 19             0.00003     2.08721
  418. RY ( 3) H 19             0.00001     2.19580
  419. RY ( 4) H 19             0.00001     2.06455
  420. RY ( 5) H 19             0.00000     2.21241
  421. RY ( 1) H 20             0.00006     1.19854
  422. RY ( 2) H 20             0.00003     1.94533
  423. RY ( 3) H 20             0.00001     2.03374
  424. RY ( 4) H 20             0.00001     2.06217
  425. RY ( 5) H 20             0.00000     2.00503
  426. RY ( 1) H 21             0.00020     0.75269
  427. RY ( 2) H 21             0.00003     2.09557
  428. RY ( 3) H 21             0.00002     2.22405
  429. RY ( 4) H 21             0.00001     2.15111
  430. RY ( 5) H 21             0.00000     2.18094
  431. RY ( 1) H 22             0.00055     1.23364
  432. RY ( 2) H 22             0.00006     1.26325
  433. RY ( 3) H 22             0.00004     2.20378
  434. RY ( 4) H 22             0.00002     1.86303
  435. RY ( 5) H 22             0.00001     2.92236
  436. RY ( 1) H 23             0.00018     0.75357
  437. RY ( 2) H 23             0.00003     2.11527
  438. RY ( 3) H 23             0.00002     1.75774
  439. RY ( 4) H 23             0.00001     2.46061
  440. RY ( 5) H 23             0.00001     1.90775
  441. RY ( 1) H 24             0.00018     0.75351
  442. RY ( 2) H 24             0.00003     2.11522
  443. RY ( 3) H 24             0.00002     1.75779
  444. RY ( 4) H 24             0.00001     2.46057
  445. RY ( 5) H 24             0.00001     1.90785
  446. RY ( 1) H 25             0.00040     0.88412
  447. RY ( 2) H 25             0.00028     1.81443
  448. RY ( 3) H 25             0.00024     1.42447
  449. RY ( 4) H 25             0.00006     2.02524
  450. RY ( 5) H 25             0.00000     3.00607
          -------------------------------
                 Total Lewis   45.15118  ( 98.1547%)
           Valence non-Lewis    0.78376  (  1.7038%)
           Rydberg non-Lewis    0.06506  (  0.1414%)
          -------------------------------
               Total unit  1   46.00000  (100.0000%)
              Charge unit  1    1.00000

 $CHOOSE
  ALPHA
   LONE 5 2 7 2 8 1 11 2 12 2 END
   BOND S 1 2 S 1 13 S 1 14 S 1 15 S 2 3 S 2 4 S 2 5 S 3 16 S 3 17 S 3 18
        S 4 19 S 4 20 S 4 21 S 5 6 D 6 7 S 6 8 S 8 9 S 8 22 S 9 10 S 9 23
        S 9 24 D 10 11 S 10 12 S 12 25 END
  END
  BETA
   LONE 5 2 7 2 11 2 12 2 END
   BOND S 1 2 S 1 13 S 1 14 S 1 15 S 2 3 S 2 4 S 2 5 S 3 16 S 3 17 S 3 18
        S 4 19 S 4 20 S 4 21 S 5 6 D 6 7 S 6 8 S 8 9 S 8 22 S 9 10 S 9 23
        S 9 24 D 10 11 S 10 12 S 12 25 END
  END
 $END

 NBO analysis completed in 7.99 CPU seconds (8 wall seconds)
 Maximum scratch memory used by NBO was 2166203 words (16.53 MB)
 Maximum scratch memory used by G16NBO was 415929 words (3.17 MB)

 Opening RunExU unformatted file "/tmp/Gau-3382970.EUF"
 Read unf file /tmp/Gau-3382970.EUF:
 Label Gaussian matrix elements                                         IVers= 2 NLab= 2 Version=AS64L-G16RevC.01
 Title Ac2_rdkit_conf_4_SP_charge_p                                    
 NAtoms=    25 NBasis=   450 NBsUse=   450 ICharg=     1 Multip=     2 NE=    93 Len12L=8 Len4L=8 IOpCl= 1 ICGU=112
 GAUSSIAN SCALARS                    NI= 1 NR= 1 NTot=       1 LenBuf=    2 NRI=1 N=    1000
 NPA CHARGES                         NI= 0 NR= 1 NTot=      25 LenBuf= 2048 NRI=1 N=      25
 Recovered energy= -629.910839786     dipole=     -1.113712542182     -0.070746227163      0.000202184573
 Unable to Open any file for archive entry.
 1\1\GINC-NODE17\SP\UM062X\def2TZVP\C7H13N1O4(1+,2)\SVSS\29-Jan-2024\0\
 \# pop=(nbo6, hirshfeld) m062x/def2tzvp\\Ac2_rdkit_conf_4_SP_charge_p\
 \1,2\C,0,-3.308862,1.539993,0.000472\C,0,-2.603121,0.192574,0.000031\C
 ,0,-2.942612,-0.586903,1.263197\C,0,-2.943069,-0.586303,-1.263386\O,0,
 -1.196259,0.564946,-0.000103\C,0,-0.242965,-0.377887,-0.000222\O,0,-0.
 416612,-1.575343,-0.000014\N,0,0.9847,0.19552,-0.000139\C,0,2.161161,-
 0.621998,-0.000062\C,0,3.379096,0.261295,-0.000041\O,0,3.361191,1.4598
 41,-0.000029\O,0,4.506147,-0.460661,0.000158\H,0,-3.032631,2.112495,0.
 886151\H,0,-4.38889,1.392494,0.000621\H,0,-3.032934,2.112914,-0.885031
 \H,0,-2.460693,-1.561266,1.266412\H,0,-2.626275,-0.026517,2.144299\H,0
 ,-4.023335,-0.726266,1.316636\H,0,-2.626995,-0.025521,-2.144331\H,0,-4
 .023818,-0.725578,-1.316533\H,0,-2.461207,-1.560689,-1.267221\H,0,1.08
 8965,1.197792,-0.000203\H,0,2.205485,-1.275955,-0.875452\H,0,2.205408,
 -1.275905,0.875368\H,0,5.250519,0.158486,0.00023\\Version=AS64L-G16Rev
 C.01\State=2-A\HF=-629.9108398\S2=0.761191\S2-1=0.\S2A=0.750069\RMSD=1
 .827e-09\Dipole=1.1137125,-0.0707462,-0.0002022\Quadrupole=22.6575375,
 -13.6504689,-9.0070686,-3.039286,0.0003475,0.000246\PG=C01 [X(C7H13N1O
 4)]\\@
 The archive entry for this job was punched.


 WHERE THERE IS MUCH DESIRE TO LEARN, THERE OF NECESSITY WILL BE
 MUCH ARGUING, MUCH WRITING, MANY OPINIONS; FOR OPINION IN GOOD MEN
 IS BUT KNOWLEDGE IN THE MAKING. -- JOHN MILTON.
 Job cpu time:       0 days  0 hours 40 minutes 48.4 seconds.
 Elapsed time:       0 days  0 hours  5 minutes 21.2 seconds.
 File lengths (MBytes):  RWF=    196 Int=      0 D2E=      0 Chk=     15 Scr=      1
 Normal termination of Gaussian 16 at Mon Jan 29 15:36:13 2024.
