Job Start Time: Mon Jan 29 15:30:52 MST 2024
SLURM Job ID: 229855
SLURM Job Name: Ac3_rdkit_conf_1_SP_charge_p
 Entering Gaussian System, Link 0=/opt/apps/Gaussian/G16C/g16/g16
 Initial command:
 /opt/apps/Gaussian/G16C/g16/l1.exe "/tmp/Gau-3383126.inp" -scrdir="/tmp/"
 Entering Link 1 = /opt/apps/Gaussian/G16C/g16/l1.exe PID=   3383127.
  
 Copyright (c) 1988-2019, Gaussian, Inc.  All Rights Reserved.
  
 This is part of the Gaussian(R) 16 program.  It is based on
 the Gaussian(R) 09 system (copyright 2009, Gaussian, Inc.),
 the Gaussian(R) 03 system (copyright 2003, Gaussian, Inc.),
 the Gaussian(R) 98 system (copyright 1998, Gaussian, Inc.),
 the Gaussian(R) 94 system (copyright 1995, Gaussian, Inc.),
 the Gaussian 92(TM) system (copyright 1992, Gaussian, Inc.),
 the Gaussian 90(TM) system (copyright 1990, Gaussian, Inc.),
 the Gaussian 88(TM) system (copyright 1988, Gaussian, Inc.),
 the Gaussian 86(TM) system (copyright 1986, Carnegie Mellon
 University), and the Gaussian 82(TM) system (copyright 1983,
 Carnegie Mellon University). Gaussian is a federally registered
 trademark of Gaussian, Inc.
  
 This software contains proprietary and confidential information,
 including trade secrets, belonging to Gaussian, Inc.
  
 This software is provided under written license and may be
 used, copied, transmitted, or stored only in accord with that
 written license.
  
 The following legend is applicable only to US Government
 contracts under FAR:
  
                    RESTRICTED RIGHTS LEGEND
  
 Use, reproduction and disclosure by the US Government is
 subject to restrictions as set forth in subparagraphs (a)
 and (c) of the Commercial Computer Software - Restricted
 Rights clause in FAR 52.227-19.
  
 Gaussian, Inc.
 340 Quinnipiac St., Bldg. 40, Wallingford CT 06492
  
  
 ---------------------------------------------------------------
 Warning -- This program may not be used in any manner that
 competes with the business of Gaussian, Inc. or will provide
 assistance to any competitor of Gaussian, Inc.  The licensee
 of this program is prohibited from giving any competitor of
 Gaussian, Inc. access to this program.  By using this program,
 the user acknowledges that Gaussian, Inc. is engaged in the
 business of creating and licensing software in the field of
 computational chemistry and represents and warrants to the
 licensee that it is not a competitor of Gaussian, Inc. and that
 it will not use this program in any manner prohibited above.
 ---------------------------------------------------------------
  

 Cite this work as:
 Gaussian 16, Revision C.01,
 M. J. Frisch, G. W. Trucks, H. B. Schlegel, G. E. Scuseria, 
 M. A. Robb, J. R. Cheeseman, G. Scalmani, V. Barone, 
 G. A. Petersson, H. Nakatsuji, X. Li, M. Caricato, A. V. Marenich, 
 J. Bloino, B. G. Janesko, R. Gomperts, B. Mennucci, H. P. Hratchian, 
 J. V. Ortiz, A. F. Izmaylov, J. L. Sonnenberg, D. Williams-Young, 
 F. Ding, F. Lipparini, F. Egidi, J. Goings, B. Peng, A. Petrone, 
 T. Henderson, D. Ranasinghe, V. G. Zakrzewski, J. Gao, N. Rega, 
 G. Zheng, W. Liang, M. Hada, M. Ehara, K. Toyota, R. Fukuda, 
 J. Hasegawa, M. Ishida, T. Nakajima, Y. Honda, O. Kitao, H. Nakai, 
 T. Vreven, K. Throssell, J. A. Montgomery, Jr., J. E. Peralta, 
 F. Ogliaro, M. J. Bearpark, J. J. Heyd, E. N. Brothers, K. N. Kudin, 
 V. N. Staroverov, T. A. Keith, R. Kobayashi, J. Normand, 
 K. Raghavachari, A. P. Rendell, J. C. Burant, S. S. Iyengar, 
 J. Tomasi, M. Cossi, J. M. Millam, M. Klene, C. Adamo, R. Cammi, 
 J. W. Ochterski, R. L. Martin, K. Morokuma, O. Farkas, 
 J. B. Foresman, and D. J. Fox, Gaussian, Inc., Wallingford CT, 2019.
 
 ******************************************
 Gaussian 16:  AS64L-G16RevC.01  3-Jul-2019
                29-Jan-2024 
 ******************************************
 %nprocshared=8
 Will use up to    8 processors via shared memory.
 %mem=16GB
 --------------------------------------
 # pop=(nbo6, hirshfeld) m062x/def2tzvp
 --------------------------------------
 1/38=1,172=1/1;
 2/12=2,17=6,18=5,40=1/2;
 3/5=44,7=101,11=2,25=1,30=1,74=-55/1,2,3;
 4//1;
 5/5=2,38=5/2;
 6/7=2,8=2,9=2,10=2,28=1,40=1,79=1,113=1,114=1,124=3103,126=1/1,12;
 99/5=1,9=1/99;
 ----------------------------
 Ac3_rdkit_conf_1_SP_charge_p
 ----------------------------
 Symbolic Z-matrix:
 Charge =  1 Multiplicity = 2
 O                    -0.67005   3.85444  -0.0003 
 C                     0.26848   3.10948  -0.00007 
 O                     1.54143   3.53322  -0.00003 
 C                     0.1568    1.62291   0.00021 
 C                    -1.12163   1.06904  -0.00005 
 C                    -1.26496  -0.3033    0.00047 
 C                    -2.62736  -0.94335  -0.00004 
 F                    -3.60801  -0.04189   0.00244 
 F                    -2.79498  -1.72592   1.07261 
 F                    -2.79629  -1.72136  -1.0758 
 C                    -0.14962  -1.13603   0.00125 
 C                     1.11228  -0.57431   0.00159 
 C                     2.34455  -1.4386    0.0001 
 F                     2.04785  -2.73844   0.02113 
 F                     3.11698  -1.18412   1.06229 
 F                     3.09329  -1.21392  -1.08566 
 C                     1.27525   0.80632   0.00099 
 H                     1.5225    4.50103  -0.00015 
 H                    -1.98077   1.72609  -0.00046 
 H                    -0.27125  -2.21142   0.00197 
 H                     2.26616   1.24093   0.00151 
 
                          Input orientation:                          
 ---------------------------------------------------------------------
 Center     Atomic      Atomic             Coordinates (Angstroms)
 Number     Number       Type             X           Y           Z
 ---------------------------------------------------------------------
      1          8           0       -0.670054    3.854440   -0.000298
      2          6           0        0.268476    3.109484   -0.000070
      3          8           0        1.541432    3.533217   -0.000025
      4          6           0        0.156797    1.622910    0.000214
      5          6           0       -1.121626    1.069042   -0.000049
      6          6           0       -1.264958   -0.303300    0.000469
      7          6           0       -2.627355   -0.943352   -0.000042
      8          9           0       -3.608006   -0.041886    0.002441
      9          9           0       -2.794981   -1.725924    1.072605
     10          9           0       -2.796293   -1.721364   -1.075801
     11          6           0       -0.149622   -1.136028    0.001246
     12          6           0        1.112276   -0.574307    0.001587
     13          6           0        2.344553   -1.438597    0.000096
     14          9           0        2.047851   -2.738436    0.021133
     15          9           0        3.116982   -1.184121    1.062286
     16          9           0        3.093293   -1.213924   -1.085657
     17          6           0        1.275245    0.806318    0.000992
     18          1           0        1.522502    4.501026   -0.000151
     19          1           0       -1.980774    1.726087   -0.000457
     20          1           0       -0.271248   -2.211422    0.001967
     21          1           0        2.266165    1.240928    0.001511
 ---------------------------------------------------------------------
                    Distance matrix (angstroms):
                    1          2          3          4          5
     1  O    0.000000
     2  C    1.198248   0.000000
     3  O    2.234693   1.341628   0.000000
     4  C    2.379792   1.490763   2.359340   0.000000
     5  C    2.821765   2.468965   3.628228   1.393246   0.000000
     6  C    4.200085   3.741459   4.753387   2.394091   1.379807
     7  C    5.181683   4.981096   6.117063   3.786450   2.513354
     8  F    4.879849   4.995823   6.268818   4.116466   2.723280
     9  F    6.066869   5.823794   6.900259   4.591046   3.429656
    10  F    6.063595   5.821263   6.898099   4.589414   3.427553
    11  C    5.017532   4.266050   4.966036   2.775902   2.409798
    12  C    4.773940   3.779195   4.129883   2.395977   2.773250
    13  C    6.091313   4.999514   5.036262   3.762858   4.278160
    14  F    7.131163   6.112675   6.292101   4.753721   4.954081
    15  F    6.392012   5.260953   5.085680   4.215461   4.916411
    16  F    6.405396   5.277305   5.110990   4.224897   4.914877
    17  C    3.615970   2.513595   2.739860   1.384828   2.411227
    18  H    2.285908   1.873225   0.967994   3.185703   4.332427
    19  H    2.499575   2.640627   3.958744   2.140060   1.081593
    20  H    6.078958   5.348210   6.023843   3.858151   3.388892
    21  H    3.930882   2.735373   2.404128   2.143676   3.392149
                    6          7          8          9         10
     6  C    0.000000
     7  C    1.505255   0.000000
     8  F    2.357587   1.332037   0.000000
     9  F    2.348256   1.338316   2.154587   0.000000
    10  F    2.348244   1.338320   2.154560   2.148411   0.000000
    11  C    1.391909   2.485214   3.627336   2.914397   2.916765
    12  C    2.392632   3.757797   4.750214   4.211883   4.213480
    13  C    3.783843   4.996512   6.114227   5.258103   5.259830
    14  F    4.111571   5.008026   6.265816   5.058043   5.069855
    15  F    4.593985   5.846701   6.903147   5.936747   6.310853
    16  F    4.582931   5.829029   6.889488   6.292218   5.911414
    17  C    2.771982   4.276872   4.956369   4.911959   4.911831
    18  H    5.554411   6.845624   6.852749   7.652867   7.650304
    19  H    2.151931   2.746629   2.402836   3.705506   3.702209
    20  H    2.151370   2.675677   3.980055   2.784098   2.788834
    21  H    3.854020   5.358882   6.012612   5.963611   5.963577
                   11         12         13         14         15
    11  C    0.000000
    12  C    1.381274   0.000000
    13  C    2.512461   1.505160   0.000000
    14  F    2.719742   2.357782   1.333438   0.000000
    15  F    3.434941   2.348574   1.337779   2.154747   0.000000
    16  F    3.421100   2.348539   1.337890   2.154546   2.148280
    17  C    2.408932   1.390210   2.486577   3.628031   2.912076
    18  H    5.879828   5.091885   5.996240   7.258530   5.999336
    19  H    3.397767   3.854708   5.359448   6.013506   5.965388
    20  H    1.082250   2.143428   2.727577   2.378304   3.695907
    21  H    3.389092   2.150939   2.680672   3.985396   2.780287
                   16         17         18         19         20
    16  F    0.000000
    17  C    2.927026   0.000000
    18  H    6.025476   3.702972   0.000000
    19  H    5.963848   3.383436   4.469142   0.000000
    20  H    3.673971   3.390929   6.947985   4.292606   0.000000
    21  H    2.809337   1.082039   3.343842   4.274561   4.284529
                   21
    21  H    0.000000
 Stoichiometry    C9H4F6O2(1+,2)
 Framework group  C1[X(C9H4F6O2)]
 Deg. of freedom    57
 Full point group                 C1      NOp   1
 Largest Abelian subgroup         C1      NOp   1
 Largest concise Abelian subgroup C1      NOp   1
                         Standard orientation:                         
 ---------------------------------------------------------------------
 Center     Atomic      Atomic             Coordinates (Angstroms)
 Number     Number       Type             X           Y           Z
 ---------------------------------------------------------------------
      1          8           0        0.670054    3.854440    0.000298
      2          6           0       -0.268476    3.109484    0.000070
      3          8           0       -1.541432    3.533217    0.000025
      4          6           0       -0.156797    1.622910   -0.000214
      5          6           0        1.121626    1.069042    0.000049
      6          6           0        1.264958   -0.303300   -0.000469
      7          6           0        2.627355   -0.943352    0.000042
      8          9           0        3.608006   -0.041886   -0.002441
      9          9           0        2.794981   -1.725924   -1.072605
     10          9           0        2.796293   -1.721364    1.075801
     11          6           0        0.149622   -1.136028   -0.001246
     12          6           0       -1.112276   -0.574307   -0.001587
     13          6           0       -2.344553   -1.438597   -0.000096
     14          9           0       -2.047851   -2.738436   -0.021133
     15          9           0       -3.116982   -1.184121   -1.062286
     16          9           0       -3.093293   -1.213924    1.085657
     17          6           0       -1.275245    0.806318   -0.000992
     18          1           0       -1.522502    4.501026    0.000151
     19          1           0        1.980774    1.726087    0.000457
     20          1           0        0.271248   -2.211422   -0.001967
     21          1           0       -2.266165    1.240928   -0.001511
 ---------------------------------------------------------------------
 Rotational constants (GHZ):           0.4640807           0.3732519           0.2228687
 Standard basis: def2TZVP (5D, 7F)
 There are   636 symmetry adapted cartesian basis functions of A   symmetry.
 There are   551 symmetry adapted basis functions of A   symmetry.
   551 basis functions,   899 primitive gaussians,   636 cartesian basis functions
    64 alpha electrons       63 beta electrons
       nuclear repulsion energy      1277.6550863679 Hartrees.
 NAtoms=   21 NActive=   21 NUniq=   21 SFac= 1.00D+00 NAtFMM=   60 NAOKFM=F Big=F
 Integral buffers will be    131072 words long.
 Raffenetti 2 integral format.
 Two-electron integral symmetry is turned on.
 One-electron integrals computed using PRISM.
   1 Symmetry operations used in ECPInt.
 ECPInt:  NShTT=   20706 NPrTT=   66816 LenC2=   18048 LenP2D=   41666.
 LDataN:  DoStor=T MaxTD1= 6 Len=  172
 NBasis=   551 RedAO= T EigKep=  6.56D-06  NBF=   551
 NBsUse=   551 1.00D-06 EigRej= -1.00D+00 NBFU=   551
 ExpMin= 9.52D-02 ExpMax= 3.55D+04 ExpMxC= 1.21D+03 IAcc=3 IRadAn=         5 AccDes= 0.00D+00
 Harris functional with IExCor= 1009 and IRadAn=       5 diagonalized for initial guess.
 HarFok:  IExCor= 1009 AccDes= 0.00D+00 IRadAn=         5 IDoV= 1 UseB2=F ITyADJ=14
 ICtDFT=  3500011 ScaDFX=  1.000000  1.000000  1.000000  1.000000
 FoFCou: FMM=F IPFlag=           0 FMFlag=      100000 FMFlg1=           0
         NFxFlg=           0 DoJE=T BraDBF=F KetDBF=T FulRan=T
         wScrn=  0.000000 ICntrl=       500 IOpCl=  0 I1Cent=   200000004 NGrid=           0
         NMat0=    1 NMatS0=      1 NMatT0=    0 NMatD0=    1 NMtDS0=    0 NMtDT0=    0
 Petite list used in FoFCou.
 Initial guess <Sx>= 0.0000 <Sy>= 0.0000 <Sz>= 0.5000 <S**2>= 0.7500 S= 0.5000
 Requested convergence on RMS density matrix=1.00D-08 within 128 cycles.
 Requested convergence on MAX density matrix=1.00D-06.
 Requested convergence on             energy=1.00D-06.
 No special actions if energy rises.
 Integral accuracy reduced to 1.0D-05 until final iterations.
 Restarting incremental Fock formation.
 Rare condition: small coef for last iteration:  0.000D+00
 Problem detected with inexpensive integrals.
 Switching to full accuracy and repeating last cycle.
 SCF Done:  E(UM062X) =  -1094.60855171     A.U. after   42 cycles
            NFock= 42  Conv=0.65D-08     -V/T= 2.0038
 <Sx>= 0.0000 <Sy>= 0.0000 <Sz>= 0.5000 <S**2>= 0.7711 S= 0.5105
 <L.S>=  0.00000000000    
 Annihilation of the first spin contaminant:
 S**2 before annihilation     0.7711,   after     0.7501

 **********************************************************************

            Population analysis using the SCF Density.

 **********************************************************************

 Orbital symmetries:
 Alpha Orbitals:
       Occupied  (A) (A) (A) (A) (A) (A) (A) (A) (A) (A) (A) (A)
                 (A) (A) (A) (A) (A) (A) (A) (A) (A) (A) (A) (A)
                 (A) (A) (A) (A) (A) (A) (A) (A) (A) (A) (A) (A)
                 (A) (A) (A) (A) (A) (A) (A) (A) (A) (A) (A) (A)
                 (A) (A) (A) (A) (A) (A) (A) (A) (A) (A) (A) (A)
                 (A) (A) (A) (A)
       Virtual   (A) (A) (A) (A) (A) (A) (A) (A) (A) (A) (A) (A)
                 (A) (A) (A) (A) (A) (A) (A) (A) (A) (A) (A) (A)
                 (A) (A) (A) (A) (A) (A) (A) (A) (A) (A) (A) (A)
                 (A) (A) (A) (A) (A) (A) (A) (A) (A) (A) (A) (A)
                 (A) (A) (A) (A) (A) (A) (A) (A) (A) (A) (A) (A)
                 (A) (A) (A) (A) (A) (A) (A) (A) (A) (A) (A) (A)
                 (A) (A) (A) (A) (A) (A) (A) (A) (A) (A) (A) (A)
                 (A) (A) (A) (A) (A) (A) (A) (A) (A) (A) (A) (A)
                 (A) (A) (A) (A) (A) (A) (A) (A) (A) (A) (A) (A)
                 (A) (A) (A) (A) (A) (A) (A) (A) (A) (A) (A) (A)
                 (A) (A) (A) (A) (A) (A) (A) (A) (A) (A) (A) (A)
                 (A) (A) (A) (A) (A) (A) (A) (A) (A) (A) (A) (A)
                 (A) (A) (A) (A) (A) (A) (A) (A) (A) (A) (A) (A)
                 (A) (A) (A) (A) (A) (A) (A) (A) (A) (A) (A) (A)
                 (A) (A) (A) (A) (A) (A) (A) (A) (A) (A) (A) (A)
                 (A) (A) (A) (A) (A) (A) (A) (A) (A) (A) (A) (A)
                 (A) (A) (A) (A) (A) (A) (A) (A) (A) (A) (A) (A)
                 (A) (A) (A) (A) (A) (A) (A) (A) (A) (A) (A) (A)
                 (A) (A) (A) (A) (A) (A) (A) (A) (A) (A) (A) (A)
                 (A) (A) (A) (A) (A) (A) (A) (A) (A) (A) (A) (A)
                 (A) (A) (A) (A) (A) (A) (A) (A) (A) (A) (A) (A)
                 (A) (A) (A) (A) (A) (A) (A) (A) (A) (A) (A) (A)
                 (A) (A) (A) (A) (A) (A) (A) (A) (A) (A) (A) (A)
                 (A) (A) (A) (A) (A) (A) (A) (A) (A) (A) (A) (A)
                 (A) (A) (A) (A) (A) (A) (A) (A) (A) (A) (A) (A)
                 (A) (A) (A) (A) (A) (A) (A) (A) (A) (A) (A) (A)
                 (A) (A) (A) (A) (A) (A) (A) (A) (A) (A) (A) (A)
                 (A) (A) (A) (A) (A) (A) (A) (A) (A) (A) (A) (A)
                 (A) (A) (A) (A) (A) (A) (A) (A) (A) (A) (A) (A)
                 (A) (A) (A) (A) (A) (A) (A) (A) (A) (A) (A) (A)
                 (A) (A) (A) (A) (A) (A) (A) (A) (A) (A) (A) (A)
                 (A) (A) (A) (A) (A) (A) (A) (A) (A) (A) (A) (A)
                 (A) (A) (A) (A) (A) (A) (A) (A) (A) (A) (A) (A)
                 (A) (A) (A) (A) (A) (A) (A) (A) (A) (A) (A) (A)
                 (A) (A) (A) (A) (A) (A) (A) (A) (A) (A) (A) (A)
                 (A) (A) (A) (A) (A) (A) (A) (A) (A) (A) (A) (A)
                 (A) (A) (A) (A) (A) (A) (A) (A) (A) (A) (A) (A)
                 (A) (A) (A) (A) (A) (A) (A) (A) (A) (A) (A) (A)
                 (A) (A) (A) (A) (A) (A) (A) (A) (A) (A) (A) (A)
                 (A) (A) (A) (A) (A) (A) (A) (A) (A) (A) (A) (A)
                 (A) (A) (A) (A) (A) (A) (A)
 Beta  Orbitals:
       Occupied  (A) (A) (A) (A) (A) (A) (A) (A) (A) (A) (A) (A)
                 (A) (A) (A) (A) (A) (A) (A) (A) (A) (A) (A) (A)
                 (A) (A) (A) (A) (A) (A) (A) (A) (A) (A) (A) (A)
                 (A) (A) (A) (A) (A) (A) (A) (A) (A) (A) (A) (A)
                 (A) (A) (A) (A) (A) (A) (A) (A) (A) (A) (A) (A)
                 (A) (A) (A)
       Virtual   (A) (A) (A) (A) (A) (A) (A) (A) (A) (A) (A) (A)
                 (A) (A) (A) (A) (A) (A) (A) (A) (A) (A) (A) (A)
                 (A) (A) (A) (A) (A) (A) (A) (A) (A) (A) (A) (A)
                 (A) (A) (A) (A) (A) (A) (A) (A) (A) (A) (A) (A)
                 (A) (A) (A) (A) (A) (A) (A) (A) (A) (A) (A) (A)
                 (A) (A) (A) (A) (A) (A) (A) (A) (A) (A) (A) (A)
                 (A) (A) (A) (A) (A) (A) (A) (A) (A) (A) (A) (A)
                 (A) (A) (A) (A) (A) (A) (A) (A) (A) (A) (A) (A)
                 (A) (A) (A) (A) (A) (A) (A) (A) (A) (A) (A) (A)
                 (A) (A) (A) (A) (A) (A) (A) (A) (A) (A) (A) (A)
                 (A) (A) (A) (A) (A) (A) (A) (A) (A) (A) (A) (A)
                 (A) (A) (A) (A) (A) (A) (A) (A) (A) (A) (A) (A)
                 (A) (A) (A) (A) (A) (A) (A) (A) (A) (A) (A) (A)
                 (A) (A) (A) (A) (A) (A) (A) (A) (A) (A) (A) (A)
                 (A) (A) (A) (A) (A) (A) (A) (A) (A) (A) (A) (A)
                 (A) (A) (A) (A) (A) (A) (A) (A) (A) (A) (A) (A)
                 (A) (A) (A) (A) (A) (A) (A) (A) (A) (A) (A) (A)
                 (A) (A) (A) (A) (A) (A) (A) (A) (A) (A) (A) (A)
                 (A) (A) (A) (A) (A) (A) (A) (A) (A) (A) (A) (A)
                 (A) (A) (A) (A) (A) (A) (A) (A) (A) (A) (A) (A)
                 (A) (A) (A) (A) (A) (A) (A) (A) (A) (A) (A) (A)
                 (A) (A) (A) (A) (A) (A) (A) (A) (A) (A) (A) (A)
                 (A) (A) (A) (A) (A) (A) (A) (A) (A) (A) (A) (A)
                 (A) (A) (A) (A) (A) (A) (A) (A) (A) (A) (A) (A)
                 (A) (A) (A) (A) (A) (A) (A) (A) (A) (A) (A) (A)
                 (A) (A) (A) (A) (A) (A) (A) (A) (A) (A) (A) (A)
                 (A) (A) (A) (A) (A) (A) (A) (A) (A) (A) (A) (A)
                 (A) (A) (A) (A) (A) (A) (A) (A) (A) (A) (A) (A)
                 (A) (A) (A) (A) (A) (A) (A) (A) (A) (A) (A) (A)
                 (A) (A) (A) (A) (A) (A) (A) (A) (A) (A) (A) (A)
                 (A) (A) (A) (A) (A) (A) (A) (A) (A) (A) (A) (A)
                 (A) (A) (A) (A) (A) (A) (A) (A) (A) (A) (A) (A)
                 (A) (A) (A) (A) (A) (A) (A) (A) (A) (A) (A) (A)
                 (A) (A) (A) (A) (A) (A) (A) (A) (A) (A) (A) (A)
                 (A) (A) (A) (A) (A) (A) (A) (A) (A) (A) (A) (A)
                 (A) (A) (A) (A) (A) (A) (A) (A) (A) (A) (A) (A)
                 (A) (A) (A) (A) (A) (A) (A) (A) (A) (A) (A) (A)
                 (A) (A) (A) (A) (A) (A) (A) (A) (A) (A) (A) (A)
                 (A) (A) (A) (A) (A) (A) (A) (A) (A) (A) (A) (A)
                 (A) (A) (A) (A) (A) (A) (A) (A) (A) (A) (A) (A)
                 (A) (A) (A) (A) (A) (A) (A) (A)
 The electronic state is 2-A.
 Alpha  occ. eigenvalues --  -25.45212 -25.45211 -25.45176 -25.44229 -25.44089
 Alpha  occ. eigenvalues --  -25.44069 -19.84979 -19.80339 -10.98711 -10.97484
 Alpha  occ. eigenvalues --  -10.86823 -10.85059 -10.84278 -10.81517 -10.81227
 Alpha  occ. eigenvalues --  -10.81105 -10.80319  -1.64264  -1.63210  -1.54819
 Alpha  occ. eigenvalues --   -1.54596  -1.53828  -1.53532  -1.42149  -1.32606
 Alpha  occ. eigenvalues --   -1.25256  -1.15558  -1.12924  -1.02019  -1.01167
 Alpha  occ. eigenvalues --   -0.98382  -0.93672  -0.91398  -0.87611  -0.86720
 Alpha  occ. eigenvalues --   -0.86585  -0.85578  -0.85208  -0.83468  -0.81783
 Alpha  occ. eigenvalues --   -0.80301  -0.76942  -0.75159  -0.75150  -0.74199
 Alpha  occ. eigenvalues --   -0.74145  -0.73239  -0.73124  -0.71003  -0.70997
 Alpha  occ. eigenvalues --   -0.70586  -0.69884  -0.69384  -0.68890  -0.68526
 Alpha  occ. eigenvalues --   -0.68263  -0.67634  -0.67304  -0.65473  -0.63946
 Alpha  occ. eigenvalues --   -0.59811  -0.58283  -0.55929  -0.54861
 Alpha virt. eigenvalues --   -0.26379  -0.24189  -0.12670  -0.08339  -0.06041
 Alpha virt. eigenvalues --   -0.05706  -0.04550  -0.03927  -0.03702  -0.01241
 Alpha virt. eigenvalues --    0.00181   0.00360   0.00529   0.00870   0.03911
 Alpha virt. eigenvalues --    0.04652   0.05321   0.05385   0.05716   0.06781
 Alpha virt. eigenvalues --    0.07751   0.07776   0.08030   0.08805   0.11104
 Alpha virt. eigenvalues --    0.11828   0.12280   0.13475   0.14441   0.14612
 Alpha virt. eigenvalues --    0.15480   0.15664   0.15977   0.16337   0.16396
 Alpha virt. eigenvalues --    0.17435   0.18633   0.19394   0.21245   0.21923
 Alpha virt. eigenvalues --    0.22842   0.24137   0.24425   0.24811   0.24821
 Alpha virt. eigenvalues --    0.26587   0.27792   0.29091   0.29507   0.30730
 Alpha virt. eigenvalues --    0.32715   0.33516   0.33544   0.34726   0.34977
 Alpha virt. eigenvalues --    0.36947   0.38410   0.40036   0.40565   0.42043
 Alpha virt. eigenvalues --    0.42366   0.42475   0.44290   0.44914   0.45290
 Alpha virt. eigenvalues --    0.45562   0.48017   0.48757   0.48944   0.49969
 Alpha virt. eigenvalues --    0.50829   0.51000   0.52040   0.52206   0.54436
 Alpha virt. eigenvalues --    0.56041   0.56202   0.58039   0.58210   0.59341
 Alpha virt. eigenvalues --    0.60517   0.61581   0.61723   0.62838   0.63088
 Alpha virt. eigenvalues --    0.63481   0.64019   0.65115   0.66155   0.67306
 Alpha virt. eigenvalues --    0.68556   0.69052   0.69147   0.69940   0.72630
 Alpha virt. eigenvalues --    0.73786   0.73974   0.74174   0.76176   0.77153
 Alpha virt. eigenvalues --    0.78334   0.80305   0.80323   0.80984   0.82386
 Alpha virt. eigenvalues --    0.85072   0.85235   0.85285   0.86478   0.87496
 Alpha virt. eigenvalues --    0.87753   0.88239   0.89316   0.90633   0.92633
 Alpha virt. eigenvalues --    0.93640   0.94585   0.95973   0.98296   0.99997
 Alpha virt. eigenvalues --    1.03121   1.03968   1.05440   1.05975   1.09276
 Alpha virt. eigenvalues --    1.09864   1.12565   1.14115   1.15786   1.16168
 Alpha virt. eigenvalues --    1.16770   1.16898   1.19459   1.20247   1.21448
 Alpha virt. eigenvalues --    1.23044   1.23971   1.25889   1.26634   1.31683
 Alpha virt. eigenvalues --    1.31731   1.33282   1.35831   1.36235   1.38837
 Alpha virt. eigenvalues --    1.42116   1.43105   1.43178   1.45187   1.46130
 Alpha virt. eigenvalues --    1.48203   1.48305   1.49777   1.53375   1.54651
 Alpha virt. eigenvalues --    1.55063   1.55217   1.59814   1.62015   1.64121
 Alpha virt. eigenvalues --    1.65508   1.69525   1.70942   1.71571   1.73983
 Alpha virt. eigenvalues --    1.75423   1.75913   1.77146   1.78043   1.78863
 Alpha virt. eigenvalues --    1.79178   1.79550   1.82152   1.82310   1.83515
 Alpha virt. eigenvalues --    1.84688   1.85325   1.85855   1.86723   1.88041
 Alpha virt. eigenvalues --    1.90264   1.90694   1.92073   1.92853   1.93776
 Alpha virt. eigenvalues --    1.95068   1.98485   1.99121   2.01881   2.02755
 Alpha virt. eigenvalues --    2.05584   2.07259   2.08956   2.09396   2.11621
 Alpha virt. eigenvalues --    2.11934   2.14464   2.17779   2.18566   2.19815
 Alpha virt. eigenvalues --    2.20723   2.22558   2.23966   2.25163   2.25450
 Alpha virt. eigenvalues --    2.26612   2.27074   2.30169   2.31230   2.31410
 Alpha virt. eigenvalues --    2.32532   2.35550   2.37095   2.38663   2.39454
 Alpha virt. eigenvalues --    2.40023   2.42247   2.42892   2.43438   2.44122
 Alpha virt. eigenvalues --    2.45559   2.47273   2.47694   2.48126   2.50502
 Alpha virt. eigenvalues --    2.51393   2.51911   2.55386   2.56982   2.58450
 Alpha virt. eigenvalues --    2.58816   2.59620   2.60271   2.63609   2.64210
 Alpha virt. eigenvalues --    2.64982   2.66563   2.68271   2.68496   2.69758
 Alpha virt. eigenvalues --    2.71007   2.72660   2.75052   2.75310   2.75470
 Alpha virt. eigenvalues --    2.75608   2.76646   2.78784   2.79588   2.80933
 Alpha virt. eigenvalues --    2.82646   2.84124   2.84351   2.87315   2.88315
 Alpha virt. eigenvalues --    2.89085   2.90313   2.91995   2.92433   2.93158
 Alpha virt. eigenvalues --    2.95833   2.95907   2.96657   2.98094   2.99098
 Alpha virt. eigenvalues --    2.99703   3.00425   3.01805   3.02555   3.03365
 Alpha virt. eigenvalues --    3.03800   3.05167   3.05460   3.07973   3.08734
 Alpha virt. eigenvalues --    3.10517   3.11342   3.11829   3.12637   3.13263
 Alpha virt. eigenvalues --    3.13713   3.15288   3.15445   3.17952   3.18058
 Alpha virt. eigenvalues --    3.18546   3.19983   3.20176   3.20770   3.22340
 Alpha virt. eigenvalues --    3.23412   3.23636   3.26430   3.27719   3.29305
 Alpha virt. eigenvalues --    3.30310   3.32841   3.36076   3.36922   3.39247
 Alpha virt. eigenvalues --    3.40170   3.42077   3.42184   3.46657   3.48512
 Alpha virt. eigenvalues --    3.50795   3.51004   3.52848   3.57630   3.59476
 Alpha virt. eigenvalues --    3.60127   3.60877   3.61396   3.65872   3.66639
 Alpha virt. eigenvalues --    3.68239   3.69002   3.69419   3.71186   3.73963
 Alpha virt. eigenvalues --    3.75983   3.77940   3.79655   3.80291   3.81134
 Alpha virt. eigenvalues --    3.82165   3.82766   3.84093   3.84409   3.85694
 Alpha virt. eigenvalues --    3.87024   3.87681   3.88159   3.91806   3.94022
 Alpha virt. eigenvalues --    3.95293   3.95890   3.96779   3.98667   4.01080
 Alpha virt. eigenvalues --    4.02919   4.04917   4.07694   4.09365   4.10797
 Alpha virt. eigenvalues --    4.11704   4.14674   4.20749   4.21491   4.33156
 Alpha virt. eigenvalues --    4.35066   4.36905   4.39086   4.42028   4.42682
 Alpha virt. eigenvalues --    4.47956   4.52888   4.61158   4.69228   4.70358
 Alpha virt. eigenvalues --    4.81252   4.84329   4.95031   4.96510   4.96951
 Alpha virt. eigenvalues --    4.98700   5.00728   5.04372   5.05232   5.08519
 Alpha virt. eigenvalues --    5.11501   5.14984   5.17075   5.19489   5.21956
 Alpha virt. eigenvalues --    5.25636   5.34038   5.34106   5.40075   5.41847
 Alpha virt. eigenvalues --    5.49590   5.66126   5.72477   5.77723   5.98761
 Alpha virt. eigenvalues --    6.12371   6.14310   6.23142   6.27150   6.35290
 Alpha virt. eigenvalues --    6.52414   6.55329   6.64141   6.64849   6.66250
 Alpha virt. eigenvalues --    6.67189   6.70993   6.71107   6.71553   6.71888
 Alpha virt. eigenvalues --    6.72071   6.72121   6.72444   6.72591   6.72698
 Alpha virt. eigenvalues --    6.73082   6.73334   6.73484   6.73774   6.74180
 Alpha virt. eigenvalues --    6.74749   6.75635   6.76756   6.82927   6.83907
 Alpha virt. eigenvalues --    6.84122   6.84877   6.86607   6.88069   6.90245
 Alpha virt. eigenvalues --    6.91292   6.92774   6.93543   6.94045   6.98574
 Alpha virt. eigenvalues --    6.99484   6.99759   7.20266   7.20548   7.21465
 Alpha virt. eigenvalues --    7.21762   7.22226   7.25964   7.26941   7.34399
 Alpha virt. eigenvalues --    7.35416   7.42095   7.43130   7.45342   7.46343
 Alpha virt. eigenvalues --    8.12752   8.13804   8.15873   8.16838   8.16951
 Alpha virt. eigenvalues --    8.17883   8.30158   8.31202   8.32044   8.33490
 Alpha virt. eigenvalues --    8.39828   8.43028   8.52586   8.53568   8.59750
 Alpha virt. eigenvalues --    8.60872   8.62757   8.63820   8.72361   8.73721
 Alpha virt. eigenvalues --    8.77560   8.78842   8.81477   8.82471   8.83157
 Alpha virt. eigenvalues --    8.84176   8.90659   8.92990   8.97598   8.99647
 Alpha virt. eigenvalues --   22.00977  22.65780  22.68327  22.79273  22.87246
 Alpha virt. eigenvalues --   22.89916  22.92298  23.13716  23.37811  43.81552
 Alpha virt. eigenvalues --   43.88858  57.10222  57.17674  57.25042  57.26351
 Alpha virt. eigenvalues --   57.37820  57.44168
  Beta  occ. eigenvalues --  -25.45172 -25.45157 -25.45156 -25.44232 -25.44075
  Beta  occ. eigenvalues --  -25.44055 -19.84967 -19.80322 -10.98744 -10.97488
  Beta  occ. eigenvalues --  -10.86834 -10.84822 -10.84070 -10.81490 -10.81237
  Beta  occ. eigenvalues --  -10.81100 -10.80345  -1.64180  -1.63194  -1.54760
  Beta  occ. eigenvalues --   -1.54439  -1.53820  -1.53495  -1.42104  -1.32554
  Beta  occ. eigenvalues --   -1.24152  -1.13813  -1.12747  -1.01524  -1.00892
  Beta  occ. eigenvalues --   -0.97981  -0.93340  -0.91206  -0.87452  -0.86443
  Beta  occ. eigenvalues --   -0.86393  -0.85541  -0.85151  -0.83097  -0.81446
  Beta  occ. eigenvalues --   -0.79925  -0.76717  -0.75050  -0.74316  -0.74043
  Beta  occ. eigenvalues --   -0.73562  -0.73074  -0.72725  -0.70688  -0.70381
  Beta  occ. eigenvalues --   -0.70379  -0.69550  -0.69301  -0.68803  -0.68184
  Beta  occ. eigenvalues --   -0.67437  -0.67301  -0.65855  -0.65216  -0.63742
  Beta  occ. eigenvalues --   -0.58085  -0.55770  -0.54796
  Beta virt. eigenvalues --   -0.41633  -0.23287  -0.21222  -0.11590  -0.08236
  Beta virt. eigenvalues --   -0.06345  -0.05668  -0.04306  -0.03666  -0.03210
  Beta virt. eigenvalues --   -0.01099   0.00208   0.00345   0.00523   0.01150
  Beta virt. eigenvalues --    0.03850   0.04314   0.05202   0.05272   0.06210
  Beta virt. eigenvalues --    0.06828   0.07338   0.07696   0.08378   0.09137
  Beta virt. eigenvalues --    0.10880   0.12090   0.12441   0.13426   0.14081
  Beta virt. eigenvalues --    0.14694   0.15533   0.15713   0.16140   0.16272
  Beta virt. eigenvalues --    0.16544   0.17737   0.18761   0.19257   0.21250
  Beta virt. eigenvalues --    0.21796   0.22565   0.23704   0.24404   0.24415
  Beta virt. eigenvalues --    0.24802   0.26499   0.28038   0.28950   0.29789
  Beta virt. eigenvalues --    0.30858   0.33108   0.33879   0.33945   0.34971
  Beta virt. eigenvalues --    0.35205   0.36877   0.38338   0.40061   0.40678
  Beta virt. eigenvalues --    0.42122   0.42335   0.42541   0.44146   0.45212
  Beta virt. eigenvalues --    0.45350   0.45511   0.48043   0.48804   0.49180
  Beta virt. eigenvalues --    0.50234   0.50393   0.50919   0.51890   0.52443
  Beta virt. eigenvalues --    0.54350   0.56080   0.56339   0.58148   0.58295
  Beta virt. eigenvalues --    0.59826   0.60504   0.61436   0.61864   0.62272
  Beta virt. eigenvalues --    0.63195   0.63630   0.64050   0.65068   0.66236
  Beta virt. eigenvalues --    0.67329   0.68583   0.69084   0.69198   0.69537
  Beta virt. eigenvalues --    0.72310   0.73941   0.74171   0.74238   0.76488
  Beta virt. eigenvalues --    0.77123   0.78285   0.80303   0.80571   0.80940
  Beta virt. eigenvalues --    0.82299   0.85016   0.85259   0.85429   0.86261
  Beta virt. eigenvalues --    0.87563   0.87680   0.88446   0.89236   0.90521
  Beta virt. eigenvalues --    0.92813   0.93834   0.94868   0.96222   0.98469
  Beta virt. eigenvalues --    1.00286   1.03390   1.04111   1.06031   1.06088
  Beta virt. eigenvalues --    1.09610   1.09993   1.12910   1.15107   1.16038
  Beta virt. eigenvalues --    1.16569   1.16983   1.17159   1.19809   1.20542
  Beta virt. eigenvalues --    1.21794   1.23286   1.24053   1.26779   1.26824
  Beta virt. eigenvalues --    1.32171   1.32546   1.33684   1.36102   1.36920
  Beta virt. eigenvalues --    1.40155   1.42252   1.43244   1.43371   1.45643
  Beta virt. eigenvalues --    1.46627   1.48636   1.49600   1.50004   1.53593
  Beta virt. eigenvalues --    1.55246   1.55247   1.55926   1.59924   1.62354
  Beta virt. eigenvalues --    1.64375   1.66085   1.69732   1.71619   1.71765
  Beta virt. eigenvalues --    1.74352   1.75806   1.76449   1.77481   1.78124
  Beta virt. eigenvalues --    1.79469   1.79537   1.79796   1.82279   1.82806
  Beta virt. eigenvalues --    1.83688   1.85053   1.85482   1.86450   1.86944
  Beta virt. eigenvalues --    1.89258   1.90445   1.91327   1.92739   1.93652
  Beta virt. eigenvalues --    1.94579   1.95732   1.98982   1.99650   2.01900
  Beta virt. eigenvalues --    2.02764   2.05722   2.07597   2.09974   2.10264
  Beta virt. eigenvalues --    2.12437   2.12486   2.15177   2.18052   2.18814
  Beta virt. eigenvalues --    2.19947   2.20824   2.22905   2.24336   2.25601
  Beta virt. eigenvalues --    2.25875   2.26855   2.27540   2.30552   2.31786
  Beta virt. eigenvalues --    2.32176   2.32999   2.35957   2.37500   2.38992
  Beta virt. eigenvalues --    2.40474   2.42195   2.42869   2.43458   2.44532
  Beta virt. eigenvalues --    2.45308   2.45728   2.47589   2.48379   2.49308
  Beta virt. eigenvalues --    2.52100   2.52481   2.52951   2.55762   2.57597
  Beta virt. eigenvalues --    2.59379   2.60481   2.61251   2.61482   2.64176
  Beta virt. eigenvalues --    2.65194   2.65563   2.67558   2.68999   2.69359
  Beta virt. eigenvalues --    2.70164   2.71453   2.73110   2.75423   2.75697
  Beta virt. eigenvalues --    2.76628   2.76829   2.77447   2.79768   2.80170
  Beta virt. eigenvalues --    2.81409   2.83085   2.84862   2.85286   2.87760
  Beta virt. eigenvalues --    2.88539   2.89533   2.91627   2.92548   2.93097
  Beta virt. eigenvalues --    2.94270   2.96777   2.96848   2.97739   2.98407
  Beta virt. eigenvalues --    2.99558   3.00728   3.00808   3.01947   3.02763
  Beta virt. eigenvalues --    3.03872   3.04094   3.06145   3.06330   3.08680
  Beta virt. eigenvalues --    3.09204   3.11247   3.11951   3.12149   3.13164
  Beta virt. eigenvalues --    3.14033   3.14111   3.15990   3.16555   3.18316
  Beta virt. eigenvalues --    3.18586   3.19185   3.20732   3.20926   3.21226
  Beta virt. eigenvalues --    3.22885   3.24410   3.24554   3.26883   3.28665
  Beta virt. eigenvalues --    3.30063   3.31478   3.33849   3.37393   3.37537
  Beta virt. eigenvalues --    3.40442   3.41012   3.42650   3.43200   3.47410
  Beta virt. eigenvalues --    3.49777   3.51826   3.51943   3.53447   3.58140
  Beta virt. eigenvalues --    3.60081   3.60636   3.61639   3.61702   3.66616
  Beta virt. eigenvalues --    3.67608   3.69489   3.69642   3.70432   3.72346
  Beta virt. eigenvalues --    3.74622   3.76629   3.78759   3.80322   3.80895
  Beta virt. eigenvalues --    3.81979   3.82963   3.83178   3.84868   3.85065
  Beta virt. eigenvalues --    3.86064   3.87533   3.88456   3.88869   3.92491
  Beta virt. eigenvalues --    3.94670   3.96351   3.98382   3.98791   3.99450
  Beta virt. eigenvalues --    4.01729   4.04087   4.07743   4.09525   4.10455
  Beta virt. eigenvalues --    4.12078   4.13637   4.16242   4.22483   4.22647
  Beta virt. eigenvalues --    4.34175   4.36666   4.38664   4.41330   4.44813
  Beta virt. eigenvalues --    4.45075   4.49482   4.55578   4.63137   4.70904
  Beta virt. eigenvalues --    4.73349   4.82913   4.85695   4.97457   4.98636
  Beta virt. eigenvalues --    4.98752   4.99213   5.02655   5.05303   5.06049
  Beta virt. eigenvalues --    5.10207   5.14980   5.15264   5.19330   5.19653
  Beta virt. eigenvalues --    5.22007   5.26695   5.34093   5.35147   5.40379
  Beta virt. eigenvalues --    5.42771   5.50170   5.66428   5.72571   5.77847
  Beta virt. eigenvalues --    5.98865   6.12485   6.14435   6.23198   6.27243
  Beta virt. eigenvalues --    6.35453   6.52463   6.55414   6.64254   6.64934
  Beta virt. eigenvalues --    6.66265   6.67192   6.71004   6.71144   6.71595
  Beta virt. eigenvalues --    6.71889   6.72086   6.72147   6.72494   6.72602
  Beta virt. eigenvalues --    6.72736   6.73093   6.73357   6.73502   6.73789
  Beta virt. eigenvalues --    6.74210   6.74770   6.75653   6.76805   6.82940
  Beta virt. eigenvalues --    6.83939   6.84129   6.84885   6.86633   6.88081
  Beta virt. eigenvalues --    6.90287   6.91297   6.92807   6.93598   6.94059
  Beta virt. eigenvalues --    6.98621   6.99511   6.99784   7.20352   7.20612
  Beta virt. eigenvalues --    7.21478   7.21861   7.22241   7.26076   7.26977
  Beta virt. eigenvalues --    7.34433   7.35420   7.42127   7.43136   7.45368
  Beta virt. eigenvalues --    7.46361   8.12845   8.13830   8.15937   8.16853
  Beta virt. eigenvalues --    8.17022   8.17900   8.30231   8.31221   8.32134
  Beta virt. eigenvalues --    8.33527   8.39880   8.43061   8.52641   8.53570
  Beta virt. eigenvalues --    8.59853   8.60888   8.62815   8.63837   8.72437
  Beta virt. eigenvalues --    8.73745   8.77623   8.78870   8.81552   8.82485
  Beta virt. eigenvalues --    8.83181   8.84179   8.90715   8.93022   8.97635
  Beta virt. eigenvalues --    8.99663  22.01295  22.66474  22.68585  22.79427
  Beta virt. eigenvalues --   22.87351  22.90841  22.92589  23.14232  23.38035
  Beta virt. eigenvalues --   43.81550  43.88857  57.10225  57.17677  57.25043
  Beta virt. eigenvalues --   57.26352  57.37821  57.44169
          Condensed to atoms (all electrons):
               1          2          3          4          5          6
     1  O    7.735469   0.632650  -0.074702  -0.108767   0.029579   0.008623
     2  C    0.632650   4.484550   0.405862   0.245479  -0.057902  -0.004011
     3  O   -0.074702   0.405862   7.871079  -0.148404   0.007945  -0.000387
     4  C   -0.108767   0.245479  -0.148404   5.242115   0.445723  -0.034337
     5  C    0.029579  -0.057902   0.007945   0.445723   5.254728   0.260245
     6  C    0.008623  -0.004011  -0.000387  -0.034337   0.260245   5.075170
     7  C   -0.000072  -0.000229  -0.000003   0.002376  -0.069519   0.445129
     8  F   -0.000003   0.000117   0.000000   0.004573   0.012781  -0.054435
     9  F   -0.000000   0.000009  -0.000000   0.000317   0.006630  -0.030970
    10  F   -0.000000   0.000009  -0.000000   0.000322   0.006548  -0.030722
    11  C   -0.000045   0.003963   0.000623  -0.025726  -0.061950   0.318601
    12  C   -0.000218  -0.001666   0.000614  -0.059725  -0.055933  -0.016874
    13  C   -0.000001  -0.000672  -0.000238   0.004517  -0.000258   0.004020
    14  F   -0.000000   0.000004   0.000000  -0.000050  -0.000269   0.005220
    15  F   -0.000000   0.000026  -0.000000   0.000618  -0.000258   0.000272
    16  F   -0.000000   0.000022  -0.000000   0.000345  -0.000261   0.000249
    17  C    0.003132  -0.011832   0.021883   0.349723  -0.031779  -0.035245
    18  H    0.004518  -0.023159   0.303205   0.020737  -0.000745  -0.000018
    19  H    0.011730  -0.011761   0.000517  -0.004977   0.374600  -0.007086
    20  H   -0.000001   0.000110   0.000001  -0.000081   0.009527  -0.023069
    21  H    0.000128  -0.005291   0.008262  -0.010467   0.005067  -0.001506
               7          8          9         10         11         12
     1  O   -0.000072  -0.000003  -0.000000  -0.000000  -0.000045  -0.000218
     2  C   -0.000229   0.000117   0.000009   0.000009   0.003963  -0.001666
     3  O   -0.000003   0.000000  -0.000000  -0.000000   0.000623   0.000614
     4  C    0.002376   0.004573   0.000317   0.000322  -0.025726  -0.059725
     5  C   -0.069519   0.012781   0.006630   0.006548  -0.061950  -0.055933
     6  C    0.445129  -0.054435  -0.030970  -0.030722   0.318601  -0.016874
     7  C    4.156973   0.326519   0.325561   0.325623  -0.029355   0.001429
     8  F    0.326519   8.919317  -0.043362  -0.043384   0.004297  -0.000148
     9  F    0.325561  -0.043362   8.919709  -0.045949  -0.006335   0.000305
    10  F    0.325623  -0.043384  -0.045949   8.919606  -0.006488   0.000332
    11  C   -0.029355   0.004297  -0.006335  -0.006488   5.226992   0.367477
    12  C    0.001429  -0.000148   0.000305   0.000332   0.367477   5.121041
    13  C   -0.000298   0.000002   0.000023   0.000020  -0.058780   0.453586
    14  F   -0.000036   0.000000   0.000000   0.000000   0.014097  -0.060194
    15  F    0.000006  -0.000000   0.000000  -0.000000   0.005521  -0.040305
    16  F    0.000006  -0.000000  -0.000000   0.000000   0.005169  -0.039145
    17  C    0.000925  -0.000205  -0.000326  -0.000337  -0.052889   0.351504
    18  H    0.000000   0.000000   0.000000   0.000000  -0.000000  -0.000005
    19  H   -0.009170   0.005562  -0.000020  -0.000022   0.002773   0.001086
    20  H   -0.001343   0.000297   0.003688   0.003640   0.375643  -0.003893
    21  H    0.000056  -0.000001  -0.000001  -0.000001   0.010117  -0.028683
              13         14         15         16         17         18
     1  O   -0.000001  -0.000000  -0.000000  -0.000000   0.003132   0.004518
     2  C   -0.000672   0.000004   0.000026   0.000022  -0.011832  -0.023159
     3  O   -0.000238   0.000000  -0.000000  -0.000000   0.021883   0.303205
     4  C    0.004517  -0.000050   0.000618   0.000345   0.349723   0.020737
     5  C   -0.000258  -0.000269  -0.000258  -0.000261  -0.031779  -0.000745
     6  C    0.004020   0.005220   0.000272   0.000249  -0.035245  -0.000018
     7  C   -0.000298  -0.000036   0.000006   0.000006   0.000925   0.000000
     8  F    0.000002   0.000000  -0.000000  -0.000000  -0.000205   0.000000
     9  F    0.000023   0.000000   0.000000  -0.000000  -0.000326   0.000000
    10  F    0.000020   0.000000  -0.000000   0.000000  -0.000337   0.000000
    11  C   -0.058780   0.014097   0.005521   0.005169  -0.052889  -0.000000
    12  C    0.453586  -0.060194  -0.040305  -0.039145   0.351504  -0.000005
    13  C    4.140028   0.325045   0.326617   0.327570  -0.031419  -0.000000
    14  F    0.325045   8.935004  -0.043790  -0.043998   0.004029   0.000000
    15  F    0.326617  -0.043790   8.938476  -0.047366  -0.002935   0.000000
    16  F    0.327570  -0.043998  -0.047366   8.937845  -0.003848   0.000000
    17  C   -0.031419   0.004029  -0.002935  -0.003848   5.115956  -0.002629
    18  H   -0.000000   0.000000   0.000000   0.000000  -0.002629   0.317219
    19  H    0.000052  -0.000001  -0.000000  -0.000000   0.003566  -0.000045
    20  H   -0.009902   0.006783   0.000022   0.000010   0.004240   0.000000
    21  H   -0.002120   0.000319   0.003776   0.003543   0.381306  -0.000173
              19         20         21
     1  O    0.011730  -0.000001   0.000128
     2  C   -0.011761   0.000110  -0.005291
     3  O    0.000517   0.000001   0.008262
     4  C   -0.004977  -0.000081  -0.010467
     5  C    0.374600   0.009527   0.005067
     6  C   -0.007086  -0.023069  -0.001506
     7  C   -0.009170  -0.001343   0.000056
     8  F    0.005562   0.000297  -0.000001
     9  F   -0.000020   0.003688  -0.000001
    10  F   -0.000022   0.003640  -0.000001
    11  C    0.002773   0.375643   0.010117
    12  C    0.001086  -0.003893  -0.028683
    13  C    0.000052  -0.009902  -0.002120
    14  F   -0.000001   0.006783   0.000319
    15  F   -0.000000   0.000022   0.003776
    16  F   -0.000000   0.000010   0.003543
    17  C    0.003566   0.004240   0.381306
    18  H   -0.000045   0.000000  -0.000173
    19  H    0.373649  -0.000046  -0.000079
    20  H   -0.000046   0.387663  -0.000002
    21  H   -0.000079  -0.000002   0.378133
          Atomic-Atomic Spin Densities.
               1          2          3          4          5          6
     1  O    0.008874   0.001075   0.000405  -0.000817   0.000794  -0.000019
     2  C    0.001075  -0.009464  -0.000393   0.000015   0.001219   0.000425
     3  O    0.000405  -0.000393   0.007539   0.000097  -0.000051   0.000019
     4  C   -0.000817   0.000015   0.000097   0.041631  -0.023821  -0.018038
     5  C    0.000794   0.001219  -0.000051  -0.023821  -0.052355   0.050039
     6  C   -0.000019   0.000425   0.000019  -0.018038   0.050039   0.416136
     7  C    0.000001   0.000042   0.000000   0.000328   0.003767   0.001104
     8  F   -0.000000  -0.000001   0.000000   0.000161  -0.000362  -0.001901
     9  F   -0.000000  -0.000002  -0.000000  -0.000083   0.000493  -0.009953
    10  F   -0.000000  -0.000002  -0.000000  -0.000083   0.000502  -0.010026
    11  C    0.000018  -0.000193  -0.000002   0.000070   0.003382   0.074032
    12  C   -0.000034  -0.000125   0.000010   0.003110  -0.000301  -0.022159
    13  C   -0.000000  -0.000015  -0.000008  -0.000429  -0.000069  -0.000105
    14  F   -0.000000   0.000000  -0.000000   0.000018   0.000011  -0.000026
    15  F    0.000000   0.000004   0.000000   0.000419  -0.000033   0.000052
    16  F    0.000000   0.000004   0.000000   0.000416  -0.000034   0.000056
    17  C   -0.000046  -0.001234  -0.001609   0.052989  -0.000254  -0.007516
    18  H    0.000055   0.000162   0.000023  -0.000113   0.000004   0.000001
    19  H   -0.000081   0.000292  -0.000009  -0.000811  -0.000103   0.000168
    20  H    0.000000  -0.000000  -0.000000  -0.000075   0.000159   0.000976
    21  H    0.000009  -0.000516   0.000558   0.006917  -0.000079   0.000266
               7          8          9         10         11         12
     1  O    0.000001  -0.000000  -0.000000  -0.000000   0.000018  -0.000034
     2  C    0.000042  -0.000001  -0.000002  -0.000002  -0.000193  -0.000125
     3  O    0.000000   0.000000  -0.000000  -0.000000  -0.000002   0.000010
     4  C    0.000328   0.000161  -0.000083  -0.000083   0.000070   0.003110
     5  C    0.003767  -0.000362   0.000493   0.000502   0.003382  -0.000301
     6  C    0.001104  -0.001901  -0.009953  -0.010026   0.074032  -0.022159
     7  C   -0.034555   0.001812   0.002377   0.002376   0.002353   0.000026
     8  F    0.001812   0.001514   0.000147   0.000145  -0.000163   0.000041
     9  F    0.002377   0.000147   0.018855  -0.000174   0.000835   0.000092
    10  F    0.002376   0.000145  -0.000174   0.018951   0.000876   0.000076
    11  C    0.002353  -0.000163   0.000835   0.000876  -0.012668  -0.009955
    12  C    0.000026   0.000041   0.000092   0.000076  -0.009955  -0.033892
    13  C    0.000031  -0.000000  -0.000001  -0.000001   0.001010   0.000180
    14  F    0.000000  -0.000000   0.000000   0.000000   0.000173  -0.000148
    15  F   -0.000000  -0.000000  -0.000000   0.000000  -0.000019   0.000235
    16  F   -0.000000  -0.000000   0.000000  -0.000000  -0.000031   0.000267
    17  C   -0.000809  -0.000011   0.000085   0.000085  -0.006626   0.050558
    18  H    0.000000   0.000000   0.000000   0.000000   0.000000   0.000006
    19  H   -0.000181  -0.000007   0.000016   0.000016  -0.000106  -0.000002
    20  H   -0.000173  -0.000004  -0.000026  -0.000025  -0.000927  -0.000212
    21  H    0.000002  -0.000000   0.000000   0.000000  -0.000002   0.007235
              13         14         15         16         17         18
     1  O   -0.000000  -0.000000   0.000000   0.000000  -0.000046   0.000055
     2  C   -0.000015   0.000000   0.000004   0.000004  -0.001234   0.000162
     3  O   -0.000008  -0.000000   0.000000   0.000000  -0.001609   0.000023
     4  C   -0.000429   0.000018   0.000419   0.000416   0.052989  -0.000113
     5  C   -0.000069   0.000011  -0.000033  -0.000034  -0.000254   0.000004
     6  C   -0.000105  -0.000026   0.000052   0.000056  -0.007516   0.000001
     7  C    0.000031   0.000000  -0.000000  -0.000000  -0.000809   0.000000
     8  F   -0.000000  -0.000000  -0.000000  -0.000000  -0.000011   0.000000
     9  F   -0.000001   0.000000  -0.000000   0.000000   0.000085   0.000000
    10  F   -0.000001   0.000000   0.000000  -0.000000   0.000085   0.000000
    11  C    0.001010   0.000173  -0.000019  -0.000031  -0.006626   0.000000
    12  C    0.000180  -0.000148   0.000235   0.000267   0.050558   0.000006
    13  C   -0.005314   0.000675   0.000591   0.000572  -0.000836  -0.000000
    14  F    0.000675  -0.001056  -0.000049  -0.000051  -0.000172   0.000000
    15  F    0.000591  -0.000049   0.004451  -0.000082  -0.002839   0.000000
    16  F    0.000572  -0.000051  -0.000082   0.004472  -0.002832   0.000000
    17  C   -0.000836  -0.000172  -0.002839  -0.002832   0.366480   0.000030
    18  H   -0.000000   0.000000   0.000000   0.000000   0.000030  -0.000606
    19  H    0.000001  -0.000000  -0.000000  -0.000000   0.000095   0.000001
    20  H    0.000263   0.000040  -0.000005  -0.000004   0.000016  -0.000000
    21  H   -0.000404   0.000002   0.000017   0.000010  -0.014212  -0.000009
              19         20         21
     1  O   -0.000081   0.000000   0.000009
     2  C    0.000292  -0.000000  -0.000516
     3  O   -0.000009  -0.000000   0.000558
     4  C   -0.000811  -0.000075   0.006917
     5  C   -0.000103   0.000159  -0.000079
     6  C    0.000168   0.000976   0.000266
     7  C   -0.000181  -0.000173   0.000002
     8  F   -0.000007  -0.000004  -0.000000
     9  F    0.000016  -0.000026   0.000000
    10  F    0.000016  -0.000025   0.000000
    11  C   -0.000106  -0.000927  -0.000002
    12  C   -0.000002  -0.000212   0.007235
    13  C    0.000001   0.000263  -0.000404
    14  F   -0.000000   0.000040   0.000002
    15  F   -0.000000  -0.000005   0.000017
    16  F   -0.000000  -0.000004   0.000010
    17  C    0.000095   0.000016  -0.014212
    18  H    0.000001  -0.000000  -0.000009
    19  H   -0.001066  -0.000001  -0.000009
    20  H   -0.000001  -0.002259  -0.000007
    21  H   -0.000009  -0.000007  -0.006459
 Mulliken charges and spin densities:
               1          2
     1  O   -0.242019   0.010234
     2  C    0.343719  -0.008706
     3  O   -0.396256   0.006579
     4  C    0.075689   0.061904
     5  C   -0.134498  -0.017090
     6  C    0.121131   0.473530
     7  C    0.525424  -0.021500
     8  F   -0.131927   0.001371
     9  F   -0.129280   0.012663
    10  F   -0.129198   0.012717
    11  C   -0.093705   0.052058
    12  C    0.009415  -0.004991
    13  C    0.522210  -0.003858
    14  F   -0.142161  -0.000582
    15  F   -0.140680   0.002742
    16  F   -0.140140   0.002764
    17  C   -0.062819   0.431343
    18  H    0.381095  -0.000446
    19  H    0.259673  -0.001787
    20  H    0.246713  -0.002264
    21  H    0.257615  -0.006681
 Sum of Mulliken charges =   1.00000   1.00000
 Mulliken charges and spin densities with hydrogens summed into heavy atoms:
               1          2
     1  O   -0.242019   0.010234
     2  C    0.343719  -0.008706
     3  O   -0.015162   0.006134
     4  C    0.075689   0.061904
     5  C    0.125175  -0.018877
     6  C    0.121131   0.473530
     7  C    0.525424  -0.021500
     8  F   -0.131927   0.001371
     9  F   -0.129280   0.012663
    10  F   -0.129198   0.012717
    11  C    0.153008   0.049793
    12  C    0.009415  -0.004991
    13  C    0.522210  -0.003858
    14  F   -0.142161  -0.000582
    15  F   -0.140680   0.002742
    16  F   -0.140140   0.002764
    17  C    0.194796   0.424662
 Electronic spatial extent (au):  <R**2>=           4328.8523
 Charge=              1.0000 electrons
 Dipole moment (field-independent basis, Debye):
    X=             -1.2723    Y=              3.1775    Z=             -0.0058  Tot=              3.4228
 Quadrupole moment (field-independent basis, Debye-Ang):
   XX=            -81.8226   YY=            -69.9766   ZZ=            -89.1647
   XY=            -10.6664   XZ=              0.0064   YZ=              0.0042
 Traceless Quadrupole moment (field-independent basis, Debye-Ang):
   XX=             -1.5013   YY=             10.3447   ZZ=             -8.8434
   XY=            -10.6664   XZ=              0.0064   YZ=              0.0042
 Octapole moment (field-independent basis, Debye-Ang**2):
  XXX=              3.6369  YYY=             37.1864  ZZZ=             -0.0262  XYY=            -44.5317
  XXY=              3.7242  XXZ=              0.0135  XZZ=              2.0886  YZZ=             -7.2342
  YYZ=              0.0285  XYZ=             -0.0203
 Hexadecapole moment (field-independent basis, Debye-Ang**3):
 XXXX=          -2283.1766 YYYY=          -1689.1069 ZZZZ=           -205.3794 XXXY=            -13.1696
 XXXZ=             -0.0742 YYYX=           -237.2955 YYYZ=             -0.1111 ZZZX=              0.0695
 ZZZY=              0.0473 XXYY=           -687.2906 XXZZ=           -427.6659 YYZZ=           -381.0518
 XXYZ=              0.0689 YYXZ=             -0.0102 ZZXY=              2.5175
 N-N= 1.277655086368D+03 E-N=-5.117794797130D+03  KE= 1.090499178079D+03
 There are a total of      479856 grid points.
 ElSum from          density=      126.9999835148
 ElSum from atomic densities=      127.9999395848
 Hirshfeld populations at iteration   1 (CA, CB, DipXYZ):
               1          2          3          4          5
     1  O    4.108653   4.099893  -0.049704  -0.036064  -0.000007
     2  C    2.887185   2.885760  -0.079402  -0.024798  -0.000002
     3  O    4.075536   4.070199   0.069618   0.096997   0.000011
     4  C    3.012521   2.923707  -0.046726   0.052597   0.000027
     5  C    2.994660   2.958121   0.069400   0.017453   0.000078
     6  C    3.104576   2.771088   0.044094  -0.019518  -0.000061
     7  C    2.853531   2.838505   0.044806  -0.013337  -0.000013
     8  F    4.534014   4.532321  -0.019621  -0.016268   0.000076
     9  F    4.544121   4.529331   0.008540   0.013254   0.028714
    10  F    4.544165   4.529306   0.008594   0.013153  -0.028782
    11  C    3.010096   2.940229   0.050945  -0.061551   0.000216
    12  C    3.006527   2.958799  -0.059138   0.001503  -0.000266
    13  C    2.849558   2.849000  -0.045866  -0.039451  -0.000154
    14  F    4.535963   4.536924  -0.004166   0.031160   0.000662
    15  F    4.543619   4.539891   0.012388  -0.015926   0.031980
    16  F    4.543759   4.540026   0.011527  -0.015473  -0.032668
    17  C    3.100721   2.760924  -0.064939   0.036266   0.000174
    18  H    0.390757   0.390691  -0.034214   0.234574   0.000027
    19  H    0.453182   0.452996   0.134696   0.098294   0.000102
    20  H    0.453076   0.451628   0.027663  -0.172911   0.000159
    21  H    0.453774   0.440653  -0.158320   0.055884   0.000224
       Tot  63.999993  62.999990  -0.079825   0.235840   0.000497

 Dip from Atomic Chgs             -0.420748   1.014258  -0.002768
         Total Dipole             -0.500574   1.250099  -0.002271

 Hirshfeld charges, spin densities, dipoles, and CM5 charges using IRadAn=      5:
              Q-H        S-H        Dx         Dy         Dz        Q-CM5   
     1  O   -0.208546   0.008760  -0.049704  -0.036064  -0.000007  -0.259079
     2  C    0.227055   0.001425  -0.079402  -0.024798  -0.000002   0.282310
     3  O   -0.145735   0.005337   0.069618   0.096997   0.000011  -0.343820
     4  C    0.063771   0.088814  -0.046726   0.052597   0.000027   0.060587
     5  C    0.047220   0.036539   0.069400   0.017453   0.000078  -0.000295
     6  C    0.124336   0.333488   0.044094  -0.019518  -0.000061   0.122042
     7  C    0.307964   0.015025   0.044806  -0.013337  -0.000013   0.363034
     8  F   -0.066335   0.001693  -0.019621  -0.016268   0.000076  -0.089467
     9  F   -0.073452   0.014791   0.008540   0.013254   0.028714  -0.095101
    10  F   -0.073470   0.014859   0.008594   0.013153  -0.028782  -0.095110
    11  C    0.049674   0.069867   0.050945  -0.061551   0.000216   0.002317
    12  C    0.034674   0.047727  -0.059138   0.001503  -0.000266   0.032306
    13  C    0.301442   0.000558  -0.045866  -0.039451  -0.000154   0.356465
    14  F   -0.072886  -0.000961  -0.004166   0.031160   0.000662  -0.096068
    15  F   -0.083509   0.003728   0.012388  -0.015926   0.031980  -0.105190
    16  F   -0.083785   0.003733   0.011527  -0.015473  -0.032668  -0.105407
    17  C    0.138355   0.339797  -0.064939   0.036266   0.000174   0.090980
    18  H    0.218553   0.000066  -0.034214   0.234574   0.000027   0.395910
    19  H    0.093823   0.000186   0.134696   0.098294   0.000102   0.157505
    20  H    0.095296   0.001448   0.027663  -0.172911   0.000159   0.156526
    21  H    0.105573   0.013121  -0.158320   0.055884   0.000224   0.169571
       Tot   1.000016   1.000003  -0.079825   0.235840   0.000497   1.000016
 Hirshfeld charges and spin densities with hydrogens summed into heavy atoms:
              Q-H        S-H       Q-CM5   
     1  O   -0.208546   0.008760  -0.259079
     2  C    0.227055   0.001425   0.282310
     3  O    0.072818   0.005404   0.052090
     4  C    0.063771   0.088814   0.060587
     5  C    0.141042   0.036725   0.157209
     6  C    0.124336   0.333488   0.122042
     7  C    0.307964   0.015025   0.363034
     8  F   -0.066335   0.001693  -0.089467
     9  F   -0.073452   0.014791  -0.095101
    10  F   -0.073470   0.014859  -0.095110
    11  C    0.144970   0.071316   0.158843
    12  C    0.034674   0.047727   0.032306
    13  C    0.301442   0.000558   0.356465
    14  F   -0.072886  -0.000961  -0.096068
    15  F   -0.083509   0.003728  -0.105190
    16  F   -0.083785   0.003733  -0.105407
    17  C    0.243928   0.352918   0.260551
 
 EQQ= 0.914209766587E-01 EQD=-0.465519414589E-01 EDD= 0.780069495550E-02
 EQQ+QD+DD= 0.526697301553E-01
 
                          Isotropic Fermi Contact Couplings
        Atom                 a.u.       MegaHertz       Gauss      10(-4) cm-1
     1  O(17)              0.00118      -0.71321      -0.25449      -0.23790
     2  C(13)             -0.00598      -6.71896      -2.39749      -2.24120
     3  O(17)             -0.00062       0.37726       0.13462       0.12584
     4  C(13)             -0.00467      -5.25070      -1.87358      -1.75144
     5  C(13)             -0.01617     -18.18170      -6.48768      -6.06476
     6  C(13)              0.06625      74.48196      26.57702      24.84451
     7  C(13)             -0.02117     -23.79427      -8.49039      -7.93692
     8  F(19)             -0.00063      -2.65450      -0.94719      -0.88544
     9  F(19)              0.00410      17.26087       6.15911       5.75761
    10  F(19)              0.00412      17.35236       6.19175       5.78812
    11  C(13)             -0.00868      -9.75416      -3.48053      -3.25364
    12  C(13)             -0.01360     -15.28540      -5.45421      -5.09866
    13  C(13)             -0.00282      -3.17569      -1.13316      -1.05930
    14  F(19)             -0.00046      -1.93756      -0.69137      -0.64630
    15  F(19)              0.00142       5.95892       2.12629       1.98768
    16  F(19)              0.00138       5.78736       2.06507       1.93045
    17  C(13)              0.06425      72.22910      25.77314      24.09303
    18  H(1)              -0.00019      -0.85295      -0.30435      -0.28451
    19  H(1)              -0.00078      -3.50756      -1.25158      -1.16999
    20  H(1)              -0.00161      -7.19835      -2.56855      -2.40111
    21  H(1)              -0.00779     -34.82705     -12.42716     -11.61705
 --------------------------------------------------------
       Center         ----  Spin Dipole Couplings  ----
                      3XX-RR        3YY-RR        3ZZ-RR
 --------------------------------------------------------
     1   Atom       -0.019840     -0.022383      0.042224
     2   Atom        0.000970      0.008988     -0.009958
     3   Atom       -0.016181     -0.006542      0.022724
     4   Atom       -0.047593     -0.043091      0.090683
     5   Atom       -0.008187      0.005574      0.002613
     6   Atom       -0.258061     -0.262120      0.520180
     7   Atom        0.003145     -0.002656     -0.000488
     8   Atom       -0.013180     -0.009475      0.022655
     9   Atom        0.051940      0.010262     -0.062202
    10   Atom        0.052597      0.009845     -0.062442
    11   Atom       -0.032483     -0.028811      0.061293
    12   Atom       -0.018462     -0.005692      0.024153
    13   Atom       -0.001748      0.004995     -0.003247
    14   Atom        0.000646      0.001574     -0.002220
    15   Atom        0.013559      0.003294     -0.016853
    16   Atom        0.012493      0.004435     -0.016928
    17   Atom       -0.249204     -0.252577      0.501781
    18   Atom       -0.002160      0.004146     -0.001986
    19   Atom       -0.002985      0.009002     -0.006016
    20   Atom       -0.007124      0.013328     -0.006204
    21   Atom        0.028858     -0.021116     -0.007742
 --------------------------------------------------------
                        XY            XZ            YZ
 --------------------------------------------------------
     1   Atom        0.002357     -0.000006      0.000006
     2   Atom        0.004450      0.000003      0.000008
     3   Atom       -0.002895     -0.000009     -0.000008
     4   Atom        0.007474     -0.000054     -0.000052
     5   Atom        0.001438     -0.000020     -0.000026
     6   Atom       -0.000627     -0.000512     -0.000322
     7   Atom       -0.002307      0.000007     -0.000006
     8   Atom        0.005109      0.000288     -0.000020
     9   Atom       -0.093846     -0.008297      0.004845
    10   Atom       -0.094098      0.008827     -0.005205
    11   Atom        0.006478      0.000104     -0.000080
    12   Atom        0.001991      0.000148     -0.000039
    13   Atom        0.004467      0.000002     -0.000008
    14   Atom       -0.000405      0.000058      0.000061
    15   Atom        0.028552      0.000416      0.000723
    16   Atom        0.028856     -0.001062     -0.001415
    17   Atom       -0.000351     -0.000253     -0.000321
    18   Atom       -0.001032     -0.000000      0.000002
    19   Atom        0.006630      0.000004      0.000008
    20   Atom        0.006239      0.000006      0.000013
    21   Atom       -0.025090     -0.000011     -0.000013
 --------------------------------------------------------


 ---------------------------------------------------------------------------------
              Anisotropic Spin Dipole Couplings in Principal Axis System
 ---------------------------------------------------------------------------------

       Atom             a.u.   MegaHertz   Gauss  10(-4) cm-1        Axes

              Baa    -0.0238     1.721     0.614     0.574 -0.5124  0.8587 -0.0001
     1 O(17)  Bbb    -0.0184     1.334     0.476     0.445  0.8587  0.5124  0.0000
              Bcc     0.0422    -3.055    -1.090    -1.019 -0.0001  0.0001  1.0000
 
              Baa    -0.0100    -1.336    -0.477    -0.446 -0.0001 -0.0004  1.0000
     2 C(13)  Bbb    -0.0010    -0.136    -0.048    -0.045  0.9136 -0.4066 -0.0000
              Bcc     0.0110     1.472     0.525     0.491  0.4066  0.9136  0.0004
 
              Baa    -0.0170     1.229     0.439     0.410  0.9636  0.2672  0.0003
     3 O(17)  Bbb    -0.0057     0.415     0.148     0.139 -0.2672  0.9636  0.0002
              Bcc     0.0227    -1.644    -0.587    -0.548 -0.0002 -0.0003  1.0000
 
              Baa    -0.0531    -7.132    -2.545    -2.379  0.8026 -0.5965  0.0001
     4 C(13)  Bbb    -0.0375    -5.037    -1.797    -1.680  0.5965  0.8026  0.0006
              Bcc     0.0907    12.169     4.342     4.059 -0.0004 -0.0004  1.0000
 
              Baa    -0.0083    -1.119    -0.399    -0.373  0.9947 -0.1028  0.0016
     5 C(13)  Bbb     0.0026     0.351     0.125     0.117 -0.0006  0.0089  1.0000
              Bcc     0.0057     0.768     0.274     0.256  0.1029  0.9947 -0.0088
 
              Baa    -0.2622   -35.187   -12.555   -11.737  0.1494  0.9888  0.0005
     6 C(13)  Bbb    -0.2580   -34.617   -12.352   -11.547  0.9888 -0.1494  0.0006
              Bcc     0.5202    69.803    24.908    23.284 -0.0007 -0.0004  1.0000
 
              Baa    -0.0035    -0.465    -0.166    -0.155  0.3296  0.9441  0.0010
     7 C(13)  Bbb    -0.0005    -0.066    -0.023    -0.022 -0.0022 -0.0003  1.0000
              Bcc     0.0039     0.530     0.189     0.177  0.9441 -0.3296  0.0020
 
              Baa    -0.0168    -8.419    -3.004    -2.808  0.8188 -0.5740 -0.0063
     8 F(19)  Bbb    -0.0059    -2.960    -1.056    -0.987  0.5740  0.8188 -0.0052
              Bcc     0.0227    11.379     4.060     3.796  0.0081  0.0007  1.0000
 
              Baa    -0.0657   -32.992   -11.772   -11.005  0.5830  0.6933  0.4235
     9 F(19)  Bbb    -0.0620   -31.146   -11.114   -10.389 -0.2299 -0.3592  0.9045
              Bcc     0.1277    64.138    22.886    21.394  0.7792 -0.6247 -0.0500
 
              Baa    -0.0660   -33.130   -11.822   -11.051  0.5798  0.6900 -0.4333
    10 F(19)  Bbb    -0.0623   -31.283   -11.163   -10.435  0.2331  0.3690  0.8997
              Bcc     0.1283    64.414    22.984    21.486  0.7807 -0.6227  0.0531
 
              Baa    -0.0374    -5.016    -1.790    -1.673  0.7977 -0.6030 -0.0013
    11 C(13)  Bbb    -0.0239    -3.209    -1.145    -1.070  0.6030  0.7977  0.0000
              Bcc     0.0613     8.225     2.935     2.744  0.0010 -0.0008  1.0000
 
              Baa    -0.0188    -2.518    -0.899    -0.840  0.9886 -0.1506 -0.0035
    12 C(13)  Bbb    -0.0054    -0.723    -0.258    -0.241  0.1506  0.9886  0.0005
              Bcc     0.0242     3.241     1.157     1.081  0.0034 -0.0011  1.0000
 
              Baa    -0.0040    -0.533    -0.190    -0.178  0.8951 -0.4458 -0.0076
    13 C(13)  Bbb    -0.0032    -0.436    -0.155    -0.145  0.0071 -0.0028  1.0000
              Bcc     0.0072     0.969     0.346     0.323  0.4458  0.8951 -0.0006
 
              Baa    -0.0022    -1.116    -0.398    -0.372 -0.0228 -0.0185  0.9996
    14 F(19)  Bbb     0.0005     0.249     0.089     0.083  0.9363  0.3500  0.0279
              Bcc     0.0017     0.867     0.309     0.289 -0.3504  0.9366  0.0094
 
              Baa    -0.0206   -10.348    -3.693    -3.452 -0.6388  0.7655 -0.0767
    15 F(19)  Bbb    -0.0168    -8.458    -3.018    -2.821 -0.0603  0.0496  0.9969
              Bcc     0.0374    18.807     6.711     6.273  0.7670  0.6415  0.0144
 
              Baa    -0.0207   -10.401    -3.711    -3.469 -0.6510  0.7526  0.0990
    16 F(19)  Bbb    -0.0169    -8.510    -3.037    -2.839  0.0888 -0.0540  0.9946
              Bcc     0.0377    18.911     6.748     6.308  0.7539  0.6562 -0.0317
 
              Baa    -0.2526   -33.898   -12.096   -11.307  0.1024  0.9947  0.0005
    17 C(13)  Bbb    -0.2492   -33.436   -11.931   -11.153  0.9947 -0.1024  0.0003
              Bcc     0.5018    67.334    24.027    22.460 -0.0003 -0.0004  1.0000
 
              Baa    -0.0023    -1.240    -0.443    -0.414  0.9875  0.1576  0.0003
    18 H(1)   Bbb    -0.0020    -1.059    -0.378    -0.353 -0.0003 -0.0003  1.0000
              Bcc     0.0043     2.300     0.821     0.767 -0.1576  0.9875  0.0003
 
              Baa    -0.0060    -3.210    -1.145    -1.071 -0.0032  0.0009  1.0000
    19 H(1)   Bbb    -0.0059    -3.164    -1.129    -1.055  0.9139 -0.4058  0.0033
              Bcc     0.0119     6.373     2.274     2.126  0.4058  0.9140  0.0005
 
              Baa    -0.0089    -4.736    -1.690    -1.580  0.9627 -0.2705 -0.0010
    20 H(1)   Bbb    -0.0062    -3.310    -1.181    -1.104  0.0007 -0.0009  1.0000
              Bcc     0.0151     8.047     2.871     2.684  0.2705  0.9627  0.0007
 
              Baa    -0.0315   -16.828    -6.004    -5.613  0.3836  0.9235  0.0007
    21 H(1)   Bbb    -0.0077    -4.131    -1.474    -1.378 -0.0002 -0.0007  1.0000
              Bcc     0.0393    20.958     7.478     6.991  0.9235 -0.3836 -0.0001
 

 ---------------------------------------------------------------------------------

 Running external command "gaunbo6 R"
         input file       "/tmp/Gau-3383127.EIn"
         output file      "/tmp/Gau-3383127.EOu"
         message file     "/tmp/Gau-3383127.EMs"
         fchk file        "/tmp/Gau-3383127.EFC"
         mat. el file     "/tmp/Gau-3383127.EUF"

 Writing WrtUnf unformatted file "/tmp/Gau-3383127.EUF"
 Gaussian matrix elements                                         Version   2 NLab=11 Len12L=8 Len4L=8
 Write SHELL TO ATOM MAP                   from file      0 offset           0 length                 203 to matrix element file.
 Write SHELL TYPES                         from file      0 offset           0 length                 203 to matrix element file.
 Write NUMBER OF PRIMITIVES PER SHELL      from file      0 offset           0 length                 203 to matrix element file.
 Write PRIMITIVE EXPONENTS                 from file      0 offset           0 length                 364 to matrix element file.
 Write CONTRACTION COEFFICIENTS            from file      0 offset           0 length                 364 to matrix element file.
 Write P(S=P) CONTRACTION COEFFICIENTS     from file      0 offset           0 length                 364 to matrix element file.
 Write COORDINATES OF EACH SHELL           from file      0 offset           0 length                 609 to matrix element file.
 Write BONDS PER ATOM                      from file      0 offset           0 length                  21 to matrix element file.
 Write BONDED ATOMS                        from file      0 offset           0 length                  42 to matrix element file.
 Write BOND TYPES                          from file      0 offset           0 length                  42 to matrix element file.
 Write ONIOM CHARGE/MULT                   from file      0 offset           0 length                  32 to matrix element file.
 Write ONIOM ATOM LAYERS                   from file      0 offset           0 length                  21 to matrix element file.
 Write ONIOM ATOM MODIFIERS                from file      0 offset           0 length                  21 to matrix element file.
 Write ONIOM ATOM TYPES                    from file      0 offset           0 length                  21 to matrix element file.
 Write ONIOM LINK ATOMS                    from file      0 offset           0 length                  21 to matrix element file.
 Write ONIOM LINK CHARGES                  from file      0 offset           0 length                  21 to matrix element file.
 Write ONIOM LINK DISTANCES                from file      0 offset           0 length                  84 to matrix element file.
 Write SYMINF INTS                         from file      0 offset           0 length                  26 to matrix element file.
 Write ROTTR TO SO                         from file      0 offset           0 length                  12 to matrix element file.
 Write GAUSSIAN SCALARS                    from file    501 offset           0 to matrix element file.
 Write OPTIMIZATION FLAGS                  from file      0 offset           0 length                  21 to matrix element file.
 Write INTEGER ISO                         from file      0 offset           0 length                  21 to matrix element file.
 Write INTEGER SPIN                        from file      0 offset           0 length                  21 to matrix element file.
 Write REAL ZEFFECTIVE                     from file      0 offset           0 length                  21 to matrix element file.
 Write REAL GFACTOR                        from file      0 offset           0 length                  21 to matrix element file.
 Write REAL ZNUCLEAR                       from file      0 offset           0 length                  21 to matrix element file.
 Write MULLIKEN CHARGES                    from file      0 offset           0 length                  21 to matrix element file.
 Write TYPE 6 CHARGES                      from file      0 offset           0 length                  21 to matrix element file.
 Write TYPE 7 CHARGES                      from file      0 offset           0 length                  21 to matrix element file.
 Write NUCLEAR GRADIENT                    from file  10584 offset           0 length                  63 to matrix element file.
 Array NUCLEAR FORCE CONSTANTS              on  file  10585 does not exist.
 Write ELECTRIC DIPOLE MOMENT              from file      0 offset           0 length                   3 to matrix element file.
 Write NON-ADIABATIC COUPLING              from file  10810 offset           0 length                  63 to matrix element file.
 Write FINITE EM FIELD                     from file  10521 offset           0 length                  35 to matrix element file.
 Write OVERLAP                             from file  10514 offset           0 length              152076 to matrix element file.
 Write CORE HAMILTONIAN ALPHA              from file  10515 offset           0 length              152076 to matrix element file.
 Write CORE HAMILTONIAN BETA               from file  10515 offset      152076 length              152076 to matrix element file.
 Write KINETIC ENERGY                      from file  10516 offset           0 length              152076 to matrix element file.
 Write ORTHOGONAL BASIS                    from file  10685 offset           0 length              303601 to matrix element file.
 Write DIPOLE INTEGRALS                    from file  10518 offset           0 length              456228 to matrix element file.
 Array DIP VEL INTEGRALS                    on  file  10572 does not exist.
 Array R X DEL INTEGRALS                    on  file  10572 does not exist.
 Write ALPHA ORBITAL ENERGIES              from file      0 offset           0 length                 551 to matrix element file.
 Write BETA ORBITAL ENERGIES               from file      0 offset           0 length                 551 to matrix element file.
 Write ALPHA MO COEFFICIENTS               from file  10524 offset           0 length              303601 to matrix element file.
 Write BETA MO COEFFICIENTS                from file  10526 offset           0 length              303601 to matrix element file.
 Write ALPHA DENSITY MATRIX                from file      0 offset           0 length              152076 to matrix element file.
 Write BETA DENSITY MATRIX                 from file      0 offset           0 length              152076 to matrix element file.
 Write ALPHA FOCK MATRIX                   from file  10536 offset           0 length              152076 to matrix element file.
 Write BETA FOCK MATRIX                    from file  10538 offset           0 length              152076 to matrix element file.
 Write ENERGY-WEIGHTED DENSITY             from file  10571 offset           0 length              152076 to matrix element file.
 Write ALPHA SCF DENSITY MATRIX            from file      0 offset           0 length              152076 to matrix element file.
 Write BETA SCF DENSITY MATRIX             from file      0 offset           0 length              152076 to matrix element file.
 No 2e integrals to process.
 Perform NBO analysis...

 *********************************** NBO 7.0 ***********************************
             N A T U R A L   A T O M I C   O R B I T A L   A N D
          N A T U R A L   B O N D   O R B I T A L   A N A L Y S I S
 **************************** Robert Paton (I101709) ***************************
  (c) Copyright 1996-2019 Board of Regents of the University of Wisconsin System
      on behalf of the Theoretical Chemistry Institute.  All rights reserved.

          Cite this program [NBO 7.0.5 (4-Jun-2019)] as:

          NBO 7.0.  E. D. Glendening, J. K. Badenhoop, A. E. Reed,
          J. E. Carpenter, J. A. Bohmann, C. M. Morales, P. Karafiloglou,
          C. R. Landis, and F. Weinhold, Theoretical Chemistry Institute,
          University of Wisconsin, Madison, WI (2018)

 Filename set to /tmp/Gau-3383127

 Job title:  Ac3_rdkit_conf_1_SP_charge_p


 NATURAL POPULATIONS:  Natural atomic orbital occupancies

  NAO Atom No lang   Type(AO)    Occupancy     Spin
 -----------------------------------------------------
   1    O  1  s      Cor( 1s)     2.00000     0.00000
   2    O  1  s      Val( 2s)     1.70346     0.00009
   3    O  1  s      Ryd( 3s)     0.00015     0.00000
   4    O  1  s      Ryd( 4s)     0.00002     0.00000
   5    O  1  s      Ryd( 5s)     0.00000     0.00000
   6    O  1  px     Val( 2p)     1.66572     0.00016
   7    O  1  px     Ryd( 3p)     0.00149    -0.00001
   8    O  1  px     Ryd( 4p)     0.00010     0.00000
   9    O  1  py     Val( 2p)     1.71266    -0.00064
  10    O  1  py     Ryd( 3p)     0.00138    -0.00001
  11    O  1  py     Ryd( 4p)     0.00007     0.00000
  12    O  1  pz     Val( 2p)     1.38978     0.01119
  13    O  1  pz     Ryd( 3p)     0.00078     0.00000
  14    O  1  pz     Ryd( 4p)     0.00000     0.00000
  15    O  1  dxy    Ryd( 3d)     0.00774     0.00000
  16    O  1  dxy    Ryd( 4d)     0.00000     0.00000
  17    O  1  dxz    Ryd( 3d)     0.00350     0.00004
  18    O  1  dxz    Ryd( 4d)     0.00001     0.00000
  19    O  1  dyz    Ryd( 3d)     0.00293     0.00001
  20    O  1  dyz    Ryd( 4d)     0.00001     0.00000
  21    O  1  dx2y2  Ryd( 3d)     0.00552     0.00000
  22    O  1  dx2y2  Ryd( 4d)     0.00003     0.00000
  23    O  1  dz2    Ryd( 3d)     0.00256     0.00000
  24    O  1  dz2    Ryd( 4d)     0.00000     0.00000
  25    O  1  f(0)   Ryd( 4f)     0.00004     0.00000
  26    O  1  f(c1)  Ryd( 4f)     0.00003     0.00000
  27    O  1  f(s1)  Ryd( 4f)     0.00002     0.00000
  28    O  1  f(c2)  Ryd( 4f)     0.00001     0.00000
  29    O  1  f(s2)  Ryd( 4f)     0.00014     0.00000
  30    O  1  f(c3)  Ryd( 4f)     0.00020     0.00000
  31    O  1  f(s3)  Ryd( 4f)     0.00015     0.00000

  32    C  2  s      Cor( 1s)     1.99999     0.00000
  33    C  2  s      Val( 2s)     0.79666    -0.00137
  34    C  2  s      Ryd( 3s)     0.00485    -0.00002
  35    C  2  s      Ryd( 4s)     0.00021     0.00000
  36    C  2  s      Ryd( 5s)     0.00000     0.00000
  37    C  2  px     Val( 2p)     0.74607    -0.00018
  38    C  2  px     Ryd( 4p)     0.01334    -0.00002
  39    C  2  px     Ryd( 3p)     0.00010     0.00000
  40    C  2  py     Val( 2p)     0.89806    -0.00196
  41    C  2  py     Ryd( 4p)     0.00638     0.00000
  42    C  2  py     Ryd( 3p)     0.00015     0.00000
  43    C  2  pz     Val( 2p)     0.77970    -0.00488
[...]
  231. RY (12) C  6             0.00004     2.86705
  232. RY (13) C  6             0.00003     3.13021
  233. RY (14) C  6             0.00002     3.12102
  234. RY (15) C  6             0.00001     1.35306
  235. RY (16) C  6             0.00001     3.32450
  236. RY (17) C  6             0.00000     3.17478
  237. RY (18) C  6             0.00000     3.25183
  238. RY (19) C  6             0.00000     2.97941
  239. RY (20) C  6             0.00000     2.22884
  240. RY (21) C  6             0.00000     3.80740
  241. RY (22) C  6             0.00000     3.10912
  242. RY (23) C  6             0.00000     3.29497
  243. RY (24) C  6             0.00000     2.88719
  244. RY (25) C  6             0.00000     2.91530
  245. RY (26) C  6             0.00000    19.86555
  246. RY ( 1) C  7             0.00584     1.23252
  247. RY ( 2) C  7             0.00538     1.16821
  248. RY ( 3) C  7             0.00422     1.22895
  249. RY ( 4) C  7             0.00237     1.63601
  250. RY ( 5) C  7             0.00237     1.75672
  251. RY ( 6) C  7             0.00219     1.84553
  252. RY ( 7) C  7             0.00098     2.26158
  253. RY ( 8) C  7             0.00094     2.33978
  254. RY ( 9) C  7             0.00019     2.14216
  255. RY (10) C  7             0.00018     3.28315
  256. RY (11) C  7             0.00008     2.81092
  257. RY (12) C  7             0.00004     1.14104
  258. RY (13) C  7             0.00002     2.39162
  259. RY (14) C  7             0.00001     2.63538
  260. RY (15) C  7             0.00001     2.68545
  261. RY (16) C  7             0.00001     2.49244
  262. RY (17) C  7             0.00001     2.93027
  263. RY (18) C  7             0.00000     1.15500
  264. RY (19) C  7             0.00000    12.69638
  265. RY (20) C  7             0.00000     2.79495
  266. RY (21) C  7             0.00000     2.37007
  267. RY (22) C  7             0.00000     3.29394
  268. RY (23) C  7             0.00000     5.72080
  269. RY (24) C  7             0.00000     7.08565
  270. RY (25) C  7             0.00000     3.38578
  271. RY (26) C  7             0.00000     3.12277
  272. RY ( 1) F  8             0.00028     0.99540
  273. RY ( 2) F  8             0.00025     0.85180
  274. RY ( 3) F  8             0.00010     1.83981
  275. RY ( 4) F  8             0.00004     2.42312
  276. RY ( 5) F  8             0.00003     2.62521
  277. RY ( 6) F  8             0.00002     2.71559
  278. RY ( 7) F  8             0.00001     3.01976
  279. RY ( 8) F  8             0.00000     2.16401
  280. RY ( 9) F  8             0.00000     4.01627
  281. RY (10) F  8             0.00000     4.06589
  282. RY (11) F  8             0.00000    44.78903
  283. RY (12) F  8             0.00000     5.19972
  284. RY (13) F  8             0.00000     8.41940
  285. RY (14) F  8             0.00000     7.98708
  286. RY (15) F  8             0.00000     3.85590
  287. RY (16) F  8             0.00000     7.07531
  288. RY (17) F  8             0.00000     5.76015
  289. RY (18) F  8             0.00000     5.43981
  290. RY (19) F  8             0.00000    11.46094
  291. RY (20) F  8             0.00000     5.34888
  292. RY (21) F  8             0.00000     8.77984
  293. RY (22) F  8             0.00000     8.93504
  294. RY (23) F  8             0.00000     7.65255
  295. RY (24) F  8             0.00000     6.93605
  296. RY (25) F  8             0.00000     6.24673
  297. RY (26) F  8             0.00000     8.57752
  298. RY ( 1) F  9             0.00026     0.99921
  299. RY ( 2) F  9             0.00022     0.90133
  300. RY ( 3) F  9             0.00011     1.67930
  301. RY ( 4) F  9             0.00004     2.41254
  302. RY ( 5) F  9             0.00002     2.50719
  303. RY ( 6) F  9             0.00001     2.92352
  304. RY ( 7) F  9             0.00001     2.28877
  305. RY ( 8) F  9             0.00001     2.21067
  306. RY ( 9) F  9             0.00000     4.87417
  307. RY (10) F  9             0.00000     4.51910
  308. RY (11) F  9             0.00000     4.51197
  309. RY (12) F  9             0.00000     6.05756
  310. RY (13) F  9             0.00000     7.72970
  311. RY (14) F  9             0.00000     2.92675
  312. RY (15) F  9             0.00000     6.23543
  313. RY (16) F  9             0.00000    24.73864
  314. RY (17) F  9             0.00000    14.95888
  315. RY (18) F  9             0.00000    24.31381
  316. RY (19) F  9             0.00000     6.68303
  317. RY (20) F  9             0.00000     7.62996
  318. RY (21) F  9             0.00000     6.30591
  319. RY (22) F  9             0.00000     7.79824
  320. RY (23) F  9             0.00000     7.59618
  321. RY (24) F  9             0.00000     7.62222
  322. RY (25) F  9             0.00000     7.38172
  323. RY (26) F  9             0.00000     9.37729
  324. RY ( 1) F 10             0.00026     0.99940
  325. RY ( 2) F 10             0.00022     0.90174
  326. RY ( 3) F 10             0.00011     1.67846
  327. RY ( 4) F 10             0.00004     2.41270
  328. RY ( 5) F 10             0.00002     2.50707
  329. RY ( 6) F 10             0.00001     2.92097
  330. RY ( 7) F 10             0.00001     2.28777
  331. RY ( 8) F 10             0.00001     2.20793
  332. RY ( 9) F 10             0.00000     4.88052
  333. RY (10) F 10             0.00000     4.67462
  334. RY (11) F 10             0.00000     4.51363
  335. RY (12) F 10             0.00000     6.22152
  336. RY (13) F 10             0.00000     6.08446
  337. RY (14) F 10             0.00000     2.93683
  338. RY (15) F 10             0.00000     7.73307
  339. RY (16) F 10             0.00000    23.91145
  340. RY (17) F 10             0.00000     9.40821
  341. RY (18) F 10             0.00000    25.14358
  342. RY (19) F 10             0.00000     6.52186
  343. RY (20) F 10             0.00000     7.62416
  344. RY (21) F 10             0.00000     6.34597
  345. RY (22) F 10             0.00000     7.80562
  346. RY (23) F 10             0.00000     7.58792
  347. RY (24) F 10             0.00000    14.86980
  348. RY (25) F 10             0.00000     7.37947
  349. RY (26) F 10             0.00000     7.62830
  350. RY ( 1) C 11             0.00260     1.48776
  351. RY ( 2) C 11             0.00085     1.16446
  352. RY ( 3) C 11             0.00044     0.46004
  353. RY ( 4) C 11             0.00040     2.44475
  354. RY ( 5) C 11             0.00018     2.69105
  355. RY ( 6) C 11             0.00008     2.27294
  356. RY ( 7) C 11             0.00007     3.16829
  357. RY ( 8) C 11             0.00004     0.99066
  358. RY ( 9) C 11             0.00002     2.07358
  359. RY (10) C 11             0.00002     2.40985
  360. RY (11) C 11             0.00001     1.22519
  361. RY (12) C 11             0.00001     2.02078
  362. RY (13) C 11             0.00001     2.93580
  363. RY (14) C 11             0.00001     2.74759
  364. RY (15) C 11             0.00000     3.82657
  365. RY (16) C 11             0.00000     1.68670
  366. RY (17) C 11             0.00000     4.49038
  367. RY (18) C 11             0.00000     3.03568
  368. RY (19) C 11             0.00000     3.01001
  369. RY (20) C 11             0.00000     9.63553
  370. RY (21) C 11             0.00000     6.59093
  371. RY (22) C 11             0.00000     3.08143
  372. RY (23) C 11             0.00000     4.71434
  373. RY (24) C 11             0.00000     3.11633
  374. RY (25) C 11             0.00000     2.75215
  375. RY (26) C 11             0.00000     2.83066
  376. RY ( 1) C 12             0.00256     1.37519
  377. RY ( 2) C 12             0.00135     1.20348
  378. RY ( 3) C 12             0.00074     0.83911
  379. RY ( 4) C 12             0.00034     1.18429
  380. RY ( 5) C 12             0.00024     1.11335
  381. RY ( 6) C 12             0.00019     3.71651
  382. RY ( 7) C 12             0.00017     2.66449
  383. RY ( 8) C 12             0.00013     3.01741
  384. RY ( 9) C 12             0.00008     1.66818
  385. RY (10) C 12             0.00007     2.35300
  386. RY (11) C 12             0.00004     2.55582
  387. RY (12) C 12             0.00004     2.98588
  388. RY (13) C 12             0.00003     3.00064
  389. RY (14) C 12             0.00002     2.00611
  390. RY (15) C 12             0.00001     3.57526
  391. RY (16) C 12             0.00001     2.38524
  392. RY (17) C 12             0.00000     2.60673
  393. RY (18) C 12             0.00000     3.64134
  394. RY (19) C 12             0.00000     2.66774
  395. RY (20) C 12             0.00000     3.14336
  396. RY (21) C 12             0.00000     2.96438
  397. RY (22) C 12             0.00000    19.06971
  398. RY (23) C 12             0.00000     4.86256
  399. RY (24) C 12             0.00000     3.17262
  400. RY (25) C 12             0.00000     3.20665
  401. RY (26) C 12             0.00000     3.01387
  402. RY ( 1) C 13             0.00589     1.23609
  403. RY ( 2) C 13             0.00541     1.17162
  404. RY ( 3) C 13             0.00429     1.23617
  405. RY ( 4) C 13             0.00228     1.68572
  406. RY ( 5) C 13             0.00224     1.81409
  407. RY ( 6) C 13             0.00209     1.85566
  408. RY ( 7) C 13             0.00101     2.27761
  409. RY ( 8) C 13             0.00092     2.35816
  410. RY ( 9) C 13             0.00022     2.13387
  411. RY (10) C 13             0.00018     3.28804
  412. RY (11) C 13             0.00007     2.83783
  413. RY (12) C 13             0.00005     2.50399
  414. RY (13) C 13             0.00002     2.52467
  415. RY (14) C 13             0.00002     1.55821
  416. RY (15) C 13             0.00002     2.44069
  417. RY (16) C 13             0.00001     2.83093
  418. RY (17) C 13             0.00000     2.91552
  419. RY (18) C 13             0.00000     1.26329
  420. RY (19) C 13             0.00000     3.95035
  421. RY (20) C 13             0.00000     3.02457
  422. RY (21) C 13             0.00000     2.63594
  423. RY (22) C 13             0.00000     6.20330
  424. RY (23) C 13             0.00000     3.20945
  425. RY (24) C 13             0.00000    14.75812
  426. RY (25) C 13             0.00000     3.06744
  427. RY (26) C 13             0.00000     3.03497
  428. RY ( 1) F 14             0.00027     1.04526
  429. RY ( 2) F 14             0.00024     0.86776
  430. RY ( 3) F 14             0.00010     1.82380
  431. RY ( 4) F 14             0.00004     2.40675
  432. RY ( 5) F 14             0.00003     2.60246
  433. RY ( 6) F 14             0.00001     2.81736
  434. RY ( 7) F 14             0.00001     2.14924
  435. RY ( 8) F 14             0.00001     2.94861
  436. RY ( 9) F 14             0.00000     3.26295
  437. RY (10) F 14             0.00000    42.44684
  438. RY (11) F 14             0.00000     5.93109
  439. RY (12) F 14             0.00000     5.33150
  440. RY (13) F 14             0.00000     4.03095
  441. RY (14) F 14             0.00000     7.40858
  442. RY (15) F 14             0.00000     6.17989
  443. RY (16) F 14             0.00000     6.52555
  444. RY (17) F 14             0.00000     3.59016
  445. RY (18) F 14             0.00000     9.75068
  446. RY (19) F 14             0.00000     9.13964
  447. RY (20) F 14             0.00000     5.35881
  448. RY (21) F 14             0.00000     8.86754
  449. RY (22) F 14             0.00000     6.99748
  450. RY (23) F 14             0.00000     7.12806
  451. RY (24) F 14             0.00000     7.96644
  452. RY (25) F 14             0.00000     7.27191
  453. RY (26) F 14             0.00000    13.54376
  454. RY ( 1) F 15             0.00025     1.04464
  455. RY ( 2) F 15             0.00023     0.90630
  456. RY ( 3) F 15             0.00011     1.68641
  457. RY ( 4) F 15             0.00004     2.41320
  458. RY ( 5) F 15             0.00003     2.50950
  459. RY ( 6) F 15             0.00001     2.71705
  460. RY ( 7) F 15             0.00001     2.41325
  461. RY ( 8) F 15             0.00001     2.32289
  462. RY ( 9) F 15             0.00000     6.29622
  463. RY (10) F 15             0.00000    23.38955
  464. RY (11) F 15             0.00000     4.56842
  465. RY (12) F 15             0.00000    11.94132
  466. RY (13) F 15             0.00000     5.29408
  467. RY (14) F 15             0.00000     9.36291
  468. RY (15) F 15             0.00000     2.74638
  469. RY (16) F 15             0.00000     4.66321
  470. RY (17) F 15             0.00000     6.23367
  471. RY (18) F 15             0.00000     7.75646
  472. RY (19) F 15             0.00000     6.25939
  473. RY (20) F 15             0.00000     7.35951
  474. RY (21) F 15             0.00000     6.88472
  475. RY (22) F 15             0.00000     6.60498
  476. RY (23) F 15             0.00000     7.50594
  477. RY (24) F 15             0.00000    20.48753
  478. RY (25) F 15             0.00000    15.05122
  479. RY (26) F 15             0.00000     8.95557
  480. RY ( 1) F 16             0.00025     1.04615
  481. RY ( 2) F 16             0.00022     0.90810
  482. RY ( 3) F 16             0.00011     1.67792
  483. RY ( 4) F 16             0.00004     2.41588
  484. RY ( 5) F 16             0.00003     2.51285
  485. RY ( 6) F 16             0.00001     2.69282
  486. RY ( 7) F 16             0.00001     2.41447
  487. RY ( 8) F 16             0.00001     2.32262
  488. RY ( 9) F 16             0.00000     4.69755
  489. RY (10) F 16             0.00000     5.59996
  490. RY (11) F 16             0.00000     4.61404
  491. RY (12) F 16             0.00000     6.76295
  492. RY (13) F 16             0.00000    11.26110
  493. RY (14) F 16             0.00000     9.23584
  494. RY (15) F 16             0.00000     2.78596
  495. RY (16) F 16             0.00000     6.18396
  496. RY (17) F 16             0.00000    22.68456
  497. RY (18) F 16             0.00000     7.75116
  498. RY (19) F 16             0.00000     6.15629
  499. RY (20) F 16             0.00000     7.47941
  500. RY (21) F 16             0.00000     7.33006
  501. RY (22) F 16             0.00000     6.67177
  502. RY (23) F 16             0.00000     6.24208
  503. RY (24) F 16             0.00000    22.17298
  504. RY (25) F 16             0.00000    14.73920
  505. RY (26) F 16             0.00000     9.04088
  506. RY ( 1) C 17             0.00232     1.47683
  507. RY ( 2) C 17             0.00085     0.99075
  508. RY ( 3) C 17             0.00037     2.65035
  509. RY ( 4) C 17             0.00023     0.28055
  510. RY ( 5) C 17             0.00021     2.44802
  511. RY ( 6) C 17             0.00013     2.76074
  512. RY ( 7) C 17             0.00009     2.37887
  513. RY ( 8) C 17             0.00006     2.98984
  514. RY ( 9) C 17             0.00005     1.03362
  515. RY (10) C 17             0.00004     2.86560
  516. RY (11) C 17             0.00003     1.36751
  517. RY (12) C 17             0.00002     2.25375
  518. RY (13) C 17             0.00002     2.15511
  519. RY (14) C 17             0.00001     3.32652
  520. RY (15) C 17             0.00000     3.24507
  521. RY (16) C 17             0.00000     3.33971
  522. RY (17) C 17             0.00000     1.42496
  523. RY (18) C 17             0.00000     3.78243
  524. RY (19) C 17             0.00000     2.53814
  525. RY (20) C 17             0.00000     2.88964
  526. RY (21) C 17             0.00000     8.01266
  527. RY (22) C 17             0.00000     5.81958
  528. RY (23) C 17             0.00000     2.96276
  529. RY (24) C 17             0.00000     7.09368
  530. RY (25) C 17             0.00000     3.08805
  531. RY (26) C 17             0.00000     3.01350
  532. RY ( 1) H 18             0.00034     1.48929
  533. RY ( 2) H 18             0.00028     1.81419
  534. RY ( 3) H 18             0.00018     0.99804
  535. RY ( 4) H 18             0.00006     1.91290
  536. RY ( 5) H 18             0.00000     3.11579
  537. RY ( 1) H 19             0.00021     1.29958
  538. RY ( 2) H 19             0.00003     1.03431
  539. RY ( 3) H 19             0.00002     2.32600
  540. RY ( 4) H 19             0.00002     1.95845
  541. RY ( 5) H 19             0.00001     2.75034
  542. RY ( 1) H 20             0.00019     1.26989
  543. RY ( 2) H 20             0.00003     1.12920
  544. RY ( 3) H 20             0.00002     2.24905
  545. RY ( 4) H 20             0.00002     1.94724
  546. RY ( 5) H 20             0.00001     2.71664
  547. RY ( 1) H 21             0.00021     1.26231
  548. RY ( 2) H 21             0.00003     1.13533
  549. RY ( 3) H 21             0.00002     2.24600
  550. RY ( 4) H 21             0.00001     2.70340
  551. RY ( 5) H 21             0.00000     1.92858
          -------------------------------
                 Total Lewis   61.98485  ( 98.3886%)
           Valence non-Lewis    0.90892  (  1.4427%)
           Rydberg non-Lewis    0.10623  (  0.1686%)
          -------------------------------
               Total unit  1   63.00000  (100.0000%)
              Charge unit  1    1.00000

 $CHOOSE
  ALPHA
   LONE 1 2 3 2 8 3 9 3 10 3 14 3 15 3 16 3 END
   BOND D 1 2 S 2 3 S 2 4 S 3 18 S 4 5 D 4 17 D 5 6 S 5 19 S 6 7 S 6 11 S 7 8
        S 7 9 S 7 10 D 11 12 S 11 20 S 12 13 S 12 17 S 13 14 S 13 15 S 13 16
        S 17 21 END
  END
  BETA
   LONE 1 2 3 2 8 3 9 3 10 3 14 3 15 3 16 3 END
   BOND D 1 2 S 2 3 S 2 4 S 3 18 D 4 5 S 4 17 S 5 6 S 5 19 S 6 7 S 6 11 S 7 8
        S 7 9 S 7 10 D 11 12 S 11 20 S 12 13 S 12 17 S 13 14 S 13 15 S 13 16
        S 17 21 END
  END
 $END

 NBO analysis completed in 11.81 CPU seconds (12 wall seconds)
 Maximum scratch memory used by NBO was 2971322 words (22.67 MB)
 Maximum scratch memory used by G16NBO was 618645 words (4.72 MB)

 Opening RunExU unformatted file "/tmp/Gau-3383127.EUF"
 Read unf file /tmp/Gau-3383127.EUF:
 Label Gaussian matrix elements                                         IVers= 2 NLab= 2 Version=AS64L-G16RevC.01
 Title Ac3_rdkit_conf_1_SP_charge_p                                    
 NAtoms=    21 NBasis=   551 NBsUse=   551 ICharg=     1 Multip=     2 NE=   127 Len12L=8 Len4L=8 IOpCl= 1 ICGU=112
 GAUSSIAN SCALARS                    NI= 1 NR= 1 NTot=       1 LenBuf=    2 NRI=1 N=    1000
 NPA CHARGES                         NI= 0 NR= 1 NTot=      21 LenBuf= 2048 NRI=1 N=      21
 Recovered energy= -1094.60855171     dipole=     -0.500561709598      1.250142400629     -0.002268401747
 Unable to Open any file for archive entry.
 1\1\GINC-NODE17\SP\UM062X\def2TZVP\C9H4F6O2(1+,2)\SVSS\29-Jan-2024\0\\
 # pop=(nbo6, hirshfeld) m062x/def2tzvp\\Ac3_rdkit_conf_1_SP_charge_p\\
 1,2\O,0,-0.670054,3.85444,-0.000298\C,0,0.268476,3.109484,-0.00007\O,0
 ,1.541432,3.533217,-0.000025\C,0,0.156797,1.62291,0.000214\C,0,-1.1216
 26,1.069042,-0.000049\C,0,-1.264958,-0.3033,0.000469\C,0,-2.627355,-0.
 943352,-0.000042\F,0,-3.608006,-0.041886,0.002441\F,0,-2.794981,-1.725
 924,1.072605\F,0,-2.796293,-1.721364,-1.075801\C,0,-0.149622,-1.136028
 ,0.001246\C,0,1.112276,-0.574307,0.001587\C,0,2.344553,-1.438597,0.000
 096\F,0,2.047851,-2.738436,0.021133\F,0,3.116982,-1.184121,1.062286\F,
 0,3.093293,-1.213924,-1.085657\C,0,1.275245,0.806318,0.000992\H,0,1.52
 2502,4.501026,-0.000151\H,0,-1.980774,1.726087,-0.000457\H,0,-0.271248
 ,-2.211422,0.001967\H,0,2.266165,1.240928,0.001511\\Version=AS64L-G16R
 evC.01\State=2-A\HF=-1094.6085517\S2=0.771082\S2-1=0.\S2A=0.750094\RMS
 D=6.548e-09\Dipole=0.5005617,1.2501424,0.0022684\Quadrupole=-1.1161567
 ,7.6910388,-6.574882,7.9302201,0.0047236,-0.0031406\PG=C01 [X(C9H4F6O2
 )]\\@
 The archive entry for this job was punched.


 You don't have to suffer to be a poet.
 Adolescence is enough suffering for anyone.
                             -- John Ciardi
 Job cpu time:       0 days  1 hours 25 minutes 22.8 seconds.
 Elapsed time:       0 days  0 hours 11 minutes 15.3 seconds.
 File lengths (MBytes):  RWF=    292 Int=      0 D2E=      0 Chk=     22 Scr=      1
 Normal termination of Gaussian 16 at Mon Jan 29 15:42:08 2024.
