Job Start Time: Mon Jan 29 15:11:05 MST 2024
SLURM Job ID: 229832
SLURM Job Name: Ac4_rdkit_conf_3_SP_charge
 Entering Gaussian System, Link 0=/opt/apps/Gaussian/G16C/g16/g16
 Initial command:
 /opt/apps/Gaussian/G16C/g16/l1.exe "/tmp/Gau-1602387.inp" -scrdir="/tmp/"
 Entering Link 1 = /opt/apps/Gaussian/G16C/g16/l1.exe PID=   1602389.
  
 Copyright (c) 1988-2019, Gaussian, Inc.  All Rights Reserved.
  
 This is part of the Gaussian(R) 16 program.  It is based on
 the Gaussian(R) 09 system (copyright 2009, Gaussian, Inc.),
 the Gaussian(R) 03 system (copyright 2003, Gaussian, Inc.),
 the Gaussian(R) 98 system (copyright 1998, Gaussian, Inc.),
 the Gaussian(R) 94 system (copyright 1995, Gaussian, Inc.),
 the Gaussian 92(TM) system (copyright 1992, Gaussian, Inc.),
 the Gaussian 90(TM) system (copyright 1990, Gaussian, Inc.),
 the Gaussian 88(TM) system (copyright 1988, Gaussian, Inc.),
 the Gaussian 86(TM) system (copyright 1986, Carnegie Mellon
 University), and the Gaussian 82(TM) system (copyright 1983,
 Carnegie Mellon University). Gaussian is a federally registered
 trademark of Gaussian, Inc.
  
 This software contains proprietary and confidential information,
 including trade secrets, belonging to Gaussian, Inc.
  
 This software is provided under written license and may be
 used, copied, transmitted, or stored only in accord with that
 written license.
  
 The following legend is applicable only to US Government
 contracts under FAR:
  
                    RESTRICTED RIGHTS LEGEND
  
 Use, reproduction and disclosure by the US Government is
 subject to restrictions as set forth in subparagraphs (a)
 and (c) of the Commercial Computer Software - Restricted
 Rights clause in FAR 52.227-19.
  
 Gaussian, Inc.
 340 Quinnipiac St., Bldg. 40, Wallingford CT 06492
  
  
 ---------------------------------------------------------------
 Warning -- This program may not be used in any manner that
 competes with the business of Gaussian, Inc. or will provide
 assistance to any competitor of Gaussian, Inc.  The licensee
 of this program is prohibited from giving any competitor of
 Gaussian, Inc. access to this program.  By using this program,
 the user acknowledges that Gaussian, Inc. is engaged in the
 business of creating and licensing software in the field of
 computational chemistry and represents and warrants to the
 licensee that it is not a competitor of Gaussian, Inc. and that
 it will not use this program in any manner prohibited above.
 ---------------------------------------------------------------
  

 Cite this work as:
 Gaussian 16, Revision C.01,
 M. J. Frisch, G. W. Trucks, H. B. Schlegel, G. E. Scuseria, 
 M. A. Robb, J. R. Cheeseman, G. Scalmani, V. Barone, 
 G. A. Petersson, H. Nakatsuji, X. Li, M. Caricato, A. V. Marenich, 
 J. Bloino, B. G. Janesko, R. Gomperts, B. Mennucci, H. P. Hratchian, 
 J. V. Ortiz, A. F. Izmaylov, J. L. Sonnenberg, D. Williams-Young, 
 F. Ding, F. Lipparini, F. Egidi, J. Goings, B. Peng, A. Petrone, 
 T. Henderson, D. Ranasinghe, V. G. Zakrzewski, J. Gao, N. Rega, 
 G. Zheng, W. Liang, M. Hada, M. Ehara, K. Toyota, R. Fukuda, 
 J. Hasegawa, M. Ishida, T. Nakajima, Y. Honda, O. Kitao, H. Nakai, 
 T. Vreven, K. Throssell, J. A. Montgomery, Jr., J. E. Peralta, 
 F. Ogliaro, M. J. Bearpark, J. J. Heyd, E. N. Brothers, K. N. Kudin, 
 V. N. Staroverov, T. A. Keith, R. Kobayashi, J. Normand, 
 K. Raghavachari, A. P. Rendell, J. C. Burant, S. S. Iyengar, 
 J. Tomasi, M. Cossi, J. M. Millam, M. Klene, C. Adamo, R. Cammi, 
 J. W. Ochterski, R. L. Martin, K. Morokuma, O. Farkas, 
 J. B. Foresman, and D. J. Fox, Gaussian, Inc., Wallingford CT, 2019.
 
 ******************************************
 Gaussian 16:  AS64L-G16RevC.01  3-Jul-2019
                29-Jan-2024 
 ******************************************
 %nprocshared=8
 Will use up to    8 processors via shared memory.
 %mem=16GB
 --------------------------------------
 # pop=(nbo6, hirshfeld) m062x/def2tzvp
 --------------------------------------
 1/38=1,172=1/1;
 2/12=2,17=6,18=5,40=1/2;
 3/5=44,7=101,11=2,25=1,30=1,74=-55/1,2,3;
 4//1;
 5/5=2,38=5/2;
 6/7=2,8=2,9=2,10=2,28=1,40=1,79=1,113=1,114=1,124=3103,126=1/1,12;
 99/5=1,9=1/99;
 --------------------------
 Ac4_rdkit_conf_3_SP_charge
 --------------------------
 Symbolic Z-matrix:
 Charge =  0 Multiplicity = 1
 C                     0.81887   2.56857   0.48624 
 O                     0.47873   1.71006  -0.59178 
 C                    -0.39191   0.71336  -0.26415 
 C                    -1.75258   1.0017   -0.22777 
 C                    -2.67589   0.00311   0.02705 
 C                    -2.2512   -1.30422   0.2351 
 C                    -0.90147  -1.59595   0.18956 
 C                     0.04394  -0.59595  -0.04136 
 C                     1.46906  -1.02971  -0.04837 
 O                     1.81427  -2.17055  -0.20107 
 O                     2.35493  -0.04619   0.17686 
 H                    -0.07309   3.05402   0.89168 
 H                     1.49222   3.32115   0.08363 
 H                     1.32437   2.00873   1.27541 
 H                    -2.06599   2.01851  -0.4268 
 H                    -3.73139   0.24209   0.0493 
 H                    -2.97015  -2.08964   0.42368 
 H                    -0.54211  -2.60606   0.33441 
 H                     3.22979  -0.46082   0.15887 
 
                          Input orientation:                          
 ---------------------------------------------------------------------
 Center     Atomic      Atomic             Coordinates (Angstroms)
 Number     Number       Type             X           Y           Z
 ---------------------------------------------------------------------
      1          6           0        0.818870    2.568572    0.486238
      2          8           0        0.478730    1.710061   -0.591784
      3          6           0       -0.391914    0.713364   -0.264149
      4          6           0       -1.752579    1.001698   -0.227769
      5          6           0       -2.675893    0.003110    0.027052
      6          6           0       -2.251199   -1.304215    0.235095
      7          6           0       -0.901466   -1.595949    0.189559
      8          6           0        0.043937   -0.595951   -0.041361
      9          6           0        1.469064   -1.029710   -0.048370
     10          8           0        1.814267   -2.170553   -0.201068
     11          8           0        2.354933   -0.046194    0.176857
     12          1           0       -0.073093    3.054019    0.891683
     13          1           0        1.492221    3.321149    0.083629
     14          1           0        1.324367    2.008731    1.275413
     15          1           0       -2.065986    2.018507   -0.426795
     16          1           0       -3.731391    0.242092    0.049298
     17          1           0       -2.970150   -2.089642    0.423680
     18          1           0       -0.542114   -2.606055    0.334406
     19          1           0        3.229789   -0.460822    0.158868
 ---------------------------------------------------------------------
                    Distance matrix (angstroms):
                    1          2          3          4          5
     1  C    0.000000
     2  O    1.419460   0.000000
     3  C    2.338990   1.363367   0.000000
     4  C    3.094713   2.369182   1.391355   0.000000
     5  C    4.359566   3.639819   2.409527   1.383698   0.000000
     6  C    4.948422   4.149952   2.788693   2.404184   1.390232
     7  C    4.515618   3.666762   2.407991   2.765199   2.394157
     8  C    3.300468   2.410332   1.397822   2.411369   2.785862
     9  C    3.695428   2.963512   2.558927   3.812845   4.272362
    10  O    4.891064   4.122558   3.631555   4.773498   4.993835
    11  O    3.048312   2.682420   2.883849   4.258339   5.033297
    12  H    1.093454   2.076393   2.629878   2.878518   4.102463
    13  H    1.087137   2.019641   3.235963   4.000694   5.327829
    14  H    1.091671   2.071408   2.644588   3.569491   4.645751
    15  H    3.075483   2.568646   2.128936   1.082467   2.154017
    16  H    5.129162   4.504557   3.387101   2.137631   1.082443
    17  H    6.004960   5.231031   3.870046   3.385742   2.150235
    18  H    5.352765   4.530873   3.376295   3.846706   3.384556
    19  H    3.885477   3.583928   3.830716   5.206961   5.925343
                    6          7          8          9         10
     6  C    0.000000
     7  C    1.381652   0.000000
     8  C    2.417791   1.395388   0.000000
     9  C    3.741131   2.448806   1.489692   0.000000
    10  O    4.179569   2.803206   2.374647   1.201667   0.000000
    11  O    4.775192   3.606388   2.385488   1.342682   2.224421
    12  H    4.916244   4.775079   3.769157   4.465287   5.661483
    13  H    5.952321   5.469809   4.178136   4.352922   5.508499
    14  H    4.984230   4.373457   3.187125   3.317448   4.459418
    15  H    3.393064   3.847115   3.381675   4.683098   5.714503
    16  H    2.148617   3.377357   3.868286   5.354601   6.052922
    17  H    1.081365   2.139626   3.395894   4.588345   4.825713
    18  H    2.150726   1.081864   2.127246   2.583838   2.455387
    19  H    5.546021   4.284475   3.194997   1.861917   2.248652
                   11         12         13         14         15
    11  O    0.000000
    12  H    4.002200   0.000000
    13  H    3.477350   1.781718   0.000000
    14  H    2.547863   1.786832   1.780720   0.000000
    15  H    4.916494   2.604283   3.823381   3.793692   0.000000
    16  H    6.094483   4.690383   6.063653   5.494093   2.481106
    17  H    5.709038   5.921927   7.021755   5.997082   4.291586
    18  H    3.869185   5.706748   6.271615   5.066112   4.928305
    19  H    0.968304   4.878540   4.162704   3.313004   5.876675
                   16         17         18         19
    16  H    0.000000
    17  H    2.481256   0.000000
    18  H    4.285407   2.483951   0.000000
    19  H    6.997437   6.415795   4.342821   0.000000
 Stoichiometry    C8H8O3
 Framework group  C1[X(C8H8O3)]
 Deg. of freedom    51
 Full point group                 C1      NOp   1
 Largest Abelian subgroup         C1      NOp   1
 Largest concise Abelian subgroup C1      NOp   1
                         Standard orientation:                         
 ---------------------------------------------------------------------
 Center     Atomic      Atomic             Coordinates (Angstroms)
 Number     Number       Type             X           Y           Z
 ---------------------------------------------------------------------
      1          6           0        0.818869    2.568572    0.486238
      2          8           0        0.478729    1.710061   -0.591784
      3          6           0       -0.391914    0.713364   -0.264149
      4          6           0       -1.752579    1.001697   -0.227769
      5          6           0       -2.675893    0.003109    0.027052
      6          6           0       -2.251199   -1.304216    0.235095
      7          6           0       -0.901466   -1.595949    0.189559
      8          6           0        0.043937   -0.595951   -0.041361
      9          6           0        1.469064   -1.029710   -0.048370
     10          8           0        1.814268   -2.170553   -0.201068
     11          8           0        2.354933   -0.046193    0.176857
     12          1           0       -0.073094    3.054019    0.891683
     13          1           0        1.492220    3.321149    0.083629
     14          1           0        1.324366    2.008731    1.275413
     15          1           0       -2.065987    2.018506   -0.426795
     16          1           0       -3.731391    0.242091    0.049298
     17          1           0       -2.970149   -2.089643    0.423680
     18          1           0       -0.542113   -2.606055    0.334406
     19          1           0        3.229789   -0.460821    0.158868
 ---------------------------------------------------------------------
 Rotational constants (GHZ):           1.4786082           1.1698909           0.6795928
 Standard basis: def2TZVP (5D, 7F)
 There are   444 symmetry adapted cartesian basis functions of A   symmetry.
 There are   389 symmetry adapted basis functions of A   symmetry.
   389 basis functions,   625 primitive gaussians,   444 cartesian basis functions
    40 alpha electrons       40 beta electrons
       nuclear repulsion energy       601.2380960696 Hartrees.
 NAtoms=   19 NActive=   19 NUniq=   19 SFac= 1.00D+00 NAtFMM=   60 NAOKFM=F Big=F
 Integral buffers will be    131072 words long.
 Raffenetti 2 integral format.
 Two-electron integral symmetry is turned on.
 One-electron integrals computed using PRISM.
   1 Symmetry operations used in ECPInt.
 ECPInt:  NShTT=   11781 NPrTT=   36312 LenC2=   11329 LenP2D=   26919.
 LDataN:  DoStor=T MaxTD1= 6 Len=  172
 NBasis=   389 RedAO= T EigKep=  8.07D-06  NBF=   389
 NBsUse=   389 1.00D-06 EigRej= -1.00D+00 NBFU=   389
 ExpMin= 9.52D-02 ExpMax= 2.70D+04 ExpMxC= 9.22D+02 IAcc=3 IRadAn=         5 AccDes= 0.00D+00
 Harris functional with IExCor= 1009 and IRadAn=       5 diagonalized for initial guess.
 HarFok:  IExCor= 1009 AccDes= 0.00D+00 IRadAn=         5 IDoV= 1 UseB2=F ITyADJ=14
 ICtDFT=  3500011 ScaDFX=  1.000000  1.000000  1.000000  1.000000
 FoFCou: FMM=F IPFlag=           0 FMFlag=      100000 FMFlg1=           0
         NFxFlg=           0 DoJE=T BraDBF=F KetDBF=T FulRan=T
         wScrn=  0.000000 ICntrl=       500 IOpCl=  0 I1Cent=   200000004 NGrid=           0
         NMat0=    1 NMatS0=      1 NMatT0=    0 NMatD0=    1 NMtDS0=    0 NMtDT0=    0
 Petite list used in FoFCou.
 Requested convergence on RMS density matrix=1.00D-08 within 128 cycles.
 Requested convergence on MAX density matrix=1.00D-06.
 Requested convergence on             energy=1.00D-06.
 No special actions if energy rises.
 Integral accuracy reduced to 1.0D-05 until final iterations.
 Initial convergence to 1.0D-05 achieved.  Increase integral accuracy.
 SCF Done:  E(RM062X) =  -535.335910020     A.U. after   15 cycles
            NFock= 15  Conv=0.76D-08     -V/T= 2.0045

 **********************************************************************

            Population analysis using the SCF Density.

 **********************************************************************

 Orbital symmetries:
       Occupied  (A) (A) (A) (A) (A) (A) (A) (A) (A) (A) (A) (A)
                 (A) (A) (A) (A) (A) (A) (A) (A) (A) (A) (A) (A)
                 (A) (A) (A) (A) (A) (A) (A) (A) (A) (A) (A) (A)
                 (A) (A) (A) (A)
       Virtual   (A) (A) (A) (A) (A) (A) (A) (A) (A) (A) (A) (A)
                 (A) (A) (A) (A) (A) (A) (A) (A) (A) (A) (A) (A)
                 (A) (A) (A) (A) (A) (A) (A) (A) (A) (A) (A) (A)
                 (A) (A) (A) (A) (A) (A) (A) (A) (A) (A) (A) (A)
                 (A) (A) (A) (A) (A) (A) (A) (A) (A) (A) (A) (A)
                 (A) (A) (A) (A) (A) (A) (A) (A) (A) (A) (A) (A)
                 (A) (A) (A) (A) (A) (A) (A) (A) (A) (A) (A) (A)
                 (A) (A) (A) (A) (A) (A) (A) (A) (A) (A) (A) (A)
                 (A) (A) (A) (A) (A) (A) (A) (A) (A) (A) (A) (A)
                 (A) (A) (A) (A) (A) (A) (A) (A) (A) (A) (A) (A)
                 (A) (A) (A) (A) (A) (A) (A) (A) (A) (A) (A) (A)
                 (A) (A) (A) (A) (A) (A) (A) (A) (A) (A) (A) (A)
                 (A) (A) (A) (A) (A) (A) (A) (A) (A) (A) (A) (A)
                 (A) (A) (A) (A) (A) (A) (A) (A) (A) (A) (A) (A)
                 (A) (A) (A) (A) (A) (A) (A) (A) (A) (A) (A) (A)
                 (A) (A) (A) (A) (A) (A) (A) (A) (A) (A) (A) (A)
                 (A) (A) (A) (A) (A) (A) (A) (A) (A) (A) (A) (A)
                 (A) (A) (A) (A) (A) (A) (A) (A) (A) (A) (A) (A)
                 (A) (A) (A) (A) (A) (A) (A) (A) (A) (A) (A) (A)
                 (A) (A) (A) (A) (A) (A) (A) (A) (A) (A) (A) (A)
                 (A) (A) (A) (A) (A) (A) (A) (A) (A) (A) (A) (A)
                 (A) (A) (A) (A) (A) (A) (A) (A) (A) (A) (A) (A)
                 (A) (A) (A) (A) (A) (A) (A) (A) (A) (A) (A) (A)
                 (A) (A) (A) (A) (A) (A) (A) (A) (A) (A) (A) (A)
                 (A) (A) (A) (A) (A) (A) (A) (A) (A) (A) (A) (A)
                 (A) (A) (A) (A) (A) (A) (A) (A) (A) (A) (A) (A)
                 (A) (A) (A) (A) (A) (A) (A) (A) (A) (A) (A) (A)
                 (A) (A) (A) (A) (A) (A) (A) (A) (A) (A) (A) (A)
                 (A) (A) (A) (A) (A) (A) (A) (A) (A) (A) (A) (A)
                 (A)
 The electronic state is 1-A.
 Alpha  occ. eigenvalues --  -19.67510 -19.64668 -19.61820 -10.68177 -10.61463
 Alpha  occ. eigenvalues --  -10.58699 -10.56425 -10.55900 -10.55601 -10.55115
 Alpha  occ. eigenvalues --  -10.54978  -1.24427  -1.18932  -1.14476  -0.97664
 Alpha  occ. eigenvalues --   -0.87785  -0.86007  -0.79254  -0.75641  -0.69521
 Alpha  occ. eigenvalues --   -0.68283  -0.62327  -0.59295  -0.58047  -0.56132
 Alpha  occ. eigenvalues --   -0.54891  -0.54646  -0.53316  -0.51573  -0.50276
 Alpha  occ. eigenvalues --   -0.48482  -0.45451  -0.44410  -0.43132  -0.41616
 Alpha  occ. eigenvalues --   -0.40288  -0.36931  -0.35272  -0.32408  -0.30923
 Alpha virt. eigenvalues --   -0.01984   0.01443   0.06526   0.08121   0.08499
 Alpha virt. eigenvalues --    0.09402   0.11352   0.11912   0.12901   0.13947
 Alpha virt. eigenvalues --    0.15027   0.16006   0.16955   0.18885   0.20151
 Alpha virt. eigenvalues --    0.20960   0.21583   0.22756   0.24311   0.24564
 Alpha virt. eigenvalues --    0.25362   0.26241   0.26742   0.27474   0.29649
 Alpha virt. eigenvalues --    0.30362   0.31849   0.33088   0.34212   0.34483
 Alpha virt. eigenvalues --    0.35354   0.36188   0.37253   0.37829   0.38680
 Alpha virt. eigenvalues --    0.40369   0.41090   0.41374   0.41864   0.42595
 Alpha virt. eigenvalues --    0.42912   0.44704   0.46198   0.46628   0.47978
 Alpha virt. eigenvalues --    0.48431   0.49840   0.50215   0.50832   0.52530
 Alpha virt. eigenvalues --    0.52750   0.53707   0.54885   0.55246   0.55935
 Alpha virt. eigenvalues --    0.56954   0.59217   0.60832   0.61505   0.62374
 Alpha virt. eigenvalues --    0.63235   0.64876   0.66586   0.69355   0.69927
 Alpha virt. eigenvalues --    0.72108   0.73378   0.74197   0.75040   0.77075
 Alpha virt. eigenvalues --    0.78790   0.78920   0.79304   0.80791   0.83033
 Alpha virt. eigenvalues --    0.83719   0.86074   0.86700   0.87349   0.89547
 Alpha virt. eigenvalues --    0.90467   0.91999   0.92681   0.94344   0.95412
 Alpha virt. eigenvalues --    0.98734   0.99490   1.00587   1.01677   1.02336
 Alpha virt. eigenvalues --    1.04689   1.06712   1.10267   1.11023   1.13539
 Alpha virt. eigenvalues --    1.14212   1.15198   1.16740   1.19046   1.22755
 Alpha virt. eigenvalues --    1.23342   1.26013   1.26699   1.29360   1.31279
 Alpha virt. eigenvalues --    1.33050   1.33565   1.35534   1.36986   1.40733
 Alpha virt. eigenvalues --    1.44934   1.45222   1.47542   1.48703   1.50735
 Alpha virt. eigenvalues --    1.52926   1.54530   1.54847   1.55545   1.56311
 Alpha virt. eigenvalues --    1.57626   1.57698   1.59023   1.60610   1.62423
 Alpha virt. eigenvalues --    1.63935   1.66173   1.68340   1.69045   1.69467
 Alpha virt. eigenvalues --    1.72369   1.72874   1.74250   1.75452   1.76652
 Alpha virt. eigenvalues --    1.77441   1.81983   1.83399   1.87267   1.88490
 Alpha virt. eigenvalues --    1.89995   1.91038   1.93449   1.94622   1.97086
 Alpha virt. eigenvalues --    1.98665   2.00093   2.02683   2.03634   2.04590
 Alpha virt. eigenvalues --    2.07552   2.09561   2.10792   2.12210   2.14418
 Alpha virt. eigenvalues --    2.15719   2.16408   2.18301   2.19262   2.21192
 Alpha virt. eigenvalues --    2.21730   2.24620   2.26488   2.29480   2.31327
 Alpha virt. eigenvalues --    2.31973   2.33979   2.36467   2.38108   2.39395
 Alpha virt. eigenvalues --    2.40744   2.43008   2.43325   2.48842   2.50804
 Alpha virt. eigenvalues --    2.52666   2.53112   2.54199   2.58706   2.58921
 Alpha virt. eigenvalues --    2.59593   2.60257   2.63755   2.65338   2.66016
 Alpha virt. eigenvalues --    2.67033   2.67647   2.70420   2.71002   2.73256
 Alpha virt. eigenvalues --    2.73723   2.74821   2.78129   2.79169   2.79741
 Alpha virt. eigenvalues --    2.81294   2.82515   2.84071   2.85292   2.86896
 Alpha virt. eigenvalues --    2.87390   2.88603   2.91233   2.92265   2.92700
 Alpha virt. eigenvalues --    2.94887   2.97023   3.00090   3.01039   3.02745
 Alpha virt. eigenvalues --    3.03691   3.04774   3.06354   3.09349   3.10306
 Alpha virt. eigenvalues --    3.11753   3.13472   3.14405   3.15503   3.16333
 Alpha virt. eigenvalues --    3.17182   3.20217   3.21194   3.22042   3.22342
 Alpha virt. eigenvalues --    3.24572   3.27588   3.28010   3.28388   3.29649
 Alpha virt. eigenvalues --    3.30325   3.32557   3.33336   3.34471   3.35315
 Alpha virt. eigenvalues --    3.37445   3.38772   3.39363   3.40024   3.42142
 Alpha virt. eigenvalues --    3.44310   3.45704   3.47145   3.48315   3.50196
 Alpha virt. eigenvalues --    3.51910   3.53223   3.55002   3.55522   3.56824
 Alpha virt. eigenvalues --    3.58523   3.59504   3.63070   3.63792   3.66451
 Alpha virt. eigenvalues --    3.68139   3.74586   3.77209   3.81823   3.82174
 Alpha virt. eigenvalues --    3.85772   3.88466   3.89811   3.92643   3.94230
 Alpha virt. eigenvalues --    3.97504   4.05709   4.06722   4.10476   4.14561
 Alpha virt. eigenvalues --    4.15431   4.16433   4.17036   4.19083   4.21217
 Alpha virt. eigenvalues --    4.21322   4.23900   4.26252   4.30465   4.31977
 Alpha virt. eigenvalues --    4.34668   4.37127   4.42359   4.43805   4.50469
 Alpha virt. eigenvalues --    4.55986   4.57254   4.59538   4.61324   4.63994
 Alpha virt. eigenvalues --    4.70247   4.75523   4.82773   4.85946   4.91308
 Alpha virt. eigenvalues --    5.02030   5.07064   5.11117   5.17583   5.22869
 Alpha virt. eigenvalues --    5.23230   5.24092   5.28148   5.36274   5.40437
 Alpha virt. eigenvalues --    5.41624   5.45120   5.49476   5.53066   5.54163
 Alpha virt. eigenvalues --    5.65648   5.79703   5.81531   5.90044   5.93201
 Alpha virt. eigenvalues --    6.01195   6.13774   6.17247   6.24082   6.27006
 Alpha virt. eigenvalues --    6.33162   6.35727   6.40914   6.47458   6.53371
 Alpha virt. eigenvalues --    6.69900   6.71948   6.72473   6.79139   6.83049
 Alpha virt. eigenvalues --    6.85368   6.92917   7.04284   7.10050   7.15601
 Alpha virt. eigenvalues --    7.19532   7.23012   7.37294  22.22313  22.47293
 Alpha virt. eigenvalues --   22.72724  22.78035  22.96418  22.99565  23.36064
 Alpha virt. eigenvalues --   23.59231  43.97172  44.03194  44.36491
          Condensed to atoms (all electrons):
               1          2          3          4          5          6
     1  C    4.901626   0.223032  -0.079652  -0.013285   0.000943   0.000010
     2  O    0.223032   8.017360   0.269386  -0.038506   0.013076  -0.001782
     3  C   -0.079652   0.269386   5.297931   0.287970   0.086548  -0.156457
     4  C   -0.013285  -0.038506   0.287970   5.148843   0.355791   0.039199
     5  C    0.000943   0.013076   0.086548   0.355791   5.033269   0.424423
     6  C    0.000010  -0.001782  -0.156457   0.039199   0.424423   4.994756
     7  C    0.002141   0.015567   0.170220  -0.187746   0.065546   0.407135
     8  C    0.003866  -0.067841   0.080486   0.154518  -0.168440   0.056707
     9  C   -0.009163   0.003429  -0.085061   0.022308  -0.011775   0.022306
    10  O   -0.000073  -0.000257  -0.000676  -0.000555   0.000236   0.001884
    11  O   -0.009072  -0.012078   0.015748   0.000921  -0.000088   0.000050
    12  H    0.404376  -0.044863   0.018996  -0.013526  -0.003297   0.000079
    13  H    0.407134  -0.030182   0.003926  -0.001192   0.000300  -0.000078
    14  H    0.409919  -0.047052  -0.012264   0.014946  -0.001150   0.000789
    15  H   -0.002304   0.005404  -0.063643   0.420401  -0.033622   0.007826
    16  H    0.000035  -0.000296   0.006845  -0.026219   0.403524  -0.034329
    17  H   -0.000005   0.000007  -0.000747   0.005576  -0.036161   0.415101
    18  H    0.000051  -0.000075   0.011253  -0.002020   0.005169  -0.036804
    19  H    0.000348   0.000750  -0.001544   0.000072  -0.000006   0.000021
               7          8          9         10         11         12
     1  C    0.002141   0.003866  -0.009163  -0.000073  -0.009072   0.404376
     2  O    0.015567  -0.067841   0.003429  -0.000257  -0.012078  -0.044863
     3  C    0.170220   0.080486  -0.085061  -0.000676   0.015748   0.018996
     4  C   -0.187746   0.154518   0.022308  -0.000555   0.000921  -0.013526
     5  C    0.065546  -0.168440  -0.011775   0.000236  -0.000088  -0.003297
     6  C    0.407135   0.056707   0.022306   0.001884   0.000050   0.000079
     7  C    5.206671   0.205799  -0.120483   0.022664   0.004776  -0.000111
     8  C    0.205799   5.709982   0.268610  -0.142766  -0.139661   0.002832
     9  C   -0.120483   0.268610   4.536024   0.686223   0.395382   0.001796
    10  O    0.022664  -0.142766   0.686223   7.836782  -0.092128   0.000001
    11  O    0.004776  -0.139661   0.395382  -0.092128   7.945974   0.000533
    12  H   -0.000111   0.002832   0.001796   0.000001   0.000533   0.578824
    13  H    0.000226  -0.002578  -0.000847   0.000001   0.000473  -0.025595
    14  H   -0.004281   0.012357  -0.001526   0.000024   0.004675  -0.048072
    15  H   -0.005062   0.019510   0.000523   0.000007  -0.000013  -0.003021
    16  H    0.004179  -0.001150   0.000064  -0.000001  -0.000001   0.000099
    17  H   -0.035118   0.006810  -0.000317  -0.000088   0.000003   0.000002
    18  H    0.406421  -0.024022  -0.015299   0.013793   0.000608  -0.000010
    19  H   -0.000842   0.025652  -0.031083   0.006449   0.291388   0.000001
              13         14         15         16         17         18
     1  C    0.407134   0.409919  -0.002304   0.000035  -0.000005   0.000051
     2  O   -0.030182  -0.047052   0.005404  -0.000296   0.000007  -0.000075
     3  C    0.003926  -0.012264  -0.063643   0.006845  -0.000747   0.011253
     4  C   -0.001192   0.014946   0.420401  -0.026219   0.005576  -0.002020
     5  C    0.000300  -0.001150  -0.033622   0.403524  -0.036161   0.005169
     6  C   -0.000078   0.000789   0.007826  -0.034329   0.415101  -0.036804
     7  C    0.000226  -0.004281  -0.005062   0.004179  -0.035118   0.406421
     8  C   -0.002578   0.012357   0.019510  -0.001150   0.006810  -0.024022
     9  C   -0.000847  -0.001526   0.000523   0.000064  -0.000317  -0.015299
    10  O    0.000001   0.000024   0.000007  -0.000001  -0.000088   0.013793
    11  O    0.000473   0.004675  -0.000013  -0.000001   0.000003   0.000608
    12  H   -0.025595  -0.048072  -0.003021   0.000099   0.000002  -0.000010
    13  H    0.529036  -0.025305  -0.000667  -0.000000  -0.000000   0.000000
    14  H   -0.025305   0.547295   0.001468  -0.000025   0.000002  -0.000022
    15  H   -0.000667   0.001468   0.497068  -0.004466  -0.000177   0.000038
    16  H   -0.000000  -0.000025  -0.004466   0.505963  -0.003512  -0.000219
    17  H   -0.000000   0.000002  -0.000177  -0.003512   0.503367  -0.003101
    18  H    0.000000  -0.000022   0.000038  -0.000219  -0.003101   0.468405
    19  H   -0.000027  -0.000120  -0.000002   0.000000  -0.000001  -0.000072
              19
     1  C    0.000348
     2  O    0.000750
     3  C   -0.001544
     4  C    0.000072
     5  C   -0.000006
     6  C    0.000021
     7  C   -0.000842
     8  C    0.025652
     9  C   -0.031083
    10  O    0.006449
    11  O    0.291388
    12  H    0.000001
    13  H   -0.000027
    14  H   -0.000120
    15  H   -0.000002
    16  H    0.000000
    17  H   -0.000001
    18  H   -0.000072
    19  H    0.372818
 Mulliken charges:
               1
     1  C   -0.239926
     2  O   -0.305077
     3  C    0.150733
     4  C   -0.167496
     5  C   -0.134283
     6  C   -0.140836
     7  C   -0.157701
     8  C   -0.000671
     9  C    0.338892
    10  O   -0.331519
    11  O   -0.407489
    12  H    0.130957
    13  H    0.145373
    14  H    0.148341
    15  H    0.160732
    16  H    0.149509
    17  H    0.148359
    18  H    0.175906
    19  H    0.336197
 Sum of Mulliken charges =  -0.00000
 Mulliken charges with hydrogens summed into heavy atoms:
               1
     1  C    0.184745
     2  O   -0.305077
     3  C    0.150733
     4  C   -0.006765
     5  C    0.015227
     6  C    0.007523
     7  C    0.018205
     8  C   -0.000671
     9  C    0.338892
    10  O   -0.331519
    11  O   -0.071292
 Electronic spatial extent (au):  <R**2>=           1641.5005
 Charge=             -0.0000 electrons
 Dipole moment (field-independent basis, Debye):
    X=             -1.0153    Y=              2.0077    Z=              1.4429  Tot=              2.6728
 Quadrupole moment (field-independent basis, Debye-Ang):
   XX=            -52.8673   YY=            -63.7566   ZZ=            -66.6812
   XY=              4.0434   XZ=              1.4288   YZ=              0.3417
 Traceless Quadrupole moment (field-independent basis, Debye-Ang):
   XX=              8.2344   YY=             -2.6549   ZZ=             -5.5795
   XY=              4.0434   XZ=              1.4288   YZ=              0.3417
 Octapole moment (field-independent basis, Debye-Ang**2):
  XXX=             30.0709  YYY=             27.2296  ZZZ=             -1.9642  XYY=            -10.3339
  XXY=              5.0094  XXZ=              3.1694  XZZ=             12.0388  YZZ=             -0.1814
  YYZ=              8.2054  XYZ=              1.8851
 Hexadecapole moment (field-independent basis, Debye-Ang**3):
 XXXX=           -904.1889 YYYY=           -888.9217 ZZZZ=           -111.2735 XXXY=             -7.0521
 XXXZ=              2.9115 YYYX=             51.6968 YYYZ=             -5.9727 ZZZX=              1.5104
 ZZZY=              0.5189 XXYY=           -340.5087 XXZZ=           -216.3697 YYZZ=           -176.5973
 XXYZ=            -10.9067 YYXZ=              3.9816 ZZXY=             -5.8802
 N-N= 6.012380960696D+02 E-N=-2.453768416252D+03  KE= 5.329417394312D+02
 There are a total of      430506 grid points.
 ElSum from          density=       79.9999923753
 ElSum from atomic densities=       79.9999734327
 Hirshfeld populations at iteration   1 (CA, CB, DipXYZ):
               1          2          3          4          5
     1  C    3.000223   3.000223  -0.004477  -0.006004  -0.040313
     2  O    4.077985   4.077985  -0.049448  -0.009942   0.133100
     3  C    2.959480   2.959480   0.075886   0.076417  -0.030294
     4  C    3.025102   3.025102  -0.020381   0.052319  -0.015977
     5  C    3.013546   3.013546  -0.069328   0.010979  -0.000638
     6  C    3.022141   3.022141  -0.045791  -0.045534   0.008203
     7  C    3.012149   3.012149   0.012408  -0.055624   0.001588
     8  C    3.013873   3.013873   0.061148  -0.008404  -0.012396
     9  C    2.894698   2.894698   0.018165   0.084483   0.002567
    10  O    4.141024   4.141024  -0.056676   0.104229   0.017703
    11  O    4.081984   4.081984   0.030172  -0.097476  -0.015451
    12  H    0.484651   0.484651  -0.100581   0.074845   0.054466
    13  H    0.476737   0.476737   0.095021   0.108570  -0.050664
    14  H    0.485488   0.485488   0.060215  -0.040093   0.109459
    15  H    0.475457   0.475457  -0.056420   0.146619  -0.030752
    16  H    0.475368   0.475368  -0.156139   0.034564   0.002683
    17  H    0.476378   0.476378  -0.106379  -0.117454   0.027263
    18  H    0.475176   0.475176   0.023130  -0.148986   0.025961
    19  H    0.408536   0.408536   0.212046  -0.055332   0.002297
       Tot  39.999996  39.999996  -0.077430   0.108176   0.188805

 Dip from Atomic Chgs             -0.322034   0.681684   0.378845
         Total Dipole             -0.399464   0.789860   0.567650

 Hirshfeld charges, spin densities, dipoles, and CM5 charges using IRadAn=      5:
              Q-H        S-H        Dx         Dy         Dz        Q-CM5   
     1  C   -0.000445   0.000000  -0.004477  -0.006004  -0.040313  -0.121767
     2  O   -0.155970   0.000000  -0.049448  -0.009942   0.133100  -0.244164
     3  C    0.081040   0.000000   0.075886   0.076417  -0.030294   0.100302
     4  C   -0.050204   0.000000  -0.020381   0.052319  -0.015977  -0.101285
     5  C   -0.027093   0.000000  -0.069328   0.010979  -0.000638  -0.082779
     6  C   -0.044282   0.000000  -0.045791  -0.045534   0.008203  -0.100150
     7  C   -0.024299   0.000000   0.012408  -0.055624   0.001588  -0.075973
     8  C   -0.027745   0.000000   0.061148  -0.008404  -0.012396  -0.026488
     9  C    0.210603   0.000000   0.018165   0.084483   0.002567   0.266176
    10  O   -0.282048   0.000000  -0.056676   0.104229   0.017703  -0.333293
    11  O   -0.163967   0.000000   0.030172  -0.097476  -0.015451  -0.360905
    12  H    0.030697   0.000000  -0.100581   0.074845   0.054466   0.090456
    13  H    0.046527   0.000000   0.095021   0.108570  -0.050664   0.107434
    14  H    0.029024   0.000000   0.060215  -0.040093   0.109459   0.092216
    15  H    0.049086   0.000000  -0.056420   0.146619  -0.030752   0.108721
    16  H    0.049264   0.000000  -0.156139   0.034564   0.002683   0.105410
    17  H    0.047243   0.000000  -0.106379  -0.117454   0.027263   0.103477
    18  H    0.049649   0.000000   0.023130  -0.148986   0.025961   0.111384
    19  H    0.182928   0.000000   0.212046  -0.055332   0.002297   0.361236
       Tot   0.000008   0.000000  -0.077430   0.108176   0.188805   0.000008
 Hirshfeld charges with hydrogens summed into heavy atoms:
              Q-H       Q-CM5   
     1  C    0.105803   0.168338
     2  O   -0.155970  -0.244164
     3  C    0.081040   0.100302
     4  C   -0.001119   0.007435
     5  C    0.022171   0.022632
     6  C    0.002961   0.003327
     7  C    0.025350   0.035411
     8  C   -0.027745  -0.026488
     9  C    0.210603   0.266176
    10  O   -0.282048  -0.333293
    11  O    0.018961   0.000331
 
 EQQ=  0.00000000000     EQD=  0.00000000000     EDD= 0.603073024546E-02
 EQQ+QD+DD= 0.603073024546E-02
 
 Running external command "gaunbo6 R"
         input file       "/tmp/Gau-1602389.EIn"
         output file      "/tmp/Gau-1602389.EOu"
         message file     "/tmp/Gau-1602389.EMs"
         fchk file        "/tmp/Gau-1602389.EFC"
         mat. el file     "/tmp/Gau-1602389.EUF"

 Writing WrtUnf unformatted file "/tmp/Gau-1602389.EUF"
 Gaussian matrix elements                                         Version   2 NLab=11 Len12L=8 Len4L=8
 Write SHELL TO ATOM MAP                   from file      0 offset           0 length                 153 to matrix element file.
 Write SHELL TYPES                         from file      0 offset           0 length                 153 to matrix element file.
 Write NUMBER OF PRIMITIVES PER SHELL      from file      0 offset           0 length                 153 to matrix element file.
 Write PRIMITIVE EXPONENTS                 from file      0 offset           0 length                 268 to matrix element file.
 Write CONTRACTION COEFFICIENTS            from file      0 offset           0 length                 268 to matrix element file.
 Write P(S=P) CONTRACTION COEFFICIENTS     from file      0 offset           0 length                 268 to matrix element file.
 Write COORDINATES OF EACH SHELL           from file      0 offset           0 length                 459 to matrix element file.
 Write BONDS PER ATOM                      from file      0 offset           0 length                  19 to matrix element file.
 Write BONDED ATOMS                        from file      0 offset           0 length                  38 to matrix element file.
 Write BOND TYPES                          from file      0 offset           0 length                  38 to matrix element file.
 Write ONIOM CHARGE/MULT                   from file      0 offset           0 length                  32 to matrix element file.
 Write ONIOM ATOM LAYERS                   from file      0 offset           0 length                  19 to matrix element file.
 Write ONIOM ATOM MODIFIERS                from file      0 offset           0 length                  19 to matrix element file.
 Write ONIOM ATOM TYPES                    from file      0 offset           0 length                  19 to matrix element file.
 Write ONIOM LINK ATOMS                    from file      0 offset           0 length                  19 to matrix element file.
 Write ONIOM LINK CHARGES                  from file      0 offset           0 length                  19 to matrix element file.
 Write ONIOM LINK DISTANCES                from file      0 offset           0 length                  76 to matrix element file.
 Write SYMINF INTS                         from file      0 offset           0 length                  26 to matrix element file.
 Write ROTTR TO SO                         from file      0 offset           0 length                  12 to matrix element file.
 Write GAUSSIAN SCALARS                    from file    501 offset           0 to matrix element file.
 Write OPTIMIZATION FLAGS                  from file      0 offset           0 length                  19 to matrix element file.
 Write INTEGER ISO                         from file      0 offset           0 length                  19 to matrix element file.
 Write INTEGER SPIN                        from file      0 offset           0 length                  19 to matrix element file.
 Write REAL ZEFFECTIVE                     from file      0 offset           0 length                  19 to matrix element file.
 Write REAL GFACTOR                        from file      0 offset           0 length                  19 to matrix element file.
 Write REAL ZNUCLEAR                       from file      0 offset           0 length                  19 to matrix element file.
 Write MULLIKEN CHARGES                    from file      0 offset           0 length                  19 to matrix element file.
 Write TYPE 6 CHARGES                      from file      0 offset           0 length                  19 to matrix element file.
 Write TYPE 7 CHARGES                      from file      0 offset           0 length                  19 to matrix element file.
 Write NUCLEAR GRADIENT                    from file  10584 offset           0 length                  57 to matrix element file.
 Array NUCLEAR FORCE CONSTANTS              on  file  10585 does not exist.
 Write ELECTRIC DIPOLE MOMENT              from file      0 offset           0 length                   3 to matrix element file.
 Write NON-ADIABATIC COUPLING              from file  10810 offset           0 length                  57 to matrix element file.
 Write FINITE EM FIELD                     from file  10521 offset           0 length                  35 to matrix element file.
 Write OVERLAP                             from file  10514 offset           0 length               75855 to matrix element file.
 Write CORE HAMILTONIAN ALPHA              from file  10515 offset           0 length               75855 to matrix element file.
 Write CORE HAMILTONIAN BETA               from file  10515 offset       75855 length               75855 to matrix element file.
 Write KINETIC ENERGY                      from file  10516 offset           0 length               75855 to matrix element file.
 Write ORTHOGONAL BASIS                    from file  10685 offset           0 length              151321 to matrix element file.
 Write DIPOLE INTEGRALS                    from file  10518 offset           0 length              227565 to matrix element file.
 Array DIP VEL INTEGRALS                    on  file  10572 does not exist.
 Array R X DEL INTEGRALS                    on  file  10572 does not exist.
 Write ALPHA ORBITAL ENERGIES              from file      0 offset           0 length                 389 to matrix element file.
 Write ALPHA MO COEFFICIENTS               from file  10524 offset           0 length              151321 to matrix element file.
 Write ALPHA DENSITY MATRIX                from file      0 offset           0 length               75855 to matrix element file.
 Write ALPHA FOCK MATRIX                   from file  10536 offset           0 length               75855 to matrix element file.
 Write ENERGY-WEIGHTED DENSITY             from file  10571 offset           0 length               75855 to matrix element file.
 Write ALPHA SCF DENSITY MATRIX            from file      0 offset           0 length               75855 to matrix element file.
 No 2e integrals to process.
 Perform NBO analysis...

 *********************************** NBO 7.0 ***********************************
             N A T U R A L   A T O M I C   O R B I T A L   A N D
          N A T U R A L   B O N D   O R B I T A L   A N A L Y S I S
 **************************** Robert Paton (I101709) ***************************
  (c) Copyright 1996-2019 Board of Regents of the University of Wisconsin System
      on behalf of the Theoretical Chemistry Institute.  All rights reserved.

          Cite this program [NBO 7.0.5 (4-Jun-2019)] as:

          NBO 7.0.  E. D. Glendening, J. K. Badenhoop, A. E. Reed,
          J. E. Carpenter, J. A. Bohmann, C. M. Morales, P. Karafiloglou,
          C. R. Landis, and F. Weinhold, Theoretical Chemistry Institute,
          University of Wisconsin, Madison, WI (2018)

 Filename set to /tmp/Gau-1602389

 Job title:  Ac4_rdkit_conf_3_SP_charge


 NATURAL POPULATIONS:  Natural atomic orbital occupancies

  NAO Atom No lang   Type(AO)    Occupancy      Energy
 -------------------------------------------------------
   1    C  1  s      Cor( 1s)     1.99999     -10.58692
   2    C  1  s      Val( 2s)     1.09909      -0.25812
   3    C  1  s      Ryd( 3s)     0.00185       1.30613
   4    C  1  s      Ryd( 4s)     0.00003       1.34723
   5    C  1  s      Ryd( 5s)     0.00000      22.08758
   6    C  1  px     Val( 2p)     1.16104      -0.12619
   7    C  1  px     Ryd( 3p)     0.00090       0.77209
   8    C  1  px     Ryd( 4p)     0.00027       1.37246
   9    C  1  py     Val( 2p)     1.02609      -0.10810
  10    C  1  py     Ryd( 3p)     0.00109       0.78763
  11    C  1  py     Ryd( 4p)     0.00021       1.34425
  12    C  1  pz     Val( 2p)     0.94650      -0.08905
  13    C  1  pz     Ryd( 3p)     0.00233       0.71830
  14    C  1  pz     Ryd( 4p)     0.00037       1.32190
  15    C  1  dxy    Ryd( 3d)     0.00155       2.03872
  16    C  1  dxy    Ryd( 4d)     0.00002       2.93946
  17    C  1  dxz    Ryd( 3d)     0.00150       1.94473
  18    C  1  dxz    Ryd( 4d)     0.00003       2.75113
  19    C  1  dyz    Ryd( 3d)     0.00126       2.37132
  20    C  1  dyz    Ryd( 4d)     0.00008       2.90756
  21    C  1  dx2y2  Ryd( 3d)     0.00109       1.67407
  22    C  1  dx2y2  Ryd( 4d)     0.00008       2.73570
  23    C  1  dz2    Ryd( 3d)     0.00096       1.80924
  24    C  1  dz2    Ryd( 4d)     0.00008       2.76204
  25    C  1  f(0)   Ryd( 4f)     0.00002       3.51885
  26    C  1  f(c1)  Ryd( 4f)     0.00004       3.40278
  27    C  1  f(s1)  Ryd( 4f)     0.00009       3.59015
  28    C  1  f(c2)  Ryd( 4f)     0.00003       3.44649
  29    C  1  f(s2)  Ryd( 4f)     0.00029       3.76955
  30    C  1  f(c3)  Ryd( 4f)     0.00005       3.36418
  31    C  1  f(s3)  Ryd( 4f)     0.00007       3.43973

  32    O  2  s      Cor( 1s)     1.99999     -19.64660
  33    O  2  s      Val( 2s)     1.58918      -0.78267
  34    O  2  s      Ryd( 3s)     0.00074       1.35795
  35    O  2  s      Ryd( 4s)     0.00004       7.52483
  36    O  2  s      Ryd( 5s)     0.00000      39.62575
  37    O  2  px     Val( 2p)     1.72692      -0.35716
  38    O  2  px     Ryd( 3p)     0.00463       0.76575
  39    O  2  px     Ryd( 4p)     0.00009       3.44587
  40    O  2  py     Val( 2p)     1.52501      -0.32108
  41    O  2  py     Ryd( 3p)     0.00352       0.81655
  42    O  2  py     Ryd( 4p)     0.00007       3.65606
  43    O  2  pz     Val( 2p)     1.63045      -0.35727
  44    O  2  pz     Ryd( 3p)     0.00266       0.73880
  45    O  2  pz     Ryd( 4p)     0.00018       3.26121
  46    O  2  dxy    Ryd( 3d)     0.00251       2.19450
  47    O  2  dxy    Ryd( 4d)     0.00002       6.65769
  48    O  2  dxz    Ryd( 3d)     0.00267       2.00004
  49    O  2  dxz    Ryd( 4d)     0.00003       6.57939
  50    O  2  dyz    Ryd( 3d)     0.00351       2.19102
  51    O  2  dyz    Ryd( 4d)     0.00003       6.64025
  52    O  2  dx2y2  Ryd( 3d)     0.00070       2.23656
  53    O  2  dx2y2  Ryd( 4d)     0.00006       6.65414
  54    O  2  dz2    Ryd( 3d)     0.00351       2.07363
  55    O  2  dz2    Ryd( 4d)     0.00004       6.65673
  56    O  2  f(0)   Ryd( 4f)     0.00001       5.67329
  57    O  2  f(c1)  Ryd( 4f)     0.00001       5.58166
  58    O  2  f(s1)  Ryd( 4f)     0.00005       5.75941
  59    O  2  f(c2)  Ryd( 4f)     0.00003       5.67111
  60    O  2  f(s2)  Ryd( 4f)     0.00010       5.77712
  61    O  2  f(c3)  Ryd( 4f)     0.00011       5.77585
  62    O  2  f(s3)  Ryd( 4f)     0.00012       5.88427

  63    C  3  s      Cor( 1s)     1.99999     -10.61454
  64    C  3  s      Val( 2s)     0.86530      -0.11850
  65    C  3  s      Ryd( 3s)     0.00201       1.26118
  66    C  3  s      Ryd( 4s)     0.00028       1.59949
  67    C  3  s      Ryd( 5s)     0.00000      21.26331
  68    C  3  px     Val( 2p)     0.94493      -0.02614
  69    C  3  px     Ryd( 3p)     0.00332       1.25236
  70    C  3  px     Ryd( 4p)     0.00051       1.77905
  71    C  3  py     Val( 2p)     0.89968      -0.01596
  72    C  3  py     Ryd( 3p)     0.00458       1.25664
  73    C  3  py     Ryd( 4p)     0.00033       1.77862
  74    C  3  pz     Val( 2p)     0.94200      -0.12213
  75    C  3  pz     Ryd( 3p)     0.00299       0.81164
  76    C  3  pz     Ryd( 4p)     0.00023       1.25196
  77    C  3  dxy    Ryd( 3d)     0.00040       3.66208
  78    C  3  dxy    Ryd( 4d)     0.00078       3.86611
  79    C  3  dxz    Ryd( 3d)     0.00061       2.49630
  80    C  3  dxz    Ryd( 4d)     0.00022       2.55432
  81    C  3  dyz    Ryd( 3d)     0.00073       2.56325
  82    C  3  dyz    Ryd( 4d)     0.00025       2.67175
  83    C  3  dx2y2  Ryd( 3d)     0.00148       3.25510
  84    C  3  dx2y2  Ryd( 4d)     0.00036       3.63900
  85    C  3  dz2    Ryd( 3d)     0.00057       2.85677
  86    C  3  dz2    Ryd( 4d)     0.00011       2.89015
  87    C  3  f(0)   Ryd( 4f)     0.00028       3.35380
  88    C  3  f(c1)  Ryd( 4f)     0.00030       3.42113
  89    C  3  f(s1)  Ryd( 4f)     0.00028       3.39997
  90    C  3  f(c2)  Ryd( 4f)     0.00005       3.36885
  91    C  3  f(s2)  Ryd( 4f)     0.00004       3.45538
  92    C  3  f(c3)  Ryd( 4f)     0.00029       3.90467
  93    C  3  f(s3)  Ryd( 4f)     0.00020       3.93824

  94    C  4  s      Cor( 1s)     1.99999     -10.55108
  95    C  4  s      Val( 2s)     0.98776      -0.15745
  96    C  4  s      Ryd( 3s)     0.00141       1.29362
  97    C  4  s      Ryd( 4s)     0.00008       1.53723
  98    C  4  s      Ryd( 5s)     0.00000      21.15500
  99    C  4  px     Val( 2p)     1.05811      -0.04347
 100    C  4  px     Ryd( 3p)     0.00320       0.98281
 101    C  4  px     Ryd( 4p)     0.00016       1.85634
 102    C  4  py     Val( 2p)     1.16733      -0.07257
 103    C  4  py     Ryd( 3p)     0.00383       1.22486
 104    C  4  py     Ryd( 4p)     0.00019       1.87047
 105    C  4  pz     Val( 2p)     1.03009      -0.12793
 106    C  4  pz     Ryd( 3p)     0.00152       0.72115
 107    C  4  pz     Ryd( 4p)     0.00022       1.31030
 108    C  4  dxy    Ryd( 3d)     0.00126       2.50839
 109    C  4  dxy    Ryd( 4d)     0.00016       3.79888
 110    C  4  dxz    Ryd( 3d)     0.00028       1.74887
 111    C  4  dxz    Ryd( 4d)     0.00009       3.03887
 112    C  4  dyz    Ryd( 3d)     0.00060       1.63217
 113    C  4  dyz    Ryd( 4d)     0.00006       2.92739
 114    C  4  dx2y2  Ryd( 3d)     0.00118       2.46214
 115    C  4  dx2y2  Ryd( 4d)     0.00036       3.79870
 116    C  4  dz2    Ryd( 3d)     0.00119       1.91079
 117    C  4  dz2    Ryd( 4d)     0.00002       3.38442
 118    C  4  f(0)   Ryd( 4f)     0.00043       3.20807
 119    C  4  f(c1)  Ryd( 4f)     0.00039       3.40134
 120    C  4  f(s1)  Ryd( 4f)     0.00045       3.25535
 121    C  4  f(c2)  Ryd( 4f)     0.00010       3.29668
 122    C  4  f(s2)  Ryd( 4f)     0.00008       3.28865
 123    C  4  f(c3)  Ryd( 4f)     0.00037       3.82377
 124    C  4  f(s3)  Ryd( 4f)     0.00031       3.77467

 125    C  5  s      Cor( 1s)     1.99999     -10.55886
 126    C  5  s      Val( 2s)     0.98183      -0.15878
 127    C  5  s      Ryd( 3s)     0.00090       1.40396
 128    C  5  s      Ryd( 4s)     0.00003       1.76790
 129    C  5  s      Ryd( 5s)     0.00000      20.81078
 130    C  5  px     Val( 2p)     1.16376      -0.06535
 131    C  5  px     Ryd( 3p)     0.00445       1.19468
 132    C  5  px     Ryd( 4p)     0.00008       1.97085
 133    C  5  py     Val( 2p)     1.04609      -0.03552
 134    C  5  py     Ryd( 3p)     0.00334       0.96754
 135    C  5  py     Ryd( 4p)     0.00009       1.94769
 136    C  5  pz     Val( 2p)     0.96639      -0.12235
 137    C  5  pz     Ryd( 3p)     0.00121       0.71891
 138    C  5  pz     Ryd( 4p)     0.00014       1.28514
 139    C  5  dxy    Ryd( 3d)     0.00132       2.51468
 140    C  5  dxy    Ryd( 4d)     0.00024       3.56022
 141    C  5  dxz    Ryd( 3d)     0.00045       1.73990
 142    C  5  dxz    Ryd( 4d)     0.00004       2.69774
 143    C  5  dyz    Ryd( 3d)     0.00032       1.92558
 144    C  5  dyz    Ryd( 4d)     0.00008       2.89621
 145    C  5  dx2y2  Ryd( 3d)     0.00068       2.53903
 146    C  5  dx2y2  Ryd( 4d)     0.00037       3.67748
 147    C  5  dz2    Ryd( 3d)     0.00093       2.06884
 148    C  5  dz2    Ryd( 4d)     0.00004       3.20938
 149    C  5  f(0)   Ryd( 4f)     0.00032       3.20607
 150    C  5  f(c1)  Ryd( 4f)     0.00048       3.31565
 151    C  5  f(s1)  Ryd( 4f)     0.00038       3.35820
 152    C  5  f(c2)  Ryd( 4f)     0.00008       3.27916
 153    C  5  f(s2)  Ryd( 4f)     0.00008       3.30157
 154    C  5  f(c3)  Ryd( 4f)     0.00033       3.81876
 155    C  5  f(s3)  Ryd( 4f)     0.00025       3.75758

 156    C  6  s      Cor( 1s)     1.99999     -10.54973
 157    C  6  s      Val( 2s)     0.97788      -0.15240
 158    C  6  s      Ryd( 3s)     0.00082       1.43692
 159    C  6  s      Ryd( 4s)     0.00001       2.37172
 160    C  6  s      Ryd( 5s)     0.00000      20.92475
 161    C  6  px     Val( 2p)     1.10401      -0.04644
 162    C  6  px     Ryd( 3p)     0.00378       1.05854
 163    C  6  px     Ryd( 4p)     0.00014       2.01408
 164    C  6  py     Val( 2p)     1.11173      -0.05269
 165    C  6  py     Ryd( 3p)     0.00362       1.08407
 166    C  6  py     Ryd( 4p)     0.00011       1.89164
 167    C  6  pz     Val( 2p)     1.02159      -0.12396
 168    C  6  pz     Ryd( 3p)     0.00155       0.70953
 169    C  6  pz     Ryd( 4p)     0.00019       1.29454
 170    C  6  dxy    Ryd( 3d)     0.00052       2.51678
 171    C  6  dxy    Ryd( 4d)     0.00040       3.73395
 172    C  6  dxz    Ryd( 3d)     0.00031       1.83158
 173    C  6  dxz    Ryd( 4d)     0.00008       2.78918
 174    C  6  dyz    Ryd( 3d)     0.00038       1.82023
 175    C  6  dyz    Ryd( 4d)     0.00006       2.80384
 176    C  6  dx2y2  Ryd( 3d)     0.00149       2.54072
 177    C  6  dx2y2  Ryd( 4d)     0.00019       3.53824
 178    C  6  dz2    Ryd( 3d)     0.00098       2.03846
 179    C  6  dz2    Ryd( 4d)     0.00002       3.23534
 180    C  6  f(0)   Ryd( 4f)     0.00039       3.21407
 181    C  6  f(c1)  Ryd( 4f)     0.00042       3.35450
 182    C  6  f(s1)  Ryd( 4f)     0.00042       3.30407
 183    C  6  f(c2)  Ryd( 4f)     0.00004       3.28537
 184    C  6  f(s2)  Ryd( 4f)     0.00010       3.29766
 185    C  6  f(c3)  Ryd( 4f)     0.00035       3.82424
 186    C  6  f(s3)  Ryd( 4f)     0.00026       3.75920

 187    C  7  s      Cor( 1s)     1.99999     -10.55590
 188    C  7  s      Val( 2s)     0.97831      -0.14988
 189    C  7  s      Ryd( 4s)     0.00110       1.79200
 190    C  7  s      Ryd( 3s)     0.00005       1.42689
 191    C  7  s      Ryd( 5s)     0.00000      18.80002
 192    C  7  px     Val( 2p)     1.05007      -0.02844
 193    C  7  px     Ryd( 3p)     0.00325       1.11694
 194    C  7  px     Ryd( 4p)     0.00011       1.99150
 195    C  7  py     Val( 2p)     1.14987      -0.06248
 196    C  7  py     Ryd( 3p)     0.00449       1.16644
 197    C  7  py     Ryd( 4p)     0.00009       2.08040
 198    C  7  pz     Val( 2p)     0.95230      -0.11877
 199    C  7  pz     Ryd( 3p)     0.00117       0.73541
 200    C  7  pz     Ryd( 4p)     0.00016       1.28903
 201    C  7  dxy    Ryd( 3d)     0.00127       2.45383
 202    C  7  dxy    Ryd( 4d)     0.00033       3.77219
 203    C  7  dxz    Ryd( 3d)     0.00027       1.78311
 204    C  7  dxz    Ryd( 4d)     0.00014       3.00212
 205    C  7  dyz    Ryd( 3d)     0.00049       1.66795
 206    C  7  dyz    Ryd( 4d)     0.00005       2.87954
 207    C  7  dx2y2  Ryd( 3d)     0.00077       2.54202
 208    C  7  dx2y2  Ryd( 4d)     0.00044       3.81224
 209    C  7  dz2    Ryd( 3d)     0.00105       2.01331
 210    C  7  dz2    Ryd( 4d)     0.00002       3.40284
 211    C  7  f(0)   Ryd( 4f)     0.00034       3.20623
 212    C  7  f(c1)  Ryd( 4f)     0.00043       3.39536
 213    C  7  f(s1)  Ryd( 4f)     0.00044       3.28201
 214    C  7  f(c2)  Ryd( 4f)     0.00008       3.29472
 215    C  7  f(s2)  Ryd( 4f)     0.00006       3.29745
 216    C  7  f(c3)  Ryd( 4f)     0.00040       3.89607
 217    C  7  f(s3)  Ryd( 4f)     0.00026       3.75847

 218    C  8  s      Cor( 1s)     1.99999     -10.56412
 219    C  8  s      Val( 2s)     0.95421      -0.14331
 220    C  8  s      Ryd( 3s)     0.00171       1.20630
 221    C  8  s      Ryd( 4s)     0.00016       1.79398
 222    C  8  s      Ryd( 5s)     0.00000      20.62562
 223    C  8  px     Val( 2p)     1.07127      -0.06385
 224    C  8  px     Ryd( 3p)     0.00534       1.12903
 225    C  8  px     Ryd( 4p)     0.00034       2.24594
 226    C  8  py     Val( 2p)     1.09488      -0.05569
 227    C  8  py     Ryd( 3p)     0.00403       1.17214
 228    C  8  py     Ryd( 4p)     0.00022       2.11861
 229    C  8  pz     Val( 2p)     1.08101      -0.13701
 230    C  8  pz     Ryd( 3p)     0.00172       0.69920
 231    C  8  pz     Ryd( 4p)     0.00013       1.45453
 232    C  8  dxy    Ryd( 3d)     0.00101       3.22457
 233    C  8  dxy    Ryd( 4d)     0.00018       4.26427
 234    C  8  dxz    Ryd( 3d)     0.00024       1.74224
 235    C  8  dxz    Ryd( 4d)     0.00014       3.13260
 236    C  8  dyz    Ryd( 3d)     0.00047       1.89454
 237    C  8  dyz    Ryd( 4d)     0.00016       3.24556
 238    C  8  dx2y2  Ryd( 3d)     0.00135       3.25362
 239    C  8  dx2y2  Ryd( 4d)     0.00041       4.14402
 240    C  8  dz2    Ryd( 3d)     0.00090       2.77866
 241    C  8  dz2    Ryd( 4d)     0.00004       3.61234
 242    C  8  f(0)   Ryd( 4f)     0.00055       3.24613
 243    C  8  f(c1)  Ryd( 4f)     0.00049       3.30960
 244    C  8  f(s1)  Ryd( 4f)     0.00050       3.34702
 245    C  8  f(c2)  Ryd( 4f)     0.00010       3.30010
 246    C  8  f(s2)  Ryd( 4f)     0.00012       3.30257
 247    C  8  f(c3)  Ryd( 4f)     0.00045       3.86170
 248    C  8  f(s3)  Ryd( 4f)     0.00030       3.85325

 249    C  9  s      Cor( 1s)     1.99999     -10.68167
 250    C  9  s      Val( 2s)     0.80402      -0.11603
 251    C  9  s      Ryd( 3s)     0.00550       1.60062
 252    C  9  s      Ryd( 4s)     0.00047       2.01698
 253    C  9  s      Ryd( 5s)     0.00001      20.67947
 254    C  9  px     Val( 2p)     0.88376      -0.03848
 255    C  9  px     Ryd( 4p)     0.00446       1.28260
 256    C  9  px     Ryd( 3p)     0.00027       1.17690
 257    C  9  py     Val( 2p)     0.74748       0.03276
 258    C  9  py     Ryd( 4p)     0.01548       1.34728
 259    C  9  py     Ryd( 3p)     0.00014       1.02064
 260    C  9  pz     Val( 2p)     0.74178      -0.12076
 261    C  9  pz     Ryd( 4p)     0.00104       1.00275
 262    C  9  pz     Ryd( 3p)     0.00018       0.80613
 263    C  9  dxy    Ryd( 4d)     0.00167       3.51834
 264    C  9  dxy    Ryd( 3d)     0.00040       3.07687
 265    C  9  dxz    Ryd( 4d)     0.00106       2.45481
 266    C  9  dxz    Ryd( 3d)     0.00011       2.25068
 267    C  9  dyz    Ryd( 4d)     0.00256       2.65356
 268    C  9  dyz    Ryd( 3d)     0.00017       2.26091
 269    C  9  dx2y2  Ryd( 4d)     0.00113       3.38505
 270    C  9  dx2y2  Ryd( 3d)     0.00042       3.06944
 271    C  9  dz2    Ryd( 4d)     0.00042       2.91465
 272    C  9  dz2    Ryd( 3d)     0.00016       2.57869
 273    C  9  f(0)   Ryd( 4f)     0.00017       3.36538
 274    C  9  f(c1)  Ryd( 4f)     0.00018       3.34549
 275    C  9  f(s1)  Ryd( 4f)     0.00012       3.43822
 276    C  9  f(c2)  Ryd( 4f)     0.00003       3.37996
 277    C  9  f(s2)  Ryd( 4f)     0.00003       3.44814
 278    C  9  f(c3)  Ryd( 4f)     0.00016       4.01027
 279    C  9  f(s3)  Ryd( 4f)     0.00019       3.96816

 280    O 10  s      Cor( 1s)     2.00000     -19.61796
 281    O 10  s      Val( 2s)     1.70097      -0.76536
 282    O 10  s      Ryd( 3s)     0.00020       1.20155
 283    O 10  s      Ryd( 4s)     0.00003       6.03382
 284    O 10  s      Ryd( 5s)     0.00000      40.90372
 285    O 10  px     Val( 2p)     1.81972      -0.34142
 286    O 10  px     Ryd( 3p)     0.00221       0.79328
 287    O 10  px     Ryd( 4p)     0.00003       3.29473
 288    O 10  py     Val( 2p)     1.57894      -0.32592
 289    O 10  py     Ryd( 3p)     0.00100       0.68705
 290    O 10  py     Ryd( 4p)     0.00014       3.85037
 291    O 10  pz     Val( 2p)     1.46820      -0.29552
 292    O 10  pz     Ryd( 3p)     0.00081       0.70081
 293    O 10  pz     Ryd( 4p)     0.00001       2.94125
 294    O 10  dxy    Ryd( 3d)     0.00551       2.07629
 295    O 10  dxy    Ryd( 4d)     0.00002       6.72447
 296    O 10  dxz    Ryd( 3d)     0.00075       1.68161
 297    O 10  dxz    Ryd( 4d)     0.00000       6.33448
 298    O 10  dyz    Ryd( 3d)     0.00556       1.90202
 299    O 10  dyz    Ryd( 4d)     0.00001       6.53434
 300    O 10  dx2y2  Ryd( 3d)     0.00666       2.13091
 301    O 10  dx2y2  Ryd( 4d)     0.00001       6.71990
 302    O 10  dz2    Ryd( 3d)     0.00253       1.84724
 303    O 10  dz2    Ryd( 4d)     0.00000       6.53067
 304    O 10  f(0)   Ryd( 4f)     0.00005       5.48683
 305    O 10  f(c1)  Ryd( 4f)     0.00001       5.29801
 306    O 10  f(s1)  Ryd( 4f)     0.00006       5.76712
 307    O 10  f(c2)  Ryd( 4f)     0.00010       5.64160
 308    O 10  f(s2)  Ryd( 4f)     0.00005       5.55687
 309    O 10  f(c3)  Ryd( 4f)     0.00016       6.02219
 310    O 10  f(s3)  Ryd( 4f)     0.00017       6.08347

 311    O 11  s      Cor( 1s)     2.00000     -19.67503
 312    O 11  s      Val( 2s)     1.67853      -0.85970
 313    O 11  s      Ryd( 3s)     0.00045       2.28969
 314    O 11  s      Ryd( 4s)     0.00012       5.00137
 315    O 11  s      Ryd( 5s)     0.00000      40.55872
 316    O 11  px     Val( 2p)     1.43964      -0.35287
 317    O 11  px     Ryd( 3p)     0.00146       0.78809
 318    O 11  px     Ryd( 4p)     0.00003       3.73734
 319    O 11  py     Val( 2p)     1.71144      -0.40129
 320    O 11  py     Ryd( 3p)     0.00129       0.78768
 321    O 11  py     Ryd( 4p)     0.00020       3.59983
 322    O 11  pz     Val( 2p)     1.82439      -0.41269
 323    O 11  pz     Ryd( 3p)     0.00163       0.60994
 324    O 11  pz     Ryd( 4p)     0.00002       2.84261
 325    O 11  dxy    Ryd( 3d)     0.00665       2.18808
 326    O 11  dxy    Ryd( 4d)     0.00001       6.61224
 327    O 11  dxz    Ryd( 3d)     0.00026       1.73207
 328    O 11  dxz    Ryd( 4d)     0.00001       6.40523
 329    O 11  dyz    Ryd( 3d)     0.00401       1.76561
 330    O 11  dyz    Ryd( 4d)     0.00001       6.40385
 331    O 11  dx2y2  Ryd( 3d)     0.00260       2.07542
 332    O 11  dx2y2  Ryd( 4d)     0.00003       6.65080
 333    O 11  dz2    Ryd( 3d)     0.00334       1.90382
 334    O 11  dz2    Ryd( 4d)     0.00000       6.49371
 335    O 11  f(0)   Ryd( 4f)     0.00012       5.45927
 336    O 11  f(c1)  Ryd( 4f)     0.00012       5.65718
 337    O 11  f(s1)  Ryd( 4f)     0.00008       5.47986
 338    O 11  f(c2)  Ryd( 4f)     0.00002       5.36123
 339    O 11  f(s2)  Ryd( 4f)     0.00002       5.58675
 340    O 11  f(c3)  Ryd( 4f)     0.00004       5.86333
 341    O 11  f(s3)  Ryd( 4f)     0.00008       6.24382

 342    H 12  s      Val( 1s)     0.83229       0.01378
 343    H 12  s      Ryd( 2s)     0.00097       0.58458
 344    H 12  s      Ryd( 3s)     0.00003       2.06862
 345    H 12  px     Ryd( 2p)     0.00050       2.55480
 346    H 12  py     Ryd( 2p)     0.00016       2.31613
 347    H 12  pz     Ryd( 2p)     0.00013       2.23922

 348    H 13  s      Val( 1s)     0.80431       0.03036
 349    H 13  s      Ryd( 2s)     0.00035       0.75068
 350    H 13  s      Ryd( 3s)     0.00003       1.76105
 351    H 13  px     Ryd( 2p)     0.00032       2.38890
 352    H 13  py     Ryd( 2p)     0.00037       2.50228
 353    H 13  pz     Ryd( 2p)     0.00015       2.22727

 354    H 14  s      Val( 1s)     0.81695       0.02681
 355    H 14  s      Ryd( 2s)     0.00107       0.60706
 356    H 14  s      Ryd( 3s)     0.00004       2.06829
 357    H 14  px     Ryd( 2p)     0.00020       2.27182
 358    H 14  py     Ryd( 2p)     0.00028       2.29589
 359    H 14  pz     Ryd( 2p)     0.00032       2.54869

 360    H 15  s      Val( 1s)     0.77394       0.05277
 361    H 15  s      Ryd( 2s)     0.00059       0.65112
 362    H 15  s      Ryd( 3s)     0.00010       1.96660
 363    H 15  px     Ryd( 2p)     0.00006       2.56251
 364    H 15  py     Ryd( 2p)     0.00055       2.84703
 365    H 15  pz     Ryd( 2p)     0.00010       2.17784

 366    H 16  s      Val( 1s)     0.78164       0.05408
 367    H 16  s      Ryd( 2s)     0.00035       0.57752
 368    H 16  s      Ryd( 3s)     0.00009       2.07078
 369    H 16  px     Ryd( 2p)     0.00059       2.86844
 370    H 16  py     Ryd( 2p)     0.00006       2.49133
 371    H 16  pz     Ryd( 2p)     0.00006       2.14564

 372    H 17  s      Val( 1s)     0.77909       0.05883
 373    H 17  s      Ryd( 2s)     0.00029       0.55951
 374    H 17  s      Ryd( 3s)     0.00009       2.09406
 375    H 17  px     Ryd( 2p)     0.00028       2.67275
 376    H 17  py     Ryd( 2p)     0.00034       2.69601
 377    H 17  pz     Ryd( 2p)     0.00009       2.16715

 378    H 18  s      Val( 1s)     0.75958       0.07332
 379    H 18  s      Ryd( 2s)     0.00046       0.98822
 380    H 18  s      Ryd( 3s)     0.00009       1.67196
 381    H 18  px     Ryd( 2p)     0.00015       2.55458
 382    H 18  py     Ryd( 2p)     0.00054       2.87108
 383    H 18  pz     Ryd( 2p)     0.00006       2.17174

 384    H 19  s      Val( 1s)     0.50019       0.12961
 385    H 19  s      Ryd( 2s)     0.00149       0.67597
 386    H 19  s      Ryd( 3s)     0.00036       1.90783
 387    H 19  px     Ryd( 2p)     0.00015       3.16516
 388    H 19  py     Ryd( 2p)     0.00030       2.32521
 389    H 19  pz     Ryd( 2p)     0.00061       1.97093


 Summary of Natural Population Analysis:

                                     Natural Population
             Natural    ---------------------------------------------
  Atom No    Charge        Core      Valence    Rydberg      Total
 --------------------------------------------------------------------
    C  1   -0.24700      1.99999     4.23272    0.01429     6.24700
    O  2   -0.49703      1.99999     6.47157    0.02546     8.49703
    C  3    0.32691      1.99999     3.65191    0.02119     5.67309
    C  4   -0.26125      1.99999     4.24328    0.01798     6.26125
    C  5   -0.17470      1.99999     4.15807    0.01664     6.17470
    C  6   -0.23183      1.99999     4.21521    0.01663     6.23183
    C  7   -0.14780      1.99999     4.13054    0.01727     6.14780
    C  8   -0.22243      1.99999     4.20137    0.02107     6.22243
    C  9    0.78645      1.99999     3.17704    0.03652     5.21355
    O 10   -0.59394      2.00000     6.56783    0.02612     8.59394
    O 11   -0.67660      2.00000     6.65400    0.02261     8.67660
    H 12    0.16592      0.00000     0.83229    0.00179     0.83408
    H 13    0.19448      0.00000     0.80431    0.00121     0.80552
    H 14    0.18114      0.00000     0.81695    0.00191     0.81886
    H 15    0.22465      0.00000     0.77394    0.00141     0.77535
    H 16    0.21721      0.00000     0.78164    0.00115     0.78279
    H 17    0.21983      0.00000     0.77909    0.00108     0.78017
    H 18    0.23911      0.00000     0.75958    0.00131     0.76089
    H 19    0.49689      0.00000     0.50019    0.00291     0.50311
 ====================================================================
 * Total *  0.00000     21.99992    57.75153    0.24854    80.00000

                                 Natural Population
 ---------------------------------------------------------
   Core                      21.99992 ( 99.9996% of   22)
   Valence                   57.75153 ( 99.5716% of   58)
   Natural Minimal Basis     79.75146 ( 99.6893% of   80)
   Natural Rydberg Basis      0.24854 (  0.3107% of   80)
 ---------------------------------------------------------

    Atom No         Natural Electron Configuration
 ----------------------------------------------------------------------------
      C  1      [core]2s( 1.10)2p( 3.13)3d( 0.01)
      O  2      [core]2s( 1.59)2p( 4.88)3p( 0.01)3d( 0.01)
      C  3      [core]2s( 0.87)2p( 2.79)3p( 0.01)
      C  4      [core]2s( 0.99)2p( 3.26)3p( 0.01)
      C  5      [core]2s( 0.98)2p( 3.18)3p( 0.01)
      C  6      [core]2s( 0.98)2p( 3.24)3p( 0.01)
      C  7      [core]2s( 0.98)2p( 3.15)3p( 0.01)
      C  8      [core]2s( 0.95)2p( 3.25)3p( 0.01)
      C  9      [core]2s( 0.80)2p( 2.37)3s( 0.01)4p( 0.02)4d( 0.01)
      O 10      [core]2s( 1.70)2p( 4.87)3d( 0.02)
      O 11      [core]2s( 1.68)2p( 4.98)3d( 0.02)
      H 12            1s( 0.83)
      H 13            1s( 0.80)
      H 14            1s( 0.82)
      H 15            1s( 0.77)
      H 16            1s( 0.78)
      H 17            1s( 0.78)
      H 18            1s( 0.76)
      H 19            1s( 0.50)


 NATURAL BOND ORBITAL ANALYSIS:

                            Occupancies       Lewis Structure    Low   High
         Max    Occ     -------------------  -----------------   occ   occ
  Cycle  Ctr   Thresh    Lewis   non-Lewis     CR  BD  nC  LP    (L)   (NL)
 ============================================================================
    1     2     1.90    75.07631   4.92369     11  20   0   9     5      7
    2     2     1.85    75.95438   4.04562     11  20   0   9     4      5
    3     2     1.83    76.33370   3.66630     11  20   0   9     3      4
    4     2     1.67    76.97838   3.02162     11  21   0   8     2      4
    5     2     1.66    77.62517   2.37483     11  22   0   7     1      4
    6     2     1.64    78.18979   1.81021     11  23   0   6     0      4
    7     2     1.63    78.18979   1.81021     11  23   0   6     0      4
    8     2     1.52    78.18979   1.81021     11  23   0   6     0      4
    9     2     1.64    78.18979   1.81021     11  23   0   6     0      4
 ----------------------------------------------------------------------------

 Structure accepted: No low occupancy Lewis orbitals

 -------------------------------------------------------
   Core                     21.99992 (100.000% of  22)
   Valence Lewis            56.18987 ( 96.879% of  58)
  ==================      =============================
   Total Lewis              78.18979 ( 97.737% of  80)
  -----------------------------------------------------
   Valence non-Lewis         1.68200 (  2.102% of  80)
   Rydberg non-Lewis         0.12822 (  0.160% of  80)
  ==================      =============================
   Total non-Lewis           1.81021 (  2.263% of  80)
 -------------------------------------------------------


     (Occupancy)   Bond orbital / Coefficients / Hybrids
 ------------------ Lewis ------------------------------------------------------
   1. (1.99999) CR ( 1) C  1            s(100.00%)
                                         1.0000  0.0000  0.0000  0.0000  0.0000
                                         0.0000  0.0000  0.0000  0.0000  0.0000
                                         0.0000  0.0000  0.0000  0.0000  0.0000
                                         0.0000  0.0000  0.0000  0.0000  0.0000
                                         0.0000  0.0000  0.0000  0.0000  0.0000
                                         0.0000  0.0000  0.0000  0.0000  0.0000
                                         0.0000
   2. (1.99999) CR ( 1) O  2            s(100.00%)
                                         1.0000  0.0000  0.0000  0.0000  0.0000
                                         0.0000  0.0000  0.0000  0.0000  0.0000
                                         0.0000  0.0000  0.0000  0.0000  0.0000
                                         0.0000  0.0000  0.0000  0.0000  0.0000
                                         0.0000  0.0000  0.0000  0.0000  0.0000
                                         0.0000  0.0000  0.0000  0.0000  0.0000
                                         0.0000
   3. (1.99999) CR ( 1) C  3            s(100.00%)
                                         1.0000  0.0000  0.0000  0.0000  0.0000
                                         0.0000  0.0000  0.0000  0.0000  0.0000
                                         0.0000  0.0000  0.0000  0.0000  0.0000
                                         0.0000  0.0000  0.0000  0.0000  0.0000
                                         0.0000  0.0000  0.0000  0.0000  0.0000
                                         0.0000  0.0000  0.0000  0.0000  0.0000
                                         0.0000
   4. (1.99999) CR ( 1) C  4            s(100.00%)
                                         1.0000  0.0000  0.0000  0.0000  0.0000
                                         0.0000  0.0000  0.0000  0.0000  0.0000
                                         0.0000  0.0000  0.0000  0.0000  0.0000
                                         0.0000  0.0000  0.0000  0.0000  0.0000
                                         0.0000  0.0000  0.0000  0.0000  0.0000
                                         0.0000  0.0000  0.0000  0.0000  0.0000
                                         0.0000
   5. (1.99999) CR ( 1) C  5            s(100.00%)
                                         1.0000  0.0000  0.0000  0.0000  0.0000
                                         0.0000  0.0000  0.0000  0.0000  0.0000
                                         0.0000  0.0000  0.0000  0.0000  0.0000
                                         0.0000  0.0000  0.0000  0.0000  0.0000
                                         0.0000  0.0000  0.0000  0.0000  0.0000
                                         0.0000  0.0000  0.0000  0.0000  0.0000
                                         0.0000
   6. (1.99999) CR ( 1) C  6            s(100.00%)
                                         1.0000  0.0000  0.0000  0.0000  0.0000
                                         0.0000  0.0000  0.0000  0.0000  0.0000
                                         0.0000  0.0000  0.0000  0.0000  0.0000
                                         0.0000  0.0000  0.0000  0.0000  0.0000
                                         0.0000  0.0000  0.0000  0.0000  0.0000
                                         0.0000  0.0000  0.0000  0.0000  0.0000
                                         0.0000
   7. (1.99999) CR ( 1) C  7            s(100.00%)
                                         1.0000  0.0000  0.0000  0.0000  0.0000
                                         0.0000  0.0000  0.0000  0.0000  0.0000
                                         0.0000  0.0000  0.0000  0.0000  0.0000
                                         0.0000  0.0000  0.0000  0.0000  0.0000
                                         0.0000  0.0000  0.0000  0.0000  0.0000
                                         0.0000  0.0000  0.0000  0.0000  0.0000
                                         0.0000
   8. (1.99999) CR ( 1) C  8            s(100.00%)
                                         1.0000  0.0000  0.0000  0.0000  0.0000
                                         0.0000  0.0000  0.0000  0.0000  0.0000
                                         0.0000  0.0000  0.0000  0.0000  0.0000
                                         0.0000  0.0000  0.0000  0.0000  0.0000
                                         0.0000  0.0000  0.0000  0.0000  0.0000
                                         0.0000  0.0000  0.0000  0.0000  0.0000
                                         0.0000
   9. (1.99999) CR ( 1) C  9            s(100.00%)
                                         1.0000  0.0000  0.0000  0.0000  0.0000
                                         0.0000  0.0000  0.0000  0.0000  0.0000
                                         0.0000  0.0000  0.0000  0.0000  0.0000
                                         0.0000  0.0000  0.0000  0.0000  0.0000
                                         0.0000  0.0000  0.0000  0.0000  0.0000
                                         0.0000  0.0000  0.0000  0.0000  0.0000
                                         0.0000
  10. (2.00000) CR ( 1) O 10            s(100.00%)
                                         1.0000  0.0000  0.0000  0.0000  0.0000
                                         0.0000  0.0000  0.0000  0.0000  0.0000
                                         0.0000  0.0000  0.0000  0.0000  0.0000
                                         0.0000  0.0000  0.0000  0.0000  0.0000
                                         0.0000  0.0000  0.0000  0.0000  0.0000
                                         0.0000  0.0000  0.0000  0.0000  0.0000
                                         0.0000
  11. (2.00000) CR ( 1) O 11            s(100.00%)
                                         1.0000  0.0000  0.0000  0.0000  0.0000
                                         0.0000  0.0000  0.0000  0.0000  0.0000
                                         0.0000  0.0000  0.0000  0.0000  0.0000
                                         0.0000  0.0000  0.0000  0.0000  0.0000
                                         0.0000  0.0000  0.0000  0.0000  0.0000
                                         0.0000  0.0000  0.0000  0.0000  0.0000
                                         0.0000
  12. (1.94004) LP ( 1) O  2            s( 36.54%)p 1.73( 63.34%)d 0.00(  0.12%)
                                                  f 0.00(  0.00%)
                                         0.0000  0.6045  0.0056 -0.0010  0.0001
                                         0.5794  0.0055 -0.0034 -0.1401 -0.0025
                                        -0.0007 -0.5273 -0.0065  0.0040  0.0022
                                        -0.0008  0.0279 -0.0010  0.0020 -0.0003
                                        -0.0110  0.0006 -0.0158  0.0009 -0.0002
                                         0.0019 -0.0007  0.0005 -0.0008  0.0004
                                         0.0038
  13. (1.92002) LP ( 2) O  2            s(  7.71%)p11.96( 92.16%)d 0.02(  0.13%)
                                                  f 0.00(  0.01%)
                                         0.0000  0.2776  0.0033 -0.0006  0.0000
                                        -0.5878 -0.0102  0.0010  0.5851  0.0093
                                        -0.0029 -0.4832 -0.0065  0.0027 -0.0035
                                        -0.0002 -0.0104  0.0004  0.0237 -0.0010
                                         0.0119 -0.0003 -0.0216  0.0009 -0.0013
                                        -0.0006  0.0003 -0.0005 -0.0038 -0.0024
                                        -0.0062
  14. (1.97899) LP ( 1) O 10            s( 59.89%)p 0.67( 40.02%)d 0.00(  0.10%)
                                                  f 0.00(  0.00%)
                                         0.0000  0.7739  0.0018  0.0009 -0.0003
                                         0.1829  0.0008 -0.0016 -0.5999  0.0067
                                         0.0045 -0.0823  0.0014  0.0007  0.0140
                                         0.0000  0.0018  0.0000 -0.0071 -0.0001
                                         0.0219  0.0001  0.0150  0.0003  0.0005
                                        -0.0004  0.0014  0.0006  0.0005 -0.0021
                                         0.0019
  15. (1.85502) LP ( 2) O 10            s(  0.01%)p 1.00( 99.73%)d 0.00(  0.25%)
                                                  f 0.00(  0.01%)
                                         0.0000  0.0083  0.0013 -0.0007  0.0001
                                         0.9502  0.0141 -0.0015  0.2846  0.0061
                                        -0.0002  0.1151  0.0008  0.0001  0.0412
                                        -0.0005  0.0054 -0.0002  0.0074 -0.0002
                                        -0.0267  0.0005  0.0011  0.0000 -0.0003
                                        -0.0014  0.0001 -0.0021  0.0009 -0.0067
                                        -0.0079
  16. (1.97743) LP ( 1) O 11            s( 45.69%)p 1.19( 54.20%)d 0.00(  0.11%)
                                                  f 0.00(  0.00%)
                                         0.0000  0.6759  0.0014 -0.0032  0.0002
                                        -0.0974 -0.0024  0.0006  0.7198  0.0047
                                        -0.0037  0.1199  0.0026 -0.0007  0.0062
                                        -0.0002  0.0011  0.0000 -0.0073  0.0000
                                         0.0296 -0.0009  0.0119  0.0002 -0.0011
                                         0.0003 -0.0023 -0.0009  0.0001 -0.0001
                                        -0.0002
  17. (1.83671) LP ( 2) O 11            s(  0.00%)p 1.00( 99.78%)d 0.00(  0.21%)
                                                  f 0.00(  0.01%)
                                         0.0000  0.0028  0.0015 -0.0008  0.0000
                                        -0.0661 -0.0012  0.0000 -0.1750 -0.0022
                                         0.0003  0.9811  0.0163 -0.0026  0.0032
                                        -0.0001 -0.0005  0.0001 -0.0433  0.0014
                                        -0.0079  0.0002 -0.0127  0.0003 -0.0077
                                         0.0021  0.0031  0.0028  0.0018  0.0003
                                        -0.0008
  18. (1.97694) BD ( 1) C  1- O  2
               ( 33.20%)   0.5762* C  1 s( 22.76%)p 3.39( 77.15%)d 0.00(  0.08%)
                                                  f 0.00(  0.00%)
                                         0.0000  0.4753 -0.0407  0.0024 -0.0003
                                        -0.2253  0.0003  0.0042 -0.5432  0.0168
                                         0.0044 -0.6506  0.0456 -0.0025  0.0125
                                         0.0005  0.0096 -0.0025  0.0186 -0.0093
                                        -0.0075 -0.0025  0.0016 -0.0081 -0.0012
                                         0.0011 -0.0036  0.0024 -0.0051  0.0008
                                         0.0014
               ( 66.80%)   0.8173* O  2 s( 25.50%)p 2.91( 74.21%)d 0.01(  0.28%)
                                                  f 0.00(  0.01%)
                                         0.0000  0.5048 -0.0117  0.0015 -0.0001
                                         0.2011 -0.0192 -0.0025  0.5106 -0.0254
                                         0.0003  0.6632  0.0008  0.0077  0.0073
[...]
   61. BD*( 2) C  9- O 10       0.22066     0.05053
   62. BD*( 1) C  9- O 11       0.09070     0.41099
   63. BD*( 1) O 11- H 19       0.00941     0.44640
   64. RY ( 1) C  1             0.00244     1.43177
   65. RY ( 2) C  1             0.00223     1.28941
   66. RY ( 3) C  1             0.00113     0.98256
   67. RY ( 4) C  1             0.00021     1.09554
   68. RY ( 5) C  1             0.00015     1.35515
   69. RY ( 6) C  1             0.00005     1.10812
   70. RY ( 7) C  1             0.00004     1.77543
   71. RY ( 8) C  1             0.00002     1.69788
   72. RY ( 9) C  1             0.00002     1.97728
   73. RY (10) C  1             0.00000     2.16784
   74. RY (11) C  1             0.00000     2.53203
   75. RY (12) C  1             0.00000     2.35737
   76. RY (13) C  1             0.00000     2.00725
   77. RY (14) C  1             0.00000     2.97133
   78. RY (15) C  1             0.00000    10.78125
   79. RY (16) C  1             0.00000     8.34322
   80. RY (17) C  1             0.00000     1.75212
   81. RY (18) C  1             0.00000     3.64682
   82. RY (19) C  1             0.00000     3.06514
   83. RY (20) C  1             0.00000     3.93928
   84. RY (21) C  1             0.00000     3.91877
   85. RY (22) C  1             0.00000     4.20524
   86. RY (23) C  1             0.00000     4.21033
   87. RY (24) C  1             0.00000     4.10124
   88. RY (25) C  1             0.00000     3.44492
   89. RY (26) C  1             0.00000     3.34267
   90. RY ( 1) O  2             0.00547     0.83403
   91. RY ( 2) O  2             0.00288     0.83850
   92. RY ( 3) O  2             0.00045     1.66966
   93. RY ( 4) O  2             0.00025     1.65932
   94. RY ( 5) O  2             0.00009     5.55978
   95. RY ( 6) O  2             0.00006     2.72481
   96. RY ( 7) O  2             0.00005     2.69886
   97. RY ( 8) O  2             0.00004     2.27649
   98. RY ( 9) O  2             0.00003     4.53670
   99. RY (10) O  2             0.00003     3.42525
  100. RY (11) O  2             0.00001     4.19399
  101. RY (12) O  2             0.00001     3.60565
  102. RY (13) O  2             0.00001     5.16581
  103. RY (14) O  2             0.00000     4.03753
  104. RY (15) O  2             0.00000     7.68941
  105. RY (16) O  2             0.00000     7.03590
  106. RY (17) O  2             0.00000     5.41608
  107. RY (18) O  2             0.00000    12.59657
  108. RY (19) O  2             0.00000     5.25042
  109. RY (20) O  2             0.00000     5.39661
  110. RY (21) O  2             0.00000     6.83172
  111. RY (22) O  2             0.00000    12.24836
  112. RY (23) O  2             0.00000     5.43566
  113. RY (24) O  2             0.00000     6.26718
  114. RY (25) O  2             0.00000    22.16313
  115. RY (26) O  2             0.00000     5.64835
  116. RY ( 1) C  3             0.00582     1.49039
  117. RY ( 2) C  3             0.00300     1.20265
  118. RY ( 3) C  3             0.00229     1.69970
  119. RY ( 4) C  3             0.00176     1.49221
  120. RY ( 5) C  3             0.00117     2.26280
  121. RY ( 6) C  3             0.00048     2.86974
  122. RY ( 7) C  3             0.00044     2.35508
  123. RY ( 8) C  3             0.00038     2.74337
  124. RY ( 9) C  3             0.00024     2.06890
  125. RY (10) C  3             0.00021     2.80301
  126. RY (11) C  3             0.00012     2.01229
  127. RY (12) C  3             0.00005     2.60356
  128. RY (13) C  3             0.00003     2.90719
  129. RY (14) C  3             0.00002     2.46765
  130. RY (15) C  3             0.00002     3.02729
  131. RY (16) C  3             0.00001     3.90820
  132. RY (17) C  3             0.00001     2.93628
  133. RY (18) C  3             0.00001     4.08631
  134. RY (19) C  3             0.00000     3.35543
  135. RY (20) C  3             0.00000     4.30209
  136. RY (21) C  3             0.00000     4.96452
  137. RY (22) C  3             0.00000     4.62874
  138. RY (23) C  3             0.00000     4.57245
  139. RY (24) C  3             0.00000     3.76839
  140. RY (25) C  3             0.00000     3.90256
  141. RY (26) C  3             0.00000    13.11616
  142. RY ( 1) C  4             0.00390     1.57101
  143. RY ( 2) C  4             0.00211     1.27266
  144. RY ( 3) C  4             0.00132     0.56479
  145. RY ( 4) C  4             0.00091     1.18105
  146. RY ( 5) C  4             0.00036     2.40360
  147. RY ( 6) C  4             0.00027     2.95778
  148. RY ( 7) C  4             0.00020     2.39814
  149. RY ( 8) C  4             0.00013     2.06386
  150. RY ( 9) C  4             0.00007     2.72080
  151. RY (10) C  4             0.00004     1.96372
  152. RY (11) C  4             0.00002     1.99512
  153. RY (12) C  4             0.00001     2.38127
  154. RY (13) C  4             0.00001     3.11234
  155. RY (14) C  4             0.00001     2.80564
  156. RY (15) C  4             0.00000     2.86535
  157. RY (16) C  4             0.00000     2.70409
  158. RY (17) C  4             0.00000     4.80810
  159. RY (18) C  4             0.00000     4.61794
  160. RY (19) C  4             0.00000     2.42523
  161. RY (20) C  4             0.00000     6.30563
  162. RY (21) C  4             0.00000     3.50330
  163. RY (22) C  4             0.00000     7.55731
  164. RY (23) C  4             0.00000     3.22401
  165. RY (24) C  4             0.00000     8.56833
  166. RY (25) C  4             0.00000     3.40585
  167. RY (26) C  4             0.00000     3.82456
  168. RY ( 1) C  5             0.00450     1.54184
  169. RY ( 2) C  5             0.00160     1.24945
  170. RY ( 3) C  5             0.00095     0.57326
  171. RY ( 4) C  5             0.00054     1.32478
  172. RY ( 5) C  5             0.00036     2.85237
  173. RY ( 6) C  5             0.00029     3.28815
  174. RY ( 7) C  5             0.00006     2.67464
  175. RY ( 8) C  5             0.00002     2.20092
  176. RY ( 9) C  5             0.00002     1.62926
  177. RY (10) C  5             0.00001     2.84963
  178. RY (11) C  5             0.00001     1.98248
  179. RY (12) C  5             0.00001     3.37935
  180. RY (13) C  5             0.00000     2.22493
  181. RY (14) C  5             0.00000     3.31128
  182. RY (15) C  5             0.00000     5.63982
  183. RY (16) C  5             0.00000     3.20403
  184. RY (17) C  5             0.00000     2.27374
  185. RY (18) C  5             0.00000     5.33975
  186. RY (19) C  5             0.00000     4.87486
  187. RY (20) C  5             0.00000     7.13099
  188. RY (21) C  5             0.00000     3.49396
  189. RY (22) C  5             0.00000     3.50647
  190. RY (23) C  5             0.00000     6.69429
  191. RY (24) C  5             0.00000     3.11999
  192. RY (25) C  5             0.00000     3.39890
  193. RY (26) C  5             0.00000     3.16282
  194. RY ( 1) C  6             0.00437     1.57131
  195. RY ( 2) C  6             0.00137     1.31922
  196. RY ( 3) C  6             0.00123     0.56918
  197. RY ( 4) C  6             0.00043     1.34226
  198. RY ( 5) C  6             0.00031     3.21521
  199. RY ( 6) C  6             0.00027     3.04285
  200. RY ( 7) C  6             0.00010     2.23833
  201. RY ( 8) C  6             0.00003     2.15344
  202. RY ( 9) C  6             0.00002     2.01125
  203. RY (10) C  6             0.00001     1.82362
  204. RY (11) C  6             0.00001     2.69464
  205. RY (12) C  6             0.00001     2.33269
  206. RY (13) C  6             0.00000     3.33506
  207. RY (14) C  6             0.00000     4.16825
  208. RY (15) C  6             0.00000     7.61011
  209. RY (16) C  6             0.00000     3.14374
  210. RY (17) C  6             0.00000     2.90158
  211. RY (18) C  6             0.00000     2.66827
  212. RY (19) C  6             0.00000     2.96481
  213. RY (20) C  6             0.00000    11.42836
  214. RY (21) C  6             0.00000     3.55269
  215. RY (22) C  6             0.00000     3.48691
  216. RY (23) C  6             0.00000     3.92923
  217. RY (24) C  6             0.00000     3.47556
  218. RY (25) C  6             0.00000     3.11649
  219. RY (26) C  6             0.00000     3.56714
  220. RY ( 1) C  7             0.00486     1.61151
  221. RY ( 2) C  7             0.00196     1.26884
  222. RY ( 3) C  7             0.00105     0.62570
  223. RY ( 4) C  7             0.00072     1.72091
  224. RY ( 5) C  7             0.00043     2.95735
  225. RY ( 6) C  7             0.00037     2.95043
  226. RY ( 7) C  7             0.00010     2.15157
  227. RY ( 8) C  7             0.00008     2.89722
  228. RY ( 9) C  7             0.00005     3.08860
  229. RY (10) C  7             0.00004     1.74664
  230. RY (11) C  7             0.00002     2.07399
  231. RY (12) C  7             0.00002     2.19884
  232. RY (13) C  7             0.00001     2.17740
  233. RY (14) C  7             0.00001     2.53735
  234. RY (15) C  7             0.00000     4.60019
  235. RY (16) C  7             0.00000     2.69287
  236. RY (17) C  7             0.00000     3.25263
  237. RY (18) C  7             0.00000     3.99646
  238. RY (19) C  7             0.00000    10.31865
  239. RY (20) C  7             0.00000     2.92737
  240. RY (21) C  7             0.00000     3.88822
  241. RY (22) C  7             0.00000     3.15147
  242. RY (23) C  7             0.00000     3.18812
  243. RY (24) C  7             0.00000     7.01450
  244. RY (25) C  7             0.00000     3.34691
  245. RY (26) C  7             0.00000     3.46498
  246. RY ( 1) C  8             0.00539     1.30948
  247. RY ( 2) C  8             0.00396     1.20873
  248. RY ( 3) C  8             0.00174     0.76470
  249. RY ( 4) C  8             0.00123     1.19777
  250. RY ( 5) C  8             0.00060     2.20978
  251. RY ( 6) C  8             0.00041     2.21883
  252. RY ( 7) C  8             0.00034     2.64174
  253. RY ( 8) C  8             0.00024     3.36717
  254. RY ( 9) C  8             0.00022     3.15521
  255. RY (10) C  8             0.00018     2.36440
  256. RY (11) C  8             0.00016     2.77779
  257. RY (12) C  8             0.00012     2.02312
  258. RY (13) C  8             0.00007     3.31297
  259. RY (14) C  8             0.00005     3.08870
  260. RY (15) C  8             0.00003     3.71568
  261. RY (16) C  8             0.00002     3.88252
  262. RY (17) C  8             0.00001     2.61476
  263. RY (18) C  8             0.00001     3.72124
  264. RY (19) C  8             0.00000     3.27485
  265. RY (20) C  8             0.00000     3.25452
  266. RY (21) C  8             0.00000    14.05925
  267. RY (22) C  8             0.00000     3.78328
  268. RY (23) C  8             0.00000     6.77797
  269. RY (24) C  8             0.00000     3.39571
  270. RY (25) C  8             0.00000     3.38772
  271. RY (26) C  8             0.00000     4.44997
  272. RY ( 1) C  9             0.01599     1.32350
  273. RY ( 2) C  9             0.00640     1.77199
  274. RY ( 3) C  9             0.00353     2.09142
  275. RY ( 4) C  9             0.00216     2.55810
  276. RY ( 5) C  9             0.00089     1.99961
  277. RY ( 6) C  9             0.00078     2.26224
  278. RY ( 7) C  9             0.00053     2.89266
  279. RY ( 8) C  9             0.00022     1.35263
  280. RY ( 9) C  9             0.00016     2.09946
  281. RY (10) C  9             0.00006     2.50418
  282. RY (11) C  9             0.00004     1.84254
  283. RY (12) C  9             0.00003     2.23638
  284. RY (13) C  9             0.00003     2.20532
  285. RY (14) C  9             0.00002     2.65613
  286. RY (15) C  9             0.00001     2.42960
  287. RY (16) C  9             0.00000     2.67444
  288. RY (17) C  9             0.00000     2.61058
  289. RY (18) C  9             0.00000     9.03285
  290. RY (19) C  9             0.00000     4.14558
  291. RY (20) C  9             0.00000     7.35271
  292. RY (21) C  9             0.00000     3.68223
  293. RY (22) C  9             0.00000     4.95470
  294. RY (23) C  9             0.00000     3.26241
  295. RY (24) C  9             0.00000     3.50352
  296. RY (25) C  9             0.00000     6.02707
  297. RY (26) C  9             0.00000     4.55176
  298. RY ( 1) O 10             0.00221     0.97339
  299. RY ( 2) O 10             0.00087     0.91526
  300. RY ( 3) O 10             0.00018     2.68226
  301. RY ( 4) O 10             0.00012     1.86266
  302. RY ( 5) O 10             0.00009     1.68056
  303. RY ( 6) O 10             0.00004     2.25749
  304. RY ( 7) O 10             0.00002     4.08815
  305. RY ( 8) O 10             0.00001     2.12916
  306. RY ( 9) O 10             0.00000     4.08400
  307. RY (10) O 10             0.00000     3.25118
  308. RY (11) O 10             0.00000     3.68577
  309. RY (12) O 10             0.00000     2.85572
  310. RY (13) O 10             0.00000    15.66979
  311. RY (14) O 10             0.00000     6.28104
  312. RY (15) O 10             0.00000     2.47332
  313. RY (16) O 10             0.00000     6.52587
  314. RY (17) O 10             0.00000    10.70895
  315. RY (18) O 10             0.00000     7.26691
  316. RY (19) O 10             0.00000     6.20624
  317. RY (20) O 10             0.00000     5.98263
  318. RY (21) O 10             0.00000     6.55955
  319. RY (22) O 10             0.00000     9.18705
  320. RY (23) O 10             0.00000     6.91849
  321. RY (24) O 10             0.00000     8.99437
  322. RY (25) O 10             0.00000     5.44424
  323. RY (26) O 10             0.00000    14.06200
  324. RY ( 1) O 11             0.00124     0.89064
  325. RY ( 2) O 11             0.00113     1.02527
  326. RY ( 3) O 11             0.00070     2.49464
  327. RY ( 4) O 11             0.00017     1.29250
  328. RY ( 5) O 11             0.00012     1.71502
  329. RY ( 6) O 11             0.00007     3.07888
  330. RY ( 7) O 11             0.00004     2.28891
  331. RY ( 8) O 11             0.00002     3.52392
  332. RY ( 9) O 11             0.00001     3.03429
  333. RY (10) O 11             0.00001     2.83756
  334. RY (11) O 11             0.00000     3.51085
  335. RY (12) O 11             0.00000     4.07230
  336. RY (13) O 11             0.00000     3.55332
  337. RY (14) O 11             0.00000     5.95610
  338. RY (15) O 11             0.00000    12.09118
  339. RY (16) O 11             0.00000    20.21837
  340. RY (17) O 11             0.00000     6.40416
  341. RY (18) O 11             0.00000     4.88453
  342. RY (19) O 11             0.00000     7.82891
  343. RY (20) O 11             0.00000     7.23935
  344. RY (21) O 11             0.00000     5.79547
  345. RY (22) O 11             0.00000     6.89119
  346. RY (23) O 11             0.00000     6.24008
  347. RY (24) O 11             0.00000     6.27874
  348. RY (25) O 11             0.00000     5.79815
  349. RY (26) O 11             0.00000    13.15800
  350. RY ( 1) H 12             0.00101     0.59689
  351. RY ( 2) H 12             0.00006     2.21451
  352. RY ( 3) H 12             0.00004     2.17434
  353. RY ( 4) H 12             0.00002     2.30575
  354. RY ( 5) H 12             0.00000     2.47014
  355. RY ( 1) H 13             0.00037     0.75321
  356. RY ( 2) H 13             0.00005     2.07783
  357. RY ( 3) H 13             0.00004     2.05940
  358. RY ( 4) H 13             0.00002     2.18384
  359. RY ( 5) H 13             0.00000     2.55554
  360. RY ( 1) H 14             0.00112     0.61704
  361. RY ( 2) H 14             0.00006     2.18530
  362. RY ( 3) H 14             0.00004     2.17955
  363. RY ( 4) H 14             0.00002     2.23429
  364. RY ( 5) H 14             0.00000     2.57384
  365. RY ( 1) H 15             0.00060     0.65445
  366. RY ( 2) H 15             0.00010     1.95178
  367. RY ( 3) H 15             0.00007     2.14916
  368. RY ( 4) H 15             0.00002     2.51650
  369. RY ( 5) H 15             0.00001     2.93127
  370. RY ( 1) H 16             0.00035     0.57482
  371. RY ( 2) H 16             0.00009     2.06015
  372. RY ( 3) H 16             0.00006     2.13202
  373. RY ( 4) H 16             0.00003     2.48406
  374. RY ( 5) H 16             0.00001     2.90115
  375. RY ( 1) H 17             0.00029     0.55483
  376. RY ( 2) H 17             0.00009     2.08014
  377. RY ( 3) H 17             0.00007     2.14201
  378. RY ( 4) H 17             0.00003     2.49253
  379. RY ( 5) H 17             0.00000     2.91848
  380. RY ( 1) H 18             0.00046     0.99407
  381. RY ( 2) H 18             0.00010     1.72174
  382. RY ( 3) H 18             0.00006     2.14572
  383. RY ( 4) H 18             0.00004     2.48169
  384. RY ( 5) H 18             0.00001     2.91252
  385. RY ( 1) H 19             0.00152     0.71311
  386. RY ( 2) H 19             0.00063     1.96559
  387. RY ( 3) H 19             0.00051     1.86679
  388. RY ( 4) H 19             0.00012     2.20753
  389. RY ( 5) H 19             0.00001     3.28542
          -------------------------------
                 Total Lewis   78.18979  ( 97.7372%)
           Valence non-Lewis    1.68200  (  2.1025%)
           Rydberg non-Lewis    0.12822  (  0.1603%)
          -------------------------------
               Total unit  1   80.00000  (100.0000%)
              Charge unit  1    0.00000

 $CHOOSE
   LONE 2 2 10 2 11 2 END
   BOND S 1 2 S 1 12 S 1 13 S 1 14 S 2 3 S 3 4 D 3 8 D 4 5 S 4 15 S 5 6 S 5 16
        D 6 7 S 6 17 S 7 8 S 7 18 S 8 9 D 9 10 S 9 11 S 11 19 END
 $END

 NBO analysis completed in 3.55 CPU seconds (3 wall seconds)
 Maximum scratch memory used by NBO was 1738613 words (13.26 MB)
 Maximum scratch memory used by G16NBO was 238058 words (1.82 MB)

 Opening RunExU unformatted file "/tmp/Gau-1602389.EUF"
 Read unf file /tmp/Gau-1602389.EUF:
 Label Gaussian matrix elements                                         IVers= 2 NLab= 2 Version=AS64L-G16RevC.01
 Title Ac4_rdkit_conf_3_SP_charge                                      
 NAtoms=    19 NBasis=   389 NBsUse=   389 ICharg=     0 Multip=     1 NE=    80 Len12L=8 Len4L=8 IOpCl= 0 ICGU=111
 GAUSSIAN SCALARS                    NI= 1 NR= 1 NTot=       1 LenBuf=    2 NRI=1 N=    1000
 NPA CHARGES                         NI= 0 NR= 1 NTot=      19 LenBuf= 2048 NRI=1 N=      19
 Recovered energy= -535.335910020     dipole=     -0.399443330307      0.789883625149      0.567686991251
 Unable to Open any file for archive entry.
 1\1\GINC-NODE16\SP\RM062X\def2TZVP\C8H8O3\SVSS\29-Jan-2024\0\\# pop=(n
 bo6, hirshfeld) m062x/def2tzvp\\Ac4_rdkit_conf_3_SP_charge\\0,1\C,0,0.
 81887,2.568572,0.486238\O,0,0.47873,1.710061,-0.591784\C,0,-0.391914,0
 .713364,-0.264149\C,0,-1.752579,1.001698,-0.227769\C,0,-2.675893,0.003
 11,0.027052\C,0,-2.251199,-1.304215,0.235095\C,0,-0.901466,-1.595949,0
 .189559\C,0,0.043937,-0.595951,-0.041361\C,0,1.469064,-1.02971,-0.0483
 7\O,0,1.814267,-2.170553,-0.201068\O,0,2.354933,-0.046194,0.176857\H,0
 ,-0.073093,3.054019,0.891683\H,0,1.492221,3.321149,0.083629\H,0,1.3243
 67,2.008731,1.275413\H,0,-2.065986,2.018507,-0.426795\H,0,-3.731391,0.
 242092,0.049298\H,0,-2.97015,-2.089642,0.42368\H,0,-0.542114,-2.606055
 ,0.334406\H,0,3.229789,-0.460822,0.158868\\Version=AS64L-G16RevC.01\St
 ate=1-A\HF=-535.33591\RMSD=7.567e-09\Dipole=-0.3994431,0.7898837,0.567
 687\Quadrupole=6.1220669,-1.973865,-4.1482019,3.0061918,1.0622519,0.25
 40177\PG=C01 [X(C8H8O3)]\\@
 The archive entry for this job was punched.


 YOU KNOW YOU'VE SPOKEN TOO LONG WHEN THE AUDIENCE STOPS LOOKING AT
 THEIR WATCHES AND STARTS SHAKING THEM.
 Job cpu time:       0 days  0 hours 14 minutes 27.6 seconds.
 Elapsed time:       0 days  0 hours  1 minutes 56.2 seconds.
 File lengths (MBytes):  RWF=     85 Int=      0 D2E=      0 Chk=      9 Scr=      1
 Normal termination of Gaussian 16 at Mon Jan 29 15:13:01 2024.
