Job Start Time: Mon Jan 29 15:30:37 MST 2024
SLURM Job ID: 229843
SLURM Job Name: Ac4_rdkit_conf_1_SP_charge_n
 Entering Gaussian System, Link 0=/opt/apps/Gaussian/G16C/g16/g16
 Initial command:
 /opt/apps/Gaussian/G16C/g16/l1.exe "/tmp/Gau-1833505.inp" -scrdir="/tmp/"
 Entering Link 1 = /opt/apps/Gaussian/G16C/g16/l1.exe PID=   1833507.
  
 Copyright (c) 1988-2019, Gaussian, Inc.  All Rights Reserved.
  
 This is part of the Gaussian(R) 16 program.  It is based on
 the Gaussian(R) 09 system (copyright 2009, Gaussian, Inc.),
 the Gaussian(R) 03 system (copyright 2003, Gaussian, Inc.),
 the Gaussian(R) 98 system (copyright 1998, Gaussian, Inc.),
 the Gaussian(R) 94 system (copyright 1995, Gaussian, Inc.),
 the Gaussian 92(TM) system (copyright 1992, Gaussian, Inc.),
 the Gaussian 90(TM) system (copyright 1990, Gaussian, Inc.),
 the Gaussian 88(TM) system (copyright 1988, Gaussian, Inc.),
 the Gaussian 86(TM) system (copyright 1986, Carnegie Mellon
 University), and the Gaussian 82(TM) system (copyright 1983,
 Carnegie Mellon University). Gaussian is a federally registered
 trademark of Gaussian, Inc.
  
 This software contains proprietary and confidential information,
 including trade secrets, belonging to Gaussian, Inc.
  
 This software is provided under written license and may be
 used, copied, transmitted, or stored only in accord with that
 written license.
  
 The following legend is applicable only to US Government
 contracts under FAR:
  
                    RESTRICTED RIGHTS LEGEND
  
 Use, reproduction and disclosure by the US Government is
 subject to restrictions as set forth in subparagraphs (a)
 and (c) of the Commercial Computer Software - Restricted
 Rights clause in FAR 52.227-19.
  
 Gaussian, Inc.
 340 Quinnipiac St., Bldg. 40, Wallingford CT 06492
  
  
 ---------------------------------------------------------------
 Warning -- This program may not be used in any manner that
 competes with the business of Gaussian, Inc. or will provide
 assistance to any competitor of Gaussian, Inc.  The licensee
 of this program is prohibited from giving any competitor of
 Gaussian, Inc. access to this program.  By using this program,
 the user acknowledges that Gaussian, Inc. is engaged in the
 business of creating and licensing software in the field of
 computational chemistry and represents and warrants to the
 licensee that it is not a competitor of Gaussian, Inc. and that
 it will not use this program in any manner prohibited above.
 ---------------------------------------------------------------
  

 Cite this work as:
 Gaussian 16, Revision C.01,
 M. J. Frisch, G. W. Trucks, H. B. Schlegel, G. E. Scuseria, 
 M. A. Robb, J. R. Cheeseman, G. Scalmani, V. Barone, 
 G. A. Petersson, H. Nakatsuji, X. Li, M. Caricato, A. V. Marenich, 
 J. Bloino, B. G. Janesko, R. Gomperts, B. Mennucci, H. P. Hratchian, 
 J. V. Ortiz, A. F. Izmaylov, J. L. Sonnenberg, D. Williams-Young, 
 F. Ding, F. Lipparini, F. Egidi, J. Goings, B. Peng, A. Petrone, 
 T. Henderson, D. Ranasinghe, V. G. Zakrzewski, J. Gao, N. Rega, 
 G. Zheng, W. Liang, M. Hada, M. Ehara, K. Toyota, R. Fukuda, 
 J. Hasegawa, M. Ishida, T. Nakajima, Y. Honda, O. Kitao, H. Nakai, 
 T. Vreven, K. Throssell, J. A. Montgomery, Jr., J. E. Peralta, 
 F. Ogliaro, M. J. Bearpark, J. J. Heyd, E. N. Brothers, K. N. Kudin, 
 V. N. Staroverov, T. A. Keith, R. Kobayashi, J. Normand, 
 K. Raghavachari, A. P. Rendell, J. C. Burant, S. S. Iyengar, 
 J. Tomasi, M. Cossi, J. M. Millam, M. Klene, C. Adamo, R. Cammi, 
 J. W. Ochterski, R. L. Martin, K. Morokuma, O. Farkas, 
 J. B. Foresman, and D. J. Fox, Gaussian, Inc., Wallingford CT, 2019.
 
 ******************************************
 Gaussian 16:  AS64L-G16RevC.01  3-Jul-2019
                29-Jan-2024 
 ******************************************
 %nprocshared=8
 Will use up to    8 processors via shared memory.
 %mem=16GB
 --------------------------------------
 # pop=(nbo6, hirshfeld) m062x/def2tzvp
 --------------------------------------
 1/38=1,172=1/1;
 2/12=2,17=6,18=5,40=1/2;
 3/5=44,7=101,11=2,25=1,30=1,74=-55/1,2,3;
 4//1;
 5/5=2,38=5/2;
 6/7=2,8=2,9=2,10=2,28=1,40=1,79=1,113=1,114=1,124=3103,126=1/1,12;
 99/5=1,9=1/99;
 ----------------------------
 Ac4_rdkit_conf_1_SP_charge_n
 ----------------------------
 Symbolic Z-matrix:
 Charge = -1 Multiplicity = 2
 C                    -2.0465   -2.26067  -0.05619 
 O                    -0.78472  -1.63121  -0.03365 
 C                    -0.73337  -0.29098  -0.00378 
 C                    -1.87575   0.51093   0.00266 
 C                    -1.76295   1.89222   0.02171 
 C                    -0.51967   2.50367   0.02967 
 C                     0.61595   1.71255   0.01968 
 C                     0.53564   0.32216   0.00832 
 C                     1.78434  -0.48375   0.02403 
 O                     1.87782  -1.66792   0.18366 
 O                     2.88426   0.28664  -0.15822 
 H                    -2.62646  -2.01748   0.83768 
 H                    -2.61432  -1.9792   -0.9468 
 H                    -1.84393  -3.32751  -0.07715 
 H                    -2.85666   0.0609   -0.00764 
 H                    -2.66396   2.4925    0.02866 
 H                    -0.43425   3.58111   0.04324 
 H                     1.59522   2.16871   0.02499 
 H                     3.63924  -0.31589  -0.1139 
 
                          Input orientation:                          
 ---------------------------------------------------------------------
 Center     Atomic      Atomic             Coordinates (Angstroms)
 Number     Number       Type             X           Y           Z
 ---------------------------------------------------------------------
      1          6           0       -2.046496   -2.260665   -0.056193
      2          8           0       -0.784718   -1.631211   -0.033646
      3          6           0       -0.733371   -0.290984   -0.003777
      4          6           0       -1.875750    0.510929    0.002664
      5          6           0       -1.762951    1.892223    0.021712
      6          6           0       -0.519669    2.503674    0.029674
      7          6           0        0.615952    1.712550    0.019679
      8          6           0        0.535641    0.322156    0.008315
      9          6           0        1.784342   -0.483754    0.024025
     10          8           0        1.877819   -1.667923    0.183657
     11          8           0        2.884264    0.286644   -0.158218
     12          1           0       -2.626459   -2.017476    0.837681
     13          1           0       -2.614323   -1.979204   -0.946801
     14          1           0       -1.843925   -3.327508   -0.077149
     15          1           0       -2.856661    0.060901   -0.007641
     16          1           0       -2.663958    2.492495    0.028658
     17          1           0       -0.434248    3.581107    0.043235
     18          1           0        1.595222    2.168712    0.024987
     19          1           0        3.639243   -0.315885   -0.113899
 ---------------------------------------------------------------------
                    Distance matrix (angstroms):
                    1          2          3          4          5
     1  C    0.000000
     2  O    1.410250   0.000000
     3  C    2.367845   1.341543   0.000000
     4  C    2.777472   2.404253   1.395756   0.000000
     5  C    4.163285   3.657129   2.413934   1.386023   0.000000
     6  C    5.003749   4.143855   2.803016   2.410543   1.385527
     7  C    4.783390   3.625667   2.415651   2.766362   2.385679
     8  C    3.652747   2.358125   1.409425   2.418775   2.783669
     9  C    4.223644   2.814259   2.525235   3.792904   4.269492
    10  O    3.976068   2.671642   2.957939   4.343896   5.094710
    11  O    5.550819   4.141873   3.666714   4.768010   4.920047
    12  H    1.092936   2.073746   2.696777   2.766523   4.086220
    13  H    1.093083   2.074224   2.697659   2.765454   4.080539
    14  H    1.086107   2.000309   3.234067   3.839399   5.221295
    15  H    2.459348   2.675232   2.152254   1.079267   2.133261
    16  H    4.793849   4.532149   3.387621   2.132733   1.082676
    17  H    6.060984   5.224653   3.883912   3.391986   2.149010
    18  H    5.734813   4.484079   3.387223   3.846608   3.369537
    19  H    6.009420   4.616054   4.374071   5.577845   5.837622
                    6          7          8          9         10
     6  C    0.000000
     7  C    1.384056   0.000000
     8  C    2.423460   1.392758   0.000000
     9  C    3.772695   2.487751   1.486268   0.000000
    10  O    4.813926   3.612035   2.406782   1.198531   0.000000
    11  O    4.066606   2.685162   2.354788   1.355195   2.224892
    12  H    5.052943   5.009536   4.020025   4.740201   4.564916
    13  H    5.043538   4.999781   4.016314   4.746275   4.642647
    14  H    5.980614   5.609149   4.357716   4.611019   4.083334
    15  H    3.380838   3.845482   3.402385   4.672961   5.043880
    16  H    2.144318   3.371380   3.866293   5.352145   6.161237
    17  H    1.080899   2.143590   3.400392   4.630940   5.737394
    18  H    2.141258   1.080316   2.129028   2.659200   3.850299
    19  H    5.026637   3.643169   3.170864   1.867582   2.240348
                   11         12         13         14         15
    11  O    0.000000
    12  H    6.055481   0.000000
    13  H    5.999199   1.784934   0.000000
    14  H    5.951843   1.779173   1.779812   0.000000
    15  H    5.747334   2.255485   2.258933   3.537200   0.000000
    16  H    5.973564   4.582113   4.577125   5.878442   2.439488
    17  H    4.680448   6.064739   6.053921   7.051996   4.273467
    18  H    2.288531   6.000603   5.989144   6.484335   4.925768
    19  H    0.966953   6.562007   6.524373   6.255906   6.507690
                   16         17         18         19
    16  H    0.000000
    17  H    2.481309   0.000000
    18  H    4.271471   2.472638   0.000000
    19  H    6.902004   5.639554   3.220331   0.000000
 Stoichiometry    C8H8O3(1-,2)
 Framework group  C1[X(C8H8O3)]
 Deg. of freedom    51
 Full point group                 C1      NOp   1
 Largest Abelian subgroup         C1      NOp   1
 Largest concise Abelian subgroup C1      NOp   1
                         Standard orientation:                         
 ---------------------------------------------------------------------
 Center     Atomic      Atomic             Coordinates (Angstroms)
 Number     Number       Type             X           Y           Z
 ---------------------------------------------------------------------
      1          6           0        2.046496   -2.260665    0.056193
      2          8           0        0.784718   -1.631211    0.033646
      3          6           0        0.733371   -0.290984    0.003777
      4          6           0        1.875750    0.510929   -0.002664
      5          6           0        1.762951    1.892223   -0.021712
      6          6           0        0.519669    2.503674   -0.029674
      7          6           0       -0.615952    1.712550   -0.019679
      8          6           0       -0.535641    0.322156   -0.008315
      9          6           0       -1.784342   -0.483754   -0.024025
     10          8           0       -1.877819   -1.667923   -0.183657
     11          8           0       -2.884264    0.286644    0.158218
     12          1           0        2.626459   -2.017476   -0.837681
     13          1           0        2.614323   -1.979204    0.946801
     14          1           0        1.843925   -3.327508    0.077149
     15          1           0        2.856661    0.060901    0.007641
     16          1           0        2.663958    2.492495   -0.028658
     17          1           0        0.434247    3.581107   -0.043235
     18          1           0       -1.595222    2.168712   -0.024987
     19          1           0       -3.639243   -0.315885    0.113899
 ---------------------------------------------------------------------
 Rotational constants (GHZ):           1.4203255           1.1555472           0.6414600
 Standard basis: def2TZVP (5D, 7F)
 There are   444 symmetry adapted cartesian basis functions of A   symmetry.
 There are   389 symmetry adapted basis functions of A   symmetry.
   389 basis functions,   625 primitive gaussians,   444 cartesian basis functions
    41 alpha electrons       40 beta electrons
       nuclear repulsion energy       596.8247346160 Hartrees.
 NAtoms=   19 NActive=   19 NUniq=   19 SFac= 1.00D+00 NAtFMM=   60 NAOKFM=F Big=F
 Integral buffers will be    131072 words long.
 Raffenetti 2 integral format.
 Two-electron integral symmetry is turned on.
 One-electron integrals computed using PRISM.
   1 Symmetry operations used in ECPInt.
 ECPInt:  NShTT=   11781 NPrTT=   36312 LenC2=   11250 LenP2D=   26645.
 LDataN:  DoStor=T MaxTD1= 6 Len=  172
 NBasis=   389 RedAO= T EigKep=  7.69D-06  NBF=   389
 NBsUse=   389 1.00D-06 EigRej= -1.00D+00 NBFU=   389
 ExpMin= 9.52D-02 ExpMax= 2.70D+04 ExpMxC= 9.22D+02 IAcc=3 IRadAn=         5 AccDes= 0.00D+00
 Harris functional with IExCor= 1009 and IRadAn=       5 diagonalized for initial guess.
 HarFok:  IExCor= 1009 AccDes= 0.00D+00 IRadAn=         5 IDoV= 1 UseB2=F ITyADJ=14
 ICtDFT=  3500011 ScaDFX=  1.000000  1.000000  1.000000  1.000000
 FoFCou: FMM=F IPFlag=           0 FMFlag=      100000 FMFlg1=           0
         NFxFlg=           0 DoJE=T BraDBF=F KetDBF=T FulRan=T
         wScrn=  0.000000 ICntrl=       500 IOpCl=  0 I1Cent=   200000004 NGrid=           0
         NMat0=    1 NMatS0=      1 NMatT0=    0 NMatD0=    1 NMtDS0=    0 NMtDT0=    0
 Petite list used in FoFCou.
 Initial guess <Sx>= 0.0000 <Sy>= 0.0000 <Sz>= 0.5000 <S**2>= 0.7500 S= 0.5000
 Requested convergence on RMS density matrix=1.00D-08 within 128 cycles.
 Requested convergence on MAX density matrix=1.00D-06.
 Requested convergence on             energy=1.00D-06.
 No special actions if energy rises.
 Integral accuracy reduced to 1.0D-05 until final iterations.
 Initial convergence to 1.0D-05 achieved.  Increase integral accuracy.
 SCF Done:  E(UM062X) =  -535.323802928     A.U. after   26 cycles
            NFock= 26  Conv=0.86D-08     -V/T= 2.0038
 <Sx>= 0.0000 <Sy>= 0.0000 <Sz>= 0.5000 <S**2>= 0.7626 S= 0.5063
 <L.S>=  0.00000000000    
 Annihilation of the first spin contaminant:
 S**2 before annihilation     0.7626,   after     0.7501

 **********************************************************************

            Population analysis using the SCF Density.

 **********************************************************************

 Orbital symmetries:
 Alpha Orbitals:
       Occupied  (A) (A) (A) (A) (A) (A) (A) (A) (A) (A) (A) (A)
                 (A) (A) (A) (A) (A) (A) (A) (A) (A) (A) (A) (A)
                 (A) (A) (A) (A) (A) (A) (A) (A) (A) (A) (A) (A)
                 (A) (A) (A) (A) (A)
       Virtual   (A) (A) (A) (A) (A) (A) (A) (A) (A) (A) (A) (A)
                 (A) (A) (A) (A) (A) (A) (A) (A) (A) (A) (A) (A)
                 (A) (A) (A) (A) (A) (A) (A) (A) (A) (A) (A) (A)
                 (A) (A) (A) (A) (A) (A) (A) (A) (A) (A) (A) (A)
                 (A) (A) (A) (A) (A) (A) (A) (A) (A) (A) (A) (A)
                 (A) (A) (A) (A) (A) (A) (A) (A) (A) (A) (A) (A)
                 (A) (A) (A) (A) (A) (A) (A) (A) (A) (A) (A) (A)
                 (A) (A) (A) (A) (A) (A) (A) (A) (A) (A) (A) (A)
                 (A) (A) (A) (A) (A) (A) (A) (A) (A) (A) (A) (A)
                 (A) (A) (A) (A) (A) (A) (A) (A) (A) (A) (A) (A)
                 (A) (A) (A) (A) (A) (A) (A) (A) (A) (A) (A) (A)
                 (A) (A) (A) (A) (A) (A) (A) (A) (A) (A) (A) (A)
                 (A) (A) (A) (A) (A) (A) (A) (A) (A) (A) (A) (A)
                 (A) (A) (A) (A) (A) (A) (A) (A) (A) (A) (A) (A)
                 (A) (A) (A) (A) (A) (A) (A) (A) (A) (A) (A) (A)
                 (A) (A) (A) (A) (A) (A) (A) (A) (A) (A) (A) (A)
                 (A) (A) (A) (A) (A) (A) (A) (A) (A) (A) (A) (A)
                 (A) (A) (A) (A) (A) (A) (A) (A) (A) (A) (A) (A)
                 (A) (A) (A) (A) (A) (A) (A) (A) (A) (A) (A) (A)
                 (A) (A) (A) (A) (A) (A) (A) (A) (A) (A) (A) (A)
                 (A) (A) (A) (A) (A) (A) (A) (A) (A) (A) (A) (A)
                 (A) (A) (A) (A) (A) (A) (A) (A) (A) (A) (A) (A)
                 (A) (A) (A) (A) (A) (A) (A) (A) (A) (A) (A) (A)
                 (A) (A) (A) (A) (A) (A) (A) (A) (A) (A) (A) (A)
                 (A) (A) (A) (A) (A) (A) (A) (A) (A) (A) (A) (A)
                 (A) (A) (A) (A) (A) (A) (A) (A) (A) (A) (A) (A)
                 (A) (A) (A) (A) (A) (A) (A) (A) (A) (A) (A) (A)
                 (A) (A) (A) (A) (A) (A) (A) (A) (A) (A) (A) (A)
                 (A) (A) (A) (A) (A) (A) (A) (A) (A) (A) (A) (A)
 Beta  Orbitals:
       Occupied  (A) (A) (A) (A) (A) (A) (A) (A) (A) (A) (A) (A)
                 (A) (A) (A) (A) (A) (A) (A) (A) (A) (A) (A) (A)
                 (A) (A) (A) (A) (A) (A) (A) (A) (A) (A) (A) (A)
                 (A) (A) (A) (A)
       Virtual   (A) (A) (A) (A) (A) (A) (A) (A) (A) (A) (A) (A)
                 (A) (A) (A) (A) (A) (A) (A) (A) (A) (A) (A) (A)
                 (A) (A) (A) (A) (A) (A) (A) (A) (A) (A) (A) (A)
                 (A) (A) (A) (A) (A) (A) (A) (A) (A) (A) (A) (A)
                 (A) (A) (A) (A) (A) (A) (A) (A) (A) (A) (A) (A)
                 (A) (A) (A) (A) (A) (A) (A) (A) (A) (A) (A) (A)
                 (A) (A) (A) (A) (A) (A) (A) (A) (A) (A) (A) (A)
                 (A) (A) (A) (A) (A) (A) (A) (A) (A) (A) (A) (A)
                 (A) (A) (A) (A) (A) (A) (A) (A) (A) (A) (A) (A)
                 (A) (A) (A) (A) (A) (A) (A) (A) (A) (A) (A) (A)
                 (A) (A) (A) (A) (A) (A) (A) (A) (A) (A) (A) (A)
                 (A) (A) (A) (A) (A) (A) (A) (A) (A) (A) (A) (A)
                 (A) (A) (A) (A) (A) (A) (A) (A) (A) (A) (A) (A)
                 (A) (A) (A) (A) (A) (A) (A) (A) (A) (A) (A) (A)
                 (A) (A) (A) (A) (A) (A) (A) (A) (A) (A) (A) (A)
                 (A) (A) (A) (A) (A) (A) (A) (A) (A) (A) (A) (A)
                 (A) (A) (A) (A) (A) (A) (A) (A) (A) (A) (A) (A)
                 (A) (A) (A) (A) (A) (A) (A) (A) (A) (A) (A) (A)
                 (A) (A) (A) (A) (A) (A) (A) (A) (A) (A) (A) (A)
                 (A) (A) (A) (A) (A) (A) (A) (A) (A) (A) (A) (A)
                 (A) (A) (A) (A) (A) (A) (A) (A) (A) (A) (A) (A)
                 (A) (A) (A) (A) (A) (A) (A) (A) (A) (A) (A) (A)
                 (A) (A) (A) (A) (A) (A) (A) (A) (A) (A) (A) (A)
                 (A) (A) (A) (A) (A) (A) (A) (A) (A) (A) (A) (A)
                 (A) (A) (A) (A) (A) (A) (A) (A) (A) (A) (A) (A)
                 (A) (A) (A) (A) (A) (A) (A) (A) (A) (A) (A) (A)
                 (A) (A) (A) (A) (A) (A) (A) (A) (A) (A) (A) (A)
                 (A) (A) (A) (A) (A) (A) (A) (A) (A) (A) (A) (A)
                 (A) (A) (A) (A) (A) (A) (A) (A) (A) (A) (A) (A)
                 (A)
 The electronic state is 2-A.
 Alpha  occ. eigenvalues --  -19.49760 -19.48735 -19.40803 -10.46352 -10.45595
 Alpha  occ. eigenvalues --  -10.42760 -10.36010 -10.35909 -10.34958 -10.34877
 Alpha  occ. eigenvalues --  -10.34596  -1.05143  -1.04055  -0.94881  -0.78225
 Alpha  occ. eigenvalues --   -0.69805  -0.67604  -0.63730  -0.56277  -0.51796
 Alpha  occ. eigenvalues --   -0.49755  -0.44793  -0.41072  -0.40715  -0.39655
 Alpha  occ. eigenvalues --   -0.39225  -0.35810  -0.35636  -0.34109  -0.31896
 Alpha  occ. eigenvalues --   -0.29198  -0.29007  -0.27423  -0.25187  -0.23577
 Alpha  occ. eigenvalues --   -0.23049  -0.22618  -0.15920  -0.14571  -0.11849
 Alpha  occ. eigenvalues --    0.04663
 Alpha virt. eigenvalues --    0.19590   0.20781   0.21233   0.22973   0.24411
 Alpha virt. eigenvalues --    0.25200   0.25297   0.26317   0.27963   0.29062
 Alpha virt. eigenvalues --    0.29303   0.31636   0.34929   0.36056   0.37284
 Alpha virt. eigenvalues --    0.37720   0.39221   0.39973   0.40657   0.40891
 Alpha virt. eigenvalues --    0.42033   0.42981   0.43428   0.45510   0.45871
 Alpha virt. eigenvalues --    0.48507   0.49013   0.49201   0.50246   0.51463
 Alpha virt. eigenvalues --    0.52719   0.53177   0.54760   0.55221   0.55984
 Alpha virt. eigenvalues --    0.56212   0.57406   0.57718   0.59209   0.60612
 Alpha virt. eigenvalues --    0.61097   0.61743   0.63537   0.64296   0.64365
 Alpha virt. eigenvalues --    0.64654   0.65401   0.67355   0.68097   0.68834
 Alpha virt. eigenvalues --    0.70116   0.70739   0.71799   0.72543   0.73838
 Alpha virt. eigenvalues --    0.74686   0.77494   0.77688   0.80504   0.80767
 Alpha virt. eigenvalues --    0.82507   0.84659   0.86689   0.86993   0.87984
 Alpha virt. eigenvalues --    0.89927   0.90300   0.92539   0.93357   0.94199
 Alpha virt. eigenvalues --    0.94979   0.96128   0.96737   0.98749   0.99633
 Alpha virt. eigenvalues --    1.02023   1.03279   1.03868   1.06453   1.07202
 Alpha virt. eigenvalues --    1.08293   1.10507   1.11542   1.13477   1.13776
 Alpha virt. eigenvalues --    1.15171   1.17188   1.17853   1.18906   1.20840
 Alpha virt. eigenvalues --    1.23314   1.26504   1.30165   1.31350   1.31671
 Alpha virt. eigenvalues --    1.32500   1.34668   1.40064   1.41584   1.42818
 Alpha virt. eigenvalues --    1.43826   1.45654   1.46545   1.48255   1.49283
 Alpha virt. eigenvalues --    1.52122   1.54045   1.56752   1.56914   1.60703
 Alpha virt. eigenvalues --    1.61822   1.63428   1.65050   1.65515   1.69225
 Alpha virt. eigenvalues --    1.69516   1.70455   1.71551   1.73069   1.74163
 Alpha virt. eigenvalues --    1.74699   1.74935   1.75334   1.79395   1.79794
 Alpha virt. eigenvalues --    1.83339   1.85340   1.87166   1.87495   1.90392
 Alpha virt. eigenvalues --    1.91271   1.91627   1.92925   1.94212   1.95848
 Alpha virt. eigenvalues --    1.99410   2.02941   2.03905   2.07013   2.07286
 Alpha virt. eigenvalues --    2.08365   2.08965   2.13074   2.14111   2.15854
 Alpha virt. eigenvalues --    2.17250   2.18677   2.19514   2.21117   2.25122
 Alpha virt. eigenvalues --    2.26048   2.26574   2.29793   2.30187   2.30659
 Alpha virt. eigenvalues --    2.32171   2.35561   2.38491   2.39457   2.41540
 Alpha virt. eigenvalues --    2.42414   2.43624   2.45114   2.46939   2.51131
 Alpha virt. eigenvalues --    2.53076   2.53670   2.54199   2.56186   2.59136
 Alpha virt. eigenvalues --    2.60165   2.60680   2.64899   2.67091   2.67838
 Alpha virt. eigenvalues --    2.71721   2.72466   2.73892   2.76532   2.78177
 Alpha virt. eigenvalues --    2.80709   2.83161   2.83694   2.84479   2.85467
 Alpha virt. eigenvalues --    2.87373   2.87881   2.88775   2.91765   2.92517
 Alpha virt. eigenvalues --    2.95567   2.96193   2.98164   2.99830   3.00669
 Alpha virt. eigenvalues --    3.01594   3.02177   3.02666   3.04275   3.04830
 Alpha virt. eigenvalues --    3.07887   3.08163   3.10341   3.10645   3.11547
 Alpha virt. eigenvalues --    3.13320   3.14260   3.18356   3.20200   3.21972
 Alpha virt. eigenvalues --    3.22588   3.23137   3.23413   3.25794   3.30873
 Alpha virt. eigenvalues --    3.31964   3.33439   3.33541   3.35512   3.35909
 Alpha virt. eigenvalues --    3.36702   3.37911   3.39040   3.41720   3.42317
 Alpha virt. eigenvalues --    3.42658   3.45102   3.46771   3.46932   3.48432
 Alpha virt. eigenvalues --    3.49716   3.50309   3.51087   3.51704   3.54278
 Alpha virt. eigenvalues --    3.55714   3.56087   3.58277   3.59657   3.60675
 Alpha virt. eigenvalues --    3.63042   3.65405   3.65532   3.66359   3.68209
 Alpha virt. eigenvalues --    3.70916   3.71955   3.72609   3.72841   3.74910
 Alpha virt. eigenvalues --    3.75095   3.79496   3.81819   3.84262   3.86222
 Alpha virt. eigenvalues --    3.91228   3.91734   3.99918   4.01490   4.03922
 Alpha virt. eigenvalues --    4.05586   4.05856   4.11127   4.13569   4.19374
 Alpha virt. eigenvalues --    4.23312   4.26995   4.28221   4.28980   4.32199
 Alpha virt. eigenvalues --    4.34562   4.34953   4.36539   4.38534   4.38996
 Alpha virt. eigenvalues --    4.40688   4.41633   4.47172   4.48936   4.53007
 Alpha virt. eigenvalues --    4.59186   4.62830   4.68161   4.69384   4.74310
 Alpha virt. eigenvalues --    4.75658   4.77592   4.80162   4.83155   4.90339
 Alpha virt. eigenvalues --    4.96416   5.01213   5.07828   5.09341   5.21347
 Alpha virt. eigenvalues --    5.31670   5.33325   5.35968   5.41624   5.41856
 Alpha virt. eigenvalues --    5.43804   5.48089   5.53755   5.54949   5.57907
 Alpha virt. eigenvalues --    5.65077   5.66442   5.72279   5.77163   5.85330
 Alpha virt. eigenvalues --    5.92443   6.01077   6.06267   6.10238   6.13583
 Alpha virt. eigenvalues --    6.20695   6.37689   6.47357   6.48568   6.51904
 Alpha virt. eigenvalues --    6.60032   6.63816   6.71663   6.74315   6.80877
 Alpha virt. eigenvalues --    6.87821   6.91765   6.99254   7.01034   7.02022
 Alpha virt. eigenvalues --    7.03039   7.11717   7.29311   7.33757   7.37186
 Alpha virt. eigenvalues --    7.54315   7.57644  22.47455  22.65873  22.92930
 Alpha virt. eigenvalues --   22.98102  23.17184  23.21875  23.58324  23.83041
 Alpha virt. eigenvalues --   44.15836  44.26231  44.58407
  Beta  occ. eigenvalues --  -19.49743 -19.48690 -19.40511 -10.46277 -10.45592
  Beta  occ. eigenvalues --  -10.42719 -10.36017 -10.35973 -10.34845 -10.34766
  Beta  occ. eigenvalues --  -10.34367  -1.04819  -1.03953  -0.94221  -0.77815
  Beta  occ. eigenvalues --   -0.69541  -0.67069  -0.63477  -0.55541  -0.51386
  Beta  occ. eigenvalues --   -0.49514  -0.44493  -0.40878  -0.40373  -0.39461
  Beta  occ. eigenvalues --   -0.38820  -0.35341  -0.34457  -0.33721  -0.31554
  Beta  occ. eigenvalues --   -0.28815  -0.28497  -0.27175  -0.24888  -0.22743
  Beta  occ. eigenvalues --   -0.22639  -0.20667  -0.15473  -0.12377  -0.10290
  Beta virt. eigenvalues --    0.18134   0.19294   0.21005   0.21305   0.22829
  Beta virt. eigenvalues --    0.24325   0.25189   0.26145   0.26701   0.28906
  Beta virt. eigenvalues --    0.29117   0.29609   0.31186   0.34601   0.35712
  Beta virt. eigenvalues --    0.37018   0.37889   0.39018   0.40356   0.40613
  Beta virt. eigenvalues --    0.40689   0.42064   0.42920   0.43095   0.45236
  Beta virt. eigenvalues --    0.45636   0.48431   0.48768   0.49262   0.50379
  Beta virt. eigenvalues --    0.51616   0.52335   0.53350   0.54586   0.55193
  Beta virt. eigenvalues --    0.55996   0.56192   0.57101   0.57761   0.59133
  Beta virt. eigenvalues --    0.60643   0.60942   0.61756   0.63515   0.63857
  Beta virt. eigenvalues --    0.64010   0.64850   0.65281   0.67274   0.68233
  Beta virt. eigenvalues --    0.68730   0.70281   0.70834   0.71856   0.72624
  Beta virt. eigenvalues --    0.73837   0.74769   0.77213   0.77802   0.80642
  Beta virt. eigenvalues --    0.80688   0.82387   0.84625   0.86592   0.86762
  Beta virt. eigenvalues --    0.87785   0.89722   0.90124   0.92537   0.93486
  Beta virt. eigenvalues --    0.94284   0.94853   0.96219   0.97033   0.98781
  Beta virt. eigenvalues --    0.99559   1.02186   1.03567   1.03729   1.06197
  Beta virt. eigenvalues --    1.07404   1.08707   1.10753   1.11684   1.13392
  Beta virt. eigenvalues --    1.13852   1.15141   1.17181   1.18167   1.19122
  Beta virt. eigenvalues --    1.20921   1.23261   1.26561   1.30409   1.31410
  Beta virt. eigenvalues --    1.31939   1.32706   1.34855   1.40341   1.41950
  Beta virt. eigenvalues --    1.43045   1.44014   1.46004   1.46809   1.48740
  Beta virt. eigenvalues --    1.49787   1.52420   1.54335   1.56977   1.57378
  Beta virt. eigenvalues --    1.61374   1.62208   1.63534   1.65759   1.65924
  Beta virt. eigenvalues --    1.69576   1.69969   1.71260   1.72078   1.73289
  Beta virt. eigenvalues --    1.74865   1.75100   1.75515   1.75630   1.79617
  Beta virt. eigenvalues --    1.80362   1.83639   1.85505   1.87544   1.88457
  Beta virt. eigenvalues --    1.91133   1.91646   1.92135   1.93411   1.95236
  Beta virt. eigenvalues --    1.96140   1.99657   2.03347   2.04179   2.07197
  Beta virt. eigenvalues --    2.07847   2.08953   2.09600   2.13446   2.14375
  Beta virt. eigenvalues --    2.16112   2.17591   2.19163   2.19930   2.21468
  Beta virt. eigenvalues --    2.25477   2.26420   2.26794   2.30258   2.30434
  Beta virt. eigenvalues --    2.31094   2.32624   2.35988   2.38974   2.39860
  Beta virt. eigenvalues --    2.41559   2.42906   2.43890   2.45579   2.47243
  Beta virt. eigenvalues --    2.51445   2.53465   2.53987   2.54781   2.57193
  Beta virt. eigenvalues --    2.59859   2.60707   2.60929   2.65262   2.67557
  Beta virt. eigenvalues --    2.68277   2.71915   2.72858   2.74559   2.77823
  Beta virt. eigenvalues --    2.78683   2.81386   2.83628   2.84259   2.85026
  Beta virt. eigenvalues --    2.86724   2.87785   2.88543   2.89933   2.92501
  Beta virt. eigenvalues --    2.93913   2.96485   2.96846   2.99182   3.00506
  Beta virt. eigenvalues --    3.01368   3.02546   3.02628   3.03223   3.05172
  Beta virt. eigenvalues --    3.05530   3.08780   3.09054   3.10892   3.11593
  Beta virt. eigenvalues --    3.12150   3.14237   3.15365   3.19324   3.21176
  Beta virt. eigenvalues --    3.22853   3.23571   3.23939   3.24842   3.26614
  Beta virt. eigenvalues --    3.31524   3.32934   3.34406   3.35203   3.36188
  Beta virt. eigenvalues --    3.36445   3.37314   3.38841   3.39955   3.42370
  Beta virt. eigenvalues --    3.43087   3.43453   3.45899   3.47293   3.47702
  Beta virt. eigenvalues --    3.49464   3.50710   3.51014   3.51968   3.53500
  Beta virt. eigenvalues --    3.55276   3.56514   3.57221   3.59159   3.60751
  Beta virt. eigenvalues --    3.61945   3.63842   3.66262   3.66317   3.67420
  Beta virt. eigenvalues --    3.68874   3.71862   3.72618   3.73469   3.73999
  Beta virt. eigenvalues --    3.75589   3.76037   3.80964   3.82507   3.84831
  Beta virt. eigenvalues --    3.87633   3.91888   3.92216   4.01012   4.02674
  Beta virt. eigenvalues --    4.04545   4.06764   4.07651   4.11800   4.14369
  Beta virt. eigenvalues --    4.20237   4.24207   4.28104   4.28523   4.30116
  Beta virt. eigenvalues --    4.34011   4.35390   4.36227   4.38358   4.39397
  Beta virt. eigenvalues --    4.40679   4.42102   4.43140   4.47974   4.50150
  Beta virt. eigenvalues --    4.53216   4.60314   4.63734   4.68991   4.70256
  Beta virt. eigenvalues --    4.75700   4.76918   4.79665   4.81510   4.83773
  Beta virt. eigenvalues --    4.91658   4.97641   5.02153   5.09172   5.11634
  Beta virt. eigenvalues --    5.23400   5.32640   5.34320   5.36226   5.42156
  Beta virt. eigenvalues --    5.42644   5.44720   5.49361   5.53882   5.56207
  Beta virt. eigenvalues --    5.58106   5.66084   5.66936   5.72571   5.77577
  Beta virt. eigenvalues --    5.86234   5.92623   6.01624   6.06697   6.10604
  Beta virt. eigenvalues --    6.14058   6.20993   6.38496   6.47660   6.48772
  Beta virt. eigenvalues --    6.52812   6.60435   6.64710   6.72111   6.75617
  Beta virt. eigenvalues --    6.80936   6.88143   6.91972   6.99421   7.02082
  Beta virt. eigenvalues --    7.02363   7.03406   7.11906   7.29774   7.33869
  Beta virt. eigenvalues --    7.37368   7.54603   7.57876  22.47624  22.65884
  Beta virt. eigenvalues --   22.93151  22.98323  23.17413  23.22156  23.58636
  Beta virt. eigenvalues --   23.83522  44.15831  44.26172  44.58408
          Condensed to atoms (all electrons):
               1          2          3          4          5          6
     1  C    4.919854   0.264459  -0.104318  -0.014593  -0.004147   0.001943
     2  O    0.264459   7.939602   0.411089  -0.096035   0.008491  -0.000219
     3  C   -0.104318   0.411089   5.107905   0.443341   0.008688  -0.075362
     4  C   -0.014593  -0.096035   0.443341   5.434225   0.206841   0.053215
     5  C   -0.004147   0.008491   0.008688   0.206841   5.409101   0.381693
     6  C    0.001943  -0.000219  -0.075362   0.053215   0.381693   5.049956
     7  C   -0.003261   0.000479   0.036141  -0.154328   0.013550   0.434212
     8  C    0.007150  -0.128073   0.199725  -0.037150  -0.078612  -0.000881
     9  C   -0.001562   0.011491  -0.146209   0.028816  -0.007359   0.013928
    10  O    0.000438  -0.029227   0.001854   0.005870  -0.001071   0.001097
    11  O    0.000014  -0.000503  -0.007596   0.000808   0.000046  -0.000930
    12  H    0.409535  -0.047248  -0.010172   0.017562  -0.002382  -0.000006
    13  H    0.410125  -0.044304  -0.008407   0.017556  -0.002541   0.000267
    14  H    0.400349  -0.041169   0.009611  -0.002012   0.000371  -0.000057
    15  H    0.003993  -0.005266  -0.059557   0.407501  -0.014382   0.001199
    16  H   -0.000197  -0.000233   0.006285  -0.048647   0.413197  -0.050701
    17  H   -0.000005   0.000024  -0.004988   0.016129  -0.067895   0.431530
    18  H    0.000053  -0.000084   0.017990  -0.005736   0.013160  -0.072561
    19  H    0.000003   0.000188   0.001165  -0.000108   0.000076  -0.000340
               7          8          9         10         11         12
     1  C   -0.003261   0.007150  -0.001562   0.000438   0.000014   0.409535
     2  O    0.000479  -0.128073   0.011491  -0.029227  -0.000503  -0.047248
     3  C    0.036141   0.199725  -0.146209   0.001854  -0.007596  -0.010172
     4  C   -0.154328  -0.037150   0.028816   0.005870   0.000808   0.017562
     5  C    0.013550  -0.078612  -0.007359  -0.001071   0.000046  -0.002382
     6  C    0.434212  -0.000881   0.013928   0.001097  -0.000930  -0.000006
     7  C    5.415296   0.156323  -0.056976   0.005491   0.032467   0.000075
     8  C    0.156323   6.209440   0.137622  -0.198362  -0.249094  -0.001830
     9  C   -0.056976   0.137622   4.709556   0.761083   0.391821   0.000361
    10  O    0.005491  -0.198362   0.761083   7.961924  -0.103943  -0.000109
    11  O    0.032467  -0.249094   0.391821  -0.103943   8.110343  -0.000001
    12  H    0.000075  -0.001830   0.000361  -0.000109  -0.000001   0.627517
    13  H   -0.000181  -0.006679  -0.000513  -0.000021   0.000001  -0.082291
    14  H    0.000146   0.002129  -0.000099   0.000604   0.000004  -0.027542
    15  H    0.002754   0.001530  -0.000457   0.000037   0.000014  -0.003543
    16  H    0.007749  -0.000899   0.000062  -0.000005  -0.000001   0.000002
    17  H   -0.067431   0.016056   0.000327   0.000011  -0.000181   0.000001
    18  H    0.435314  -0.038055  -0.023394   0.000396   0.013790   0.000001
    19  H   -0.006165   0.047275  -0.054980   0.010170   0.280762   0.000001
              13         14         15         16         17         18
     1  C    0.410125   0.400349   0.003993  -0.000197  -0.000005   0.000053
     2  O   -0.044304  -0.041169  -0.005266  -0.000233   0.000024  -0.000084
     3  C   -0.008407   0.009611  -0.059557   0.006285  -0.004988   0.017990
     4  C    0.017556  -0.002012   0.407501  -0.048647   0.016129  -0.005736
     5  C   -0.002541   0.000371  -0.014382   0.413197  -0.067895   0.013160
     6  C    0.000267  -0.000057   0.001199  -0.050701   0.431530  -0.072561
     7  C   -0.000181   0.000146   0.002754   0.007749  -0.067431   0.435314
     8  C   -0.006679   0.002129   0.001530  -0.000899   0.016056  -0.038055
     9  C   -0.000513  -0.000099  -0.000457   0.000062   0.000327  -0.023394
    10  O   -0.000021   0.000604   0.000037  -0.000005   0.000011   0.000396
    11  O    0.000001   0.000004   0.000014  -0.000001  -0.000181   0.013790
    12  H   -0.082291  -0.027542  -0.003543   0.000002   0.000001   0.000001
    13  H    0.628253  -0.027001  -0.004060  -0.000009   0.000002  -0.000000
    14  H   -0.027001   0.557919   0.000410   0.000001  -0.000000  -0.000001
    15  H   -0.004060   0.000410   0.575236  -0.006247  -0.000482   0.000088
    16  H   -0.000009   0.000001  -0.006247   0.613091  -0.008443  -0.000436
    17  H    0.000002  -0.000000  -0.000482  -0.008443   0.618591  -0.008751
    18  H   -0.000000  -0.000001   0.000088  -0.000436  -0.008751   0.557002
    19  H   -0.000000  -0.000002  -0.000003   0.000001  -0.000008  -0.000099
              19
     1  C    0.000003
     2  O    0.000188
     3  C    0.001165
     4  C   -0.000108
     5  C    0.000076
     6  C   -0.000340
     7  C   -0.006165
     8  C    0.047275
     9  C   -0.054980
    10  O    0.010170
    11  O    0.280762
    12  H    0.000001
    13  H   -0.000000
    14  H   -0.000002
    15  H   -0.000003
    16  H    0.000001
    17  H   -0.000008
    18  H   -0.000099
    19  H    0.436390
          Atomic-Atomic Spin Densities.
               1          2          3          4          5          6
     1  C    0.017378   0.008413  -0.014980  -0.004748   0.002097   0.000026
     2  O    0.008413   0.013658  -0.015158  -0.007017   0.001246  -0.000192
     3  C   -0.014980  -0.015158   0.146027   0.103898  -0.055142   0.032698
     4  C   -0.004748  -0.007017   0.103898   0.027546  -0.143372   0.005650
     5  C    0.002097   0.001246  -0.055142  -0.143372   0.683369  -0.060396
     6  C    0.000026  -0.000192   0.032698   0.005650  -0.060396  -0.145517
     7  C   -0.000770  -0.001251   0.008329   0.031962  -0.069576   0.070208
     8  C    0.004349   0.008154  -0.110383  -0.050595   0.053911  -0.028815
     9  C    0.000450   0.001899  -0.036900  -0.004470   0.003062  -0.004387
    10  O   -0.000479  -0.001182   0.008714   0.000133  -0.000098  -0.000057
    11  O   -0.000008  -0.000019   0.002410   0.000009  -0.000087   0.000010
    12  H   -0.007606  -0.002637   0.004643   0.003684  -0.001145  -0.000166
    13  H   -0.005438  -0.000837   0.003761   0.007325  -0.001494   0.000323
    14  H   -0.001420   0.000049   0.000461  -0.000297  -0.000011   0.000002
    15  H   -0.000141   0.000050   0.002386  -0.001564  -0.000257  -0.000402
    16  H   -0.000029   0.000007   0.000887  -0.007156   0.013056  -0.003759
    17  H    0.000002   0.000001   0.000512   0.000205  -0.005791   0.001078
    18  H   -0.000004  -0.000002  -0.000429  -0.000057   0.000678   0.000029
    19  H   -0.000001  -0.000005  -0.000451   0.000018  -0.000006   0.000011
               7          8          9         10         11         12
     1  C   -0.000770   0.004349   0.000450  -0.000479  -0.000008  -0.007606
     2  O   -0.001251   0.008154   0.001899  -0.001182  -0.000019  -0.002637
     3  C    0.008329  -0.110383  -0.036900   0.008714   0.002410   0.004643
     4  C    0.031962  -0.050595  -0.004470   0.000133   0.000009   0.003684
     5  C   -0.069576   0.053911   0.003062  -0.000098  -0.000087  -0.001145
     6  C    0.070208  -0.028815  -0.004387  -0.000057   0.000010  -0.000166
     7  C    0.412456  -0.196235  -0.021396   0.004316   0.010281   0.000530
     8  C   -0.196235   0.414129   0.131865  -0.029635  -0.019837   0.001455
     9  C   -0.021396   0.131865   0.157986  -0.081723  -0.026074   0.000271
    10  O    0.004316  -0.029635  -0.081723   0.226636   0.009465   0.000041
    11  O    0.010281  -0.019837  -0.026074   0.009465   0.034960   0.000001
    12  H    0.000530   0.001455   0.000271   0.000041   0.000001   0.014235
    13  H   -0.000090  -0.003952  -0.000511   0.000128   0.000002  -0.008672
    14  H   -0.000006  -0.000150  -0.000038   0.000008   0.000000  -0.000463
    15  H    0.000082   0.000705   0.000044  -0.000005  -0.000000   0.000013
    16  H    0.001256  -0.000290   0.000001   0.000000   0.000000   0.000012
    17  H    0.000460  -0.000223  -0.000042  -0.000000  -0.000004  -0.000001
    18  H    0.009699  -0.008437   0.000190   0.000035   0.000398   0.000003
    19  H   -0.000013  -0.000551   0.000273  -0.000013   0.000629   0.000001
              13         14         15         16         17         18
     1  C   -0.005438  -0.001420  -0.000141  -0.000029   0.000002  -0.000004
     2  O   -0.000837   0.000049   0.000050   0.000007   0.000001  -0.000002
     3  C    0.003761   0.000461   0.002386   0.000887   0.000512  -0.000429
     4  C    0.007325  -0.000297  -0.001564  -0.007156   0.000205  -0.000057
     5  C   -0.001494  -0.000011  -0.000257   0.013056  -0.005791   0.000678
     6  C    0.000323   0.000002  -0.000402  -0.003759   0.001078   0.000029
     7  C   -0.000090  -0.000006   0.000082   0.001256   0.000460   0.009699
     8  C   -0.003952  -0.000150   0.000705  -0.000290  -0.000223  -0.008437
     9  C   -0.000511  -0.000038   0.000044   0.000001  -0.000042   0.000190
    10  O    0.000128   0.000008  -0.000005   0.000000  -0.000000   0.000035
    11  O    0.000002   0.000000  -0.000000   0.000000  -0.000004   0.000398
    12  H   -0.008672  -0.000463   0.000013   0.000012  -0.000001   0.000003
    13  H    0.012776   0.000900  -0.000248  -0.000013   0.000001  -0.000003
    14  H    0.000900   0.000711   0.000003  -0.000000   0.000000  -0.000000
    15  H   -0.000248   0.000003  -0.005583   0.000408   0.000015  -0.000002
    16  H   -0.000013  -0.000000   0.000408  -0.025013  -0.000183   0.000019
    17  H    0.000001   0.000000   0.000015  -0.000183   0.006726  -0.000142
    18  H   -0.000003  -0.000000  -0.000002   0.000019  -0.000142  -0.011423
    19  H   -0.000001  -0.000000   0.000000  -0.000000   0.000000   0.000022
              19
     1  C   -0.000001
     2  O   -0.000005
     3  C   -0.000451
     4  C    0.000018
     5  C   -0.000006
     6  C    0.000011
     7  C   -0.000013
     8  C   -0.000551
     9  C    0.000273
    10  O   -0.000013
    11  O    0.000629
    12  H    0.000001
    13  H   -0.000001
    14  H   -0.000000
    15  H    0.000000
    16  H   -0.000000
    17  H    0.000000
    18  H    0.000022
    19  H   -0.001434
 Mulliken charges and spin densities:
               1          2
     1  C   -0.289835  -0.002908
     2  O   -0.243462   0.005177
     3  C    0.172816   0.081282
     4  C   -0.273255  -0.038844
     5  C   -0.276826   0.420044
     6  C   -0.167983  -0.133660
     7  C   -0.251654   0.260242
     8  C   -0.037614   0.165465
     9  C    0.236483   0.120502
    10  O   -0.416236   0.136285
    11  O   -0.467820   0.012136
    12  H    0.120070   0.004199
    13  H    0.119802   0.003959
    14  H    0.126338  -0.000251
    15  H    0.101233  -0.004497
    16  H    0.075432  -0.020797
    17  H    0.075511   0.002612
    18  H    0.111324  -0.009427
    19  H    0.285674  -0.001520
 Sum of Mulliken charges =  -1.00000   1.00000
 Mulliken charges and spin densities with hydrogens summed into heavy atoms:
               1          2
     1  C    0.076376   0.004999
     2  O   -0.243462   0.005177
     3  C    0.172816   0.081282
     4  C   -0.172022  -0.043341
     5  C   -0.201394   0.399247
     6  C   -0.092472  -0.131048
     7  C   -0.140330   0.250815
     8  C   -0.037614   0.165465
     9  C    0.236483   0.120502
    10  O   -0.416236   0.136285
    11  O   -0.182146   0.010616
 Electronic spatial extent (au):  <R**2>=           1745.6235
 Charge=             -1.0000 electrons
 Dipole moment (field-independent basis, Debye):
    X=              1.7793    Y=             -1.1250    Z=              0.2549  Tot=              2.1205
 Quadrupole moment (field-independent basis, Debye-Ang):
   XX=            -73.2691   YY=            -81.8990   ZZ=            -71.7437
   XY=             -8.5319   XZ=             -0.2817   YZ=             -1.0592
 Traceless Quadrupole moment (field-independent basis, Debye-Ang):
   XX=              2.3681   YY=             -6.2617   ZZ=              3.8936
   XY=             -8.5319   XZ=             -0.2817   YZ=             -1.0592
 Octapole moment (field-independent basis, Debye-Ang**2):
  XXX=            -32.4150  YYY=            -22.7023  ZZZ=              0.4066  XYY=              6.5157
  XXY=            -15.9492  XXZ=              0.9151  XZZ=             -8.9858  YZZ=            -13.7493
  YYZ=              1.7320  XYZ=              2.3966
 Hexadecapole moment (field-independent basis, Debye-Ang**3):
 XXXX=          -1126.7443 YYYY=          -1100.5516 ZZZZ=            -92.3782 XXXY=             -4.6058
 XXXZ=             -3.0732 YYYX=            -58.9468 YYYZ=             -2.5989 ZZZX=             -0.0837
 ZZZY=              1.1535 XXYY=           -419.5619 XXZZ=           -230.7641 YYZZ=           -212.0385
 XXYZ=             -5.3544 YYXZ=             -3.1247 ZZXY=             -7.6677
 N-N= 5.968247346160D+02 E-N=-2.459860294128D+03  KE= 5.333097053632D+02
 There are a total of      430506 grid points.
 ElSum from          density=       80.9999617336
 ElSum from atomic densities=       79.9999210615
 Hirshfeld populations at iteration   1 (CA, CB, DipXYZ):
               1          2          3          4          5
     1  C    3.007887   3.001970  -0.056402   0.018538  -0.001870
     2  O    4.073840   4.061457   0.113354   0.075277  -0.002794
     3  C    3.013158   2.942738  -0.026609  -0.117519  -0.001217
     4  C    3.088878   3.038823   0.017487   0.002732   0.000527
     5  C    3.183221   2.963591   0.000060  -0.014802   0.000283
     6  C    3.059575   3.048702   0.007400   0.037328  -0.000954
     7  C    3.129186   2.981665  -0.022071  -0.027548   0.000468
     8  C    3.120844   2.982477   0.016168  -0.012785  -0.005403
     9  C    3.012810   2.874045  -0.073631   0.064411   0.010484
    10  O    4.262084   4.132629   0.057027   0.190701   0.025296
    11  O    4.126809   4.102098   0.044637  -0.131854  -0.029532
    12  H    0.491708   0.488207   0.066036   0.013223  -0.101279
    13  H    0.492033   0.488518   0.064522   0.017425   0.100939
    14  H    0.485213   0.484844  -0.027096  -0.138136   0.002378
    15  H    0.500900   0.495612   0.128892  -0.040413   0.000656
    16  H    0.517301   0.494401   0.109917   0.070876  -0.000736
    17  H    0.497770   0.496852  -0.010053   0.136375  -0.001532
    18  H    0.506126   0.491535  -0.106121   0.069391  -0.001941
    19  H    0.430640   0.429817  -0.175891  -0.095563  -0.003585
       Tot  40.999981  39.999981   0.127629   0.117659  -0.009811

 Dip from Atomic Chgs              0.572421  -0.560243   0.110100
         Total Dipole              0.700051  -0.442584   0.100288

 Hirshfeld charges, spin densities, dipoles, and CM5 charges using IRadAn=      5:
              Q-H        S-H        Dx         Dy         Dz        Q-CM5   
     1  C   -0.009857   0.005918  -0.056402   0.018538  -0.001870  -0.132264
     2  O   -0.135297   0.012384   0.113354   0.075277  -0.002794  -0.225318
     3  C    0.044104   0.070419  -0.026609  -0.117519  -0.001217   0.065185
     4  C   -0.127701   0.050054   0.017487   0.002732   0.000527  -0.180238
     5  C   -0.146813   0.219630   0.000060  -0.014802   0.000283  -0.202696
     6  C   -0.108277   0.010874   0.007400   0.037328  -0.000954  -0.164318
     7  C   -0.110851   0.147520  -0.022071  -0.027548   0.000468  -0.162487
     8  C   -0.103320   0.138367   0.016168  -0.012785  -0.005403  -0.101524
     9  C    0.113144   0.138765  -0.073631   0.064411   0.010484   0.168920
    10  O   -0.394713   0.129455   0.057027   0.190701   0.025296  -0.442114
    11  O   -0.228906   0.024711   0.044637  -0.131854  -0.029532  -0.428152
    12  H    0.020086   0.003501   0.066036   0.013223  -0.101279   0.079890
    13  H    0.019450   0.003515   0.064522   0.017425   0.100939   0.079221
    14  H    0.029943   0.000369  -0.027096  -0.138136   0.002378   0.091314
    15  H    0.003488   0.005288   0.128892  -0.040413   0.000656   0.064019
    16  H   -0.011702   0.022901   0.109917   0.070876  -0.000736   0.044501
    17  H    0.005378   0.000918  -0.010053   0.136375  -0.001532   0.061642
    18  H    0.002339   0.014591  -0.106121   0.069391  -0.001941   0.066247
    19  H    0.139543   0.000822  -0.175891  -0.095563  -0.003585   0.318209
       Tot  -0.999962   1.000000   0.127629   0.117659  -0.009811  -0.999962
 Hirshfeld charges and spin densities with hydrogens summed into heavy atoms:
              Q-H        S-H       Q-CM5   
     1  C    0.059622   0.013303   0.118162
     2  O   -0.135297   0.012384  -0.225318
     3  C    0.044104   0.070419   0.065185
     4  C   -0.124213   0.055342  -0.116219
     5  C   -0.158515   0.242531  -0.158195
     6  C   -0.102899   0.011791  -0.102676
     7  C   -0.108512   0.162111  -0.096240
     8  C   -0.103320   0.138367  -0.101524
     9  C    0.113144   0.138765   0.168920
    10  O   -0.394713   0.129455  -0.442114
    11  O   -0.089363   0.025533  -0.109943
 
 EQQ= 0.967029229457E-01 EQD=-0.261782229099E-01 EDD=-0.965315660440E-03
 EQQ+QD+DD= 0.695593843754E-01
 
                          Isotropic Fermi Contact Couplings
        Atom                 a.u.       MegaHertz       Gauss      10(-4) cm-1
     1  C(13)              0.00011       0.12485       0.04455       0.04165
     2  O(17)             -0.00142       0.86345       0.30810       0.28802
     3  C(13)              0.00244       2.73928       0.97744       0.91373
     4  C(13)             -0.01043     -11.72636      -4.18426      -3.91149
     5  C(13)              0.03662      41.16880      14.69005      13.73243
     6  C(13)             -0.02263     -25.44523      -9.07949      -8.48762
     7  C(13)              0.01850      20.79455       7.42001       6.93631
     8  C(13)              0.00745       8.37977       2.99011       2.79519
     9  C(13)              0.00923      10.37568       3.70230       3.46096
    10  O(17)              0.02737     -16.59166      -5.92032      -5.53438
    11  O(17)             -0.00127       0.77286       0.27578       0.25780
    12  H(1)              -0.00017      -0.75314      -0.26874      -0.25122
    13  H(1)              -0.00017      -0.77987      -0.27828      -0.26014
    14  H(1)              -0.00016      -0.70291      -0.25082      -0.23447
    15  H(1)              -0.00083      -3.72350      -1.32864      -1.24203
    16  H(1)              -0.00554     -24.75585      -8.83350      -8.25766
    17  H(1)               0.00054       2.42196       0.86422       0.80788
    18  H(1)              -0.00352     -15.72070      -5.60954      -5.24386
    19  H(1)              -0.00052      -2.31793      -0.82709      -0.77318
 --------------------------------------------------------
       Center         ----  Spin Dipole Couplings  ----
                      3XX-RR        3YY-RR        3ZZ-RR
 --------------------------------------------------------
     1   Atom       -0.002240     -0.000124      0.002364
     2   Atom       -0.018615     -0.027600      0.046215
     3   Atom       -0.041378     -0.048469      0.089847
     4   Atom       -0.015236     -0.011518      0.026754
     5   Atom       -0.177281     -0.185003      0.362284
     6   Atom        0.036070      0.023901     -0.059970
     7   Atom       -0.106754     -0.110741      0.217494
     8   Atom       -0.092868     -0.098522      0.191390
     9   Atom       -0.090705     -0.081049      0.171755
    10   Atom       -0.299006     -0.299149      0.598155
    11   Atom       -0.050772     -0.056199      0.106971
    12   Atom        0.000486      0.001657     -0.002143
    13   Atom        0.000466      0.001601     -0.002066
    14   Atom       -0.000563      0.002083     -0.001520
    15   Atom        0.005042     -0.001961     -0.003081
    16   Atom        0.010284     -0.011545      0.001262
    17   Atom        0.003534      0.001334     -0.004868
    18   Atom        0.011127     -0.008308     -0.002818
    19   Atom        0.007525     -0.003053     -0.004472
 --------------------------------------------------------
                        XY            XZ            YZ
 --------------------------------------------------------
     1   Atom       -0.002204      0.000025      0.000002
     2   Atom       -0.005571     -0.000977      0.000576
     3   Atom        0.003658     -0.005446      0.004722
     4   Atom        0.003995      0.001008      0.001484
     5   Atom        0.007551      0.000706      0.005588
     6   Atom        0.002253     -0.000896     -0.001584
     7   Atom        0.002464     -0.001383      0.012985
     8   Atom        0.009735     -0.000626      0.007385
     9   Atom        0.007879      0.013827     -0.035586
    10   Atom       -0.006355      0.020603     -0.145575
    11   Atom        0.004649      0.017826     -0.026529
    12   Atom       -0.002257     -0.001176      0.000572
    13   Atom       -0.002136      0.001342     -0.000757
    14   Atom       -0.001583      0.000061     -0.000077
    15   Atom       -0.002454      0.000138      0.000019
    16   Atom        0.024823     -0.000301      0.000200
    17   Atom        0.001301     -0.000035     -0.000096
    18   Atom       -0.011317      0.000185      0.000364
    19   Atom        0.002543     -0.000234     -0.000150
 --------------------------------------------------------


 ---------------------------------------------------------------------------------
              Anisotropic Spin Dipole Couplings in Principal Axis System
 ---------------------------------------------------------------------------------

       Atom             a.u.   MegaHertz   Gauss  10(-4) cm-1        Axes

              Baa    -0.0036    -0.487    -0.174    -0.162  0.8464  0.5325 -0.0037
     1 C(13)  Bbb     0.0013     0.169     0.060     0.057 -0.5325  0.8464  0.0103
              Bcc     0.0024     0.317     0.113     0.106  0.0086 -0.0067  0.9999
 
              Baa    -0.0303     2.190     0.781     0.730  0.4313  0.9022 -0.0013
     2 O(17)  Bbb    -0.0160     1.156     0.412     0.385  0.9021 -0.4312  0.0182
              Bcc     0.0462    -3.346    -1.194    -1.116 -0.0158  0.0090  0.9998
 
              Baa    -0.0503    -6.752    -2.409    -2.252 -0.4024  0.9143 -0.0464
     3 C(13)  Bbb    -0.0399    -5.355    -1.911    -1.786  0.9146  0.4037  0.0237
              Bcc     0.0902    12.107     4.320     4.038 -0.0404  0.0329  0.9986
 
              Baa    -0.0178    -2.386    -0.851    -0.796  0.8433 -0.5374 -0.0012
     4 C(13)  Bbb    -0.0091    -1.216    -0.434    -0.406  0.5367  0.8423 -0.0500
              Bcc     0.0268     3.602     1.285     1.202  0.0279  0.0416  0.9987
 
              Baa    -0.1897   -25.450    -9.081    -8.489 -0.5205  0.8538 -0.0080
     5 C(13)  Bbb    -0.1727   -23.173    -8.269    -7.730  0.8539  0.5204 -0.0066
              Bcc     0.3623    48.623    17.350    16.219  0.0015  0.0102  0.9999
 
              Baa    -0.0600    -8.052    -2.873    -2.686  0.0089  0.0186  0.9998
     6 C(13)  Bbb     0.0235     3.156     1.126     1.053 -0.1779  0.9839 -0.0168
              Bcc     0.0365     4.896     1.747     1.633  0.9840  0.1777 -0.0121
 
              Baa    -0.1124   -15.080    -5.381    -5.030 -0.4086  0.9119 -0.0376
     7 C(13)  Bbb    -0.1056   -14.175    -5.058    -4.728  0.9127  0.4085 -0.0125
              Bcc     0.2180    29.255    10.439     9.758 -0.0040  0.0394  0.9992
 
              Baa    -0.1060   -14.220    -5.074    -4.743 -0.5970  0.8019 -0.0212
     8 C(13)  Bbb    -0.0856   -11.488    -4.099    -3.832  0.8022  0.5969 -0.0141
              Bcc     0.1916    25.708     9.173     8.575 -0.0013  0.0254  0.9997
 
              Baa    -0.0987   -13.242    -4.725    -4.417  0.7946 -0.5953 -0.1190
     9 C(13)  Bbb    -0.0786   -10.545    -3.763    -3.518  0.6052  0.7921  0.0792
              Bcc     0.1773    23.787     8.488     7.935  0.0471 -0.1349  0.9897
 
              Baa    -0.3226    23.342     8.329     7.786  0.1313  0.9796  0.1519
    10 O(17)  Bbb    -0.2991    21.642     7.723     7.219  0.9911 -0.1261 -0.0432
              Bcc     0.6217   -44.984   -16.051   -15.005  0.0232 -0.1563  0.9874
 
              Baa    -0.0648     4.689     1.673     1.564 -0.5108  0.8401  0.1828
    11 O(17)  Bbb    -0.0481     3.482     1.243     1.162  0.8536  0.5209 -0.0090
              Bcc     0.1129    -8.171    -2.916    -2.725  0.1028 -0.1514  0.9831
 
              Baa    -0.0026    -1.397    -0.499    -0.466  0.4134  0.0970  0.9054
    12 H(1)   Bbb    -0.0010    -0.547    -0.195    -0.182  0.6687  0.6426 -0.3742
              Bcc     0.0036     1.944     0.694     0.648 -0.6180  0.7601  0.2008
 
              Baa    -0.0027    -1.415    -0.505    -0.472 -0.4248 -0.0525  0.9038
    13 H(1)   Bbb    -0.0010    -0.507    -0.181    -0.169  0.6642  0.6603  0.3505
              Bcc     0.0036     1.922     0.686     0.641 -0.6152  0.7491 -0.2456
 
              Baa    -0.0015    -0.813    -0.290    -0.271 -0.1035 -0.0242  0.9943
    14 H(1)   Bbb    -0.0013    -0.694    -0.248    -0.231  0.9000  0.4234  0.1040
              Bcc     0.0028     1.507     0.538     0.503 -0.4235  0.9056 -0.0220
 
              Baa    -0.0031    -1.650    -0.589    -0.550 -0.0627 -0.1526  0.9863
    15 H(1)   Bbb    -0.0027    -1.454    -0.519    -0.485  0.2946  0.9414  0.1643
              Bcc     0.0058     3.104     1.108     1.035  0.9536 -0.3008  0.0141
 
              Baa    -0.0278   -14.807    -5.283    -4.939 -0.5466  0.8373 -0.0114
    16 H(1)   Bbb     0.0013     0.675     0.241     0.225 -0.0015  0.0127  0.9999
              Bcc     0.0265    14.132     5.043     4.714  0.8374  0.5465 -0.0057
 
              Baa    -0.0049    -2.598    -0.927    -0.867  0.0018  0.0151  0.9999
    17 H(1)   Bbb     0.0007     0.390     0.139     0.130 -0.4212  0.9069 -0.0129
              Bcc     0.0041     2.208     0.788     0.737  0.9070  0.4211 -0.0080
 
              Baa    -0.0135    -7.215    -2.575    -2.407  0.4172  0.9080 -0.0380
    18 H(1)   Bbb    -0.0028    -1.496    -0.534    -0.499  0.0151  0.0349  0.9993
              Bcc     0.0163     8.711     3.108     2.906  0.9087 -0.4174  0.0008
 
              Baa    -0.0045    -2.394    -0.854    -0.799 -0.0043  0.1116  0.9937
    19 H(1)   Bbb    -0.0036    -1.933    -0.690    -0.645 -0.2233  0.9686 -0.1097
              Bcc     0.0081     4.327     1.544     1.443  0.9747  0.2224 -0.0207
 

 ---------------------------------------------------------------------------------

 Running external command "gaunbo6 R"
         input file       "/tmp/Gau-1833507.EIn"
         output file      "/tmp/Gau-1833507.EOu"
         message file     "/tmp/Gau-1833507.EMs"
         fchk file        "/tmp/Gau-1833507.EFC"
         mat. el file     "/tmp/Gau-1833507.EUF"

 Writing WrtUnf unformatted file "/tmp/Gau-1833507.EUF"
 Gaussian matrix elements                                         Version   2 NLab=11 Len12L=8 Len4L=8
 Write SHELL TO ATOM MAP                   from file      0 offset           0 length                 153 to matrix element file.
 Write SHELL TYPES                         from file      0 offset           0 length                 153 to matrix element file.
 Write NUMBER OF PRIMITIVES PER SHELL      from file      0 offset           0 length                 153 to matrix element file.
 Write PRIMITIVE EXPONENTS                 from file      0 offset           0 length                 268 to matrix element file.
 Write CONTRACTION COEFFICIENTS            from file      0 offset           0 length                 268 to matrix element file.
 Write P(S=P) CONTRACTION COEFFICIENTS     from file      0 offset           0 length                 268 to matrix element file.
 Write COORDINATES OF EACH SHELL           from file      0 offset           0 length                 459 to matrix element file.
 Write BONDS PER ATOM                      from file      0 offset           0 length                  19 to matrix element file.
 Write BONDED ATOMS                        from file      0 offset           0 length                  38 to matrix element file.
 Write BOND TYPES                          from file      0 offset           0 length                  38 to matrix element file.
 Write ONIOM CHARGE/MULT                   from file      0 offset           0 length                  32 to matrix element file.
 Write ONIOM ATOM LAYERS                   from file      0 offset           0 length                  19 to matrix element file.
 Write ONIOM ATOM MODIFIERS                from file      0 offset           0 length                  19 to matrix element file.
 Write ONIOM ATOM TYPES                    from file      0 offset           0 length                  19 to matrix element file.
 Write ONIOM LINK ATOMS                    from file      0 offset           0 length                  19 to matrix element file.
 Write ONIOM LINK CHARGES                  from file      0 offset           0 length                  19 to matrix element file.
 Write ONIOM LINK DISTANCES                from file      0 offset           0 length                  76 to matrix element file.
 Write SYMINF INTS                         from file      0 offset           0 length                  26 to matrix element file.
 Write ROTTR TO SO                         from file      0 offset           0 length                  12 to matrix element file.
 Write GAUSSIAN SCALARS                    from file    501 offset           0 to matrix element file.
 Write OPTIMIZATION FLAGS                  from file      0 offset           0 length                  19 to matrix element file.
 Write INTEGER ISO                         from file      0 offset           0 length                  19 to matrix element file.
 Write INTEGER SPIN                        from file      0 offset           0 length                  19 to matrix element file.
 Write REAL ZEFFECTIVE                     from file      0 offset           0 length                  19 to matrix element file.
 Write REAL GFACTOR                        from file      0 offset           0 length                  19 to matrix element file.
 Write REAL ZNUCLEAR                       from file      0 offset           0 length                  19 to matrix element file.
 Write MULLIKEN CHARGES                    from file      0 offset           0 length                  19 to matrix element file.
 Write TYPE 6 CHARGES                      from file      0 offset           0 length                  19 to matrix element file.
 Write TYPE 7 CHARGES                      from file      0 offset           0 length                  19 to matrix element file.
 Write NUCLEAR GRADIENT                    from file  10584 offset           0 length                  57 to matrix element file.
 Array NUCLEAR FORCE CONSTANTS              on  file  10585 does not exist.
 Write ELECTRIC DIPOLE MOMENT              from file      0 offset           0 length                   3 to matrix element file.
 Write NON-ADIABATIC COUPLING              from file  10810 offset           0 length                  57 to matrix element file.
 Write FINITE EM FIELD                     from file  10521 offset           0 length                  35 to matrix element file.
 Write OVERLAP                             from file  10514 offset           0 length               75855 to matrix element file.
 Write CORE HAMILTONIAN ALPHA              from file  10515 offset           0 length               75855 to matrix element file.
 Write CORE HAMILTONIAN BETA               from file  10515 offset       75855 length               75855 to matrix element file.
 Write KINETIC ENERGY                      from file  10516 offset           0 length               75855 to matrix element file.
 Write ORTHOGONAL BASIS                    from file  10685 offset           0 length              151321 to matrix element file.
 Write DIPOLE INTEGRALS                    from file  10518 offset           0 length              227565 to matrix element file.
 Array DIP VEL INTEGRALS                    on  file  10572 does not exist.
 Array R X DEL INTEGRALS                    on  file  10572 does not exist.
 Write ALPHA ORBITAL ENERGIES              from file      0 offset           0 length                 389 to matrix element file.
 Write BETA ORBITAL ENERGIES               from file      0 offset           0 length                 389 to matrix element file.
 Write ALPHA MO COEFFICIENTS               from file  10524 offset           0 length              151321 to matrix element file.
 Write BETA MO COEFFICIENTS                from file  10526 offset           0 length              151321 to matrix element file.
 Write ALPHA DENSITY MATRIX                from file      0 offset           0 length               75855 to matrix element file.
 Write BETA DENSITY MATRIX                 from file      0 offset           0 length               75855 to matrix element file.
 Write ALPHA FOCK MATRIX                   from file  10536 offset           0 length               75855 to matrix element file.
 Write BETA FOCK MATRIX                    from file  10538 offset           0 length               75855 to matrix element file.
 Write ENERGY-WEIGHTED DENSITY             from file  10571 offset           0 length               75855 to matrix element file.
 Write ALPHA SCF DENSITY MATRIX            from file      0 offset           0 length               75855 to matrix element file.
 Write BETA SCF DENSITY MATRIX             from file      0 offset           0 length               75855 to matrix element file.
 No 2e integrals to process.
 Perform NBO analysis...

 *********************************** NBO 7.0 ***********************************
             N A T U R A L   A T O M I C   O R B I T A L   A N D
          N A T U R A L   B O N D   O R B I T A L   A N A L Y S I S
 **************************** Robert Paton (I101709) ***************************
  (c) Copyright 1996-2019 Board of Regents of the University of Wisconsin System
      on behalf of the Theoretical Chemistry Institute.  All rights reserved.

          Cite this program [NBO 7.0.5 (4-Jun-2019)] as:

          NBO 7.0.  E. D. Glendening, J. K. Badenhoop, A. E. Reed,
          J. E. Carpenter, J. A. Bohmann, C. M. Morales, P. Karafiloglou,
          C. R. Landis, and F. Weinhold, Theoretical Chemistry Institute,
          University of Wisconsin, Madison, WI (2018)

 Filename set to /tmp/Gau-1833507

 Job title:  Ac4_rdkit_conf_1_SP_charge_n


 NATURAL POPULATIONS:  Natural atomic orbital occupancies

  NAO Atom No lang   Type(AO)    Occupancy     Spin
 -----------------------------------------------------
   1    C  1  s      Cor( 1s)     1.99999     0.00000
   2    C  1  s      Val( 2s)     1.08462     0.00007
   3    C  1  s      Ryd( 3s)     0.00194     0.00000
   4    C  1  s      Ryd( 4s)     0.00001     0.00000
   5    C  1  s      Ryd( 5s)     0.00000     0.00000
   6    C  1  px     Val( 2p)     0.87042    -0.00018
   7    C  1  px     Ryd( 3p)     0.00259     0.00000
   8    C  1  px     Ryd( 4p)     0.00034     0.00000
   9    C  1  py     Val( 2p)     1.09707     0.00019
  10    C  1  py     Ryd( 3p)     0.00165     0.00000
  11    C  1  py     Ryd( 4p)     0.00036     0.00000
  12    C  1  pz     Val( 2p)     1.17918     0.00240
  13    C  1  pz     Ryd( 3p)     0.00035     0.00000
  14    C  1  pz     Ryd( 4p)     0.00018     0.00000
  15    C  1  dxy    Ryd( 3d)     0.00078     0.00000
  16    C  1  dxy    Ryd( 4d)     0.00007     0.00000
  17    C  1  dxz    Ryd( 3d)     0.00241     0.00000
  18    C  1  dxz    Ryd( 4d)     0.00003     0.00001
  19    C  1  dyz    Ryd( 3d)     0.00107     0.00014
  20    C  1  dyz    Ryd( 4d)     0.00018     0.00006
  21    C  1  dx2y2  Ryd( 3d)     0.00159     0.00000
  22    C  1  dx2y2  Ryd( 4d)     0.00009     0.00000
  23    C  1  dz2    Ryd( 3d)     0.00085     0.00000
  24    C  1  dz2    Ryd( 4d)     0.00007     0.00000
  25    C  1  f(0)   Ryd( 4f)     0.00001     0.00000
  26    C  1  f(c1)  Ryd( 4f)     0.00027     0.00000
  27    C  1  f(s1)  Ryd( 4f)     0.00010     0.00000
  28    C  1  f(c2)  Ryd( 4f)     0.00005     0.00001
  29    C  1  f(s2)  Ryd( 4f)     0.00001     0.00000
  30    C  1  f(c3)  Ryd( 4f)     0.00002     0.00000
  31    C  1  f(s3)  Ryd( 4f)     0.00013     0.00000

  32    O  2  s      Cor( 1s)     1.99999     0.00000
  33    O  2  s      Val( 2s)     1.57192     0.00002
  34    O  2  s      Ryd( 3s)     0.00106     0.00001
  35    O  2  s      Ryd( 4s)     0.00005     0.00000
  36    O  2  s      Ryd( 5s)     0.00000     0.00000
  37    O  2  px     Val( 2p)     1.56253     0.00002
  38    O  2  px     Ryd( 3p)     0.00254     0.00000
  39    O  2  px     Ryd( 4p)     0.00014     0.00000
  40    O  2  py     Val( 2p)     1.45761    -0.00182
  41    O  2  py     Ryd( 3p)     0.00312    -0.00002
  42    O  2  py     Ryd( 4p)     0.00013     0.00000
  43    O  2  pz     Val( 2p)     1.84006     0.00679
  44    O  2  pz     Ryd( 3p)     0.00531     0.00023
  45    O  2  pz     Ryd( 4p)     0.00004     0.00001
  46    O  2  dxy    Ryd( 3d)     0.00240     0.00000
  47    O  2  dxy    Ryd( 4d)     0.00008     0.00000
  48    O  2  dxz    Ryd( 3d)     0.00175     0.00003
  49    O  2  dxz    Ryd( 4d)     0.00005     0.00001
  50    O  2  dyz    Ryd( 3d)     0.00117    -0.00002
  51    O  2  dyz    Ryd( 4d)     0.00004     0.00000
  52    O  2  dx2y2  Ryd( 3d)     0.00485    -0.00001
  53    O  2  dx2y2  Ryd( 4d)     0.00004     0.00000
  54    O  2  dz2    Ryd( 3d)     0.00315     0.00000
  55    O  2  dz2    Ryd( 4d)     0.00001     0.00000
  56    O  2  f(0)   Ryd( 4f)     0.00013     0.00000
  57    O  2  f(c1)  Ryd( 4f)     0.00008     0.00000
  58    O  2  f(s1)  Ryd( 4f)     0.00009     0.00000
  59    O  2  f(c2)  Ryd( 4f)     0.00002     0.00000
  60    O  2  f(s2)  Ryd( 4f)     0.00003     0.00000
  61    O  2  f(c3)  Ryd( 4f)     0.00003     0.00000
  62    O  2  f(s3)  Ryd( 4f)     0.00013     0.00000

  63    C  3  s      Cor( 1s)     1.99999     0.00000
  64    C  3  s      Val( 2s)     0.85326     0.00029
  65    C  3  s      Ryd( 3s)     0.00223     0.00000
  66    C  3  s      Ryd( 4s)     0.00033     0.00000
  67    C  3  s      Ryd( 5s)     0.00000     0.00000
  68    C  3  px     Val( 2p)     1.06580    -0.00059
  69    C  3  px     Ryd( 3p)     0.00312    -0.00002
  70    C  3  px     Ryd( 4p)     0.00030     0.00000
  71    C  3  py     Val( 2p)     0.76458     0.00149
  72    C  3  py     Ryd( 3p)     0.00612     0.00003
  73    C  3  py     Ryd( 4p)     0.00040     0.00000
  74    C  3  pz     Val( 2p)     0.98391     0.06441
  75    C  3  pz     Ryd( 3p)     0.00339     0.00183
  76    C  3  pz     Ryd( 4p)     0.00032     0.00021
  77    C  3  dxy    Ryd( 3d)     0.00099     0.00000
  78    C  3  dxy    Ryd( 4d)     0.00050     0.00001
  79    C  3  dxz    Ryd( 3d)     0.00080     0.00042
  80    C  3  dxz    Ryd( 4d)     0.00011     0.00003
  81    C  3  dyz    Ryd( 3d)     0.00140    -0.00002
  82    C  3  dyz    Ryd( 4d)     0.00006     0.00001
  83    C  3  dx2y2  Ryd( 3d)     0.00038    -0.00001
  84    C  3  dx2y2  Ryd( 4d)     0.00091     0.00000
  85    C  3  dz2    Ryd( 3d)     0.00054    -0.00001
  86    C  3  dz2    Ryd( 4d)     0.00009     0.00000
  87    C  3  f(0)   Ryd( 4f)     0.00042     0.00007
  88    C  3  f(c1)  Ryd( 4f)     0.00046    -0.00001
  89    C  3  f(s1)  Ryd( 4f)     0.00024     0.00000
  90    C  3  f(c2)  Ryd( 4f)     0.00001     0.00000
  91    C  3  f(s2)  Ryd( 4f)     0.00005     0.00004
  92    C  3  f(c3)  Ryd( 4f)     0.00011     0.00000
  93    C  3  f(s3)  Ryd( 4f)     0.00033    -0.00001

  94    C  4  s      Cor( 1s)     1.99999     0.00000
  95    C  4  s      Val( 2s)     0.96381    -0.00197
  96    C  4  s      Ryd( 3s)     0.00142     0.00004
  97    C  4  s      Ryd( 4s)     0.00011     0.00000
  98    C  4  s      Ryd( 5s)     0.00000     0.00000
  99    C  4  px     Val( 2p)     1.12903    -0.00073
 100    C  4  px     Ryd( 3p)     0.00319     0.00010
 101    C  4  px     Ryd( 4p)     0.00035     0.00000
 102    C  4  py     Val( 2p)     1.08972    -0.00387
 103    C  4  py     Ryd( 3p)     0.00293    -0.00007
 104    C  4  py     Ryd( 4p)     0.00026    -0.00001
 105    C  4  pz     Val( 2p)     1.16069     0.02592
 106    C  4  pz     Ryd( 3p)     0.00685     0.00354
 107    C  4  pz     Ryd( 4p)     0.00019     0.00005
 108    C  4  dxy    Ryd( 3d)     0.00113     0.00001
 109    C  4  dxy    Ryd( 4d)     0.00031     0.00000
 110    C  4  dxz    Ryd( 3d)     0.00040     0.00008
 111    C  4  dxz    Ryd( 4d)     0.00005     0.00000
 112    C  4  dyz    Ryd( 3d)     0.00052     0.00037
 113    C  4  dyz    Ryd( 4d)     0.00011     0.00002
 114    C  4  dx2y2  Ryd( 3d)     0.00102    -0.00001
 115    C  4  dx2y2  Ryd( 4d)     0.00017     0.00000
 116    C  4  dz2    Ryd( 3d)     0.00142     0.00000
 117    C  4  dz2    Ryd( 4d)     0.00003     0.00000
 118    C  4  f(0)   Ryd( 4f)     0.00065     0.00010
 119    C  4  f(c1)  Ryd( 4f)     0.00052     0.00000
 120    C  4  f(s1)  Ryd( 4f)     0.00050    -0.00001
 121    C  4  f(c2)  Ryd( 4f)     0.00005     0.00003
 122    C  4  f(s2)  Ryd( 4f)     0.00003     0.00000
 123    C  4  f(c3)  Ryd( 4f)     0.00015     0.00000
 124    C  4  f(s3)  Ryd( 4f)     0.00048     0.00000

 125    C  5  s      Cor( 1s)     1.99999     0.00000
 126    C  5  s      Val( 2s)     0.94733     0.00765
 127    C  5  s      Ryd( 3s)     0.00120     0.00001
 128    C  5  s      Ryd( 4s)     0.00004    -0.00001
 129    C  5  s      Ryd( 5s)     0.00000     0.00000
 130    C  5  px     Val( 2p)     1.12323     0.00966
 131    C  5  px     Ryd( 3p)     0.00470     0.00002
 132    C  5  px     Ryd( 4p)     0.00051     0.00001
 133    C  5  py     Val( 2p)     1.07147     0.00836
 134    C  5  py     Ryd( 3p)     0.00456     0.00007
 135    C  5  py     Ryd( 4p)     0.00045     0.00000
 136    C  5  pz     Val( 2p)     1.19096     0.29357
 137    C  5  pz     Ryd( 3p)     0.01223     0.01088
 138    C  5  pz     Ryd( 4p)     0.00033     0.00030
 139    C  5  dxy    Ryd( 3d)     0.00055     0.00001
 140    C  5  dxy    Ryd( 4d)     0.00039     0.00000
 141    C  5  dxz    Ryd( 3d)     0.00027     0.00004
 142    C  5  dxz    Ryd( 4d)     0.00014     0.00005
 143    C  5  dyz    Ryd( 3d)     0.00021     0.00003
 144    C  5  dyz    Ryd( 4d)     0.00016     0.00003
 145    C  5  dx2y2  Ryd( 3d)     0.00117    -0.00003
 146    C  5  dx2y2  Ryd( 4d)     0.00024     0.00000
 147    C  5  dz2    Ryd( 3d)     0.00116    -0.00004
 148    C  5  dz2    Ryd( 4d)     0.00003     0.00000
 149    C  5  f(0)   Ryd( 4f)     0.00067     0.00035
 150    C  5  f(c1)  Ryd( 4f)     0.00052    -0.00002
 151    C  5  f(s1)  Ryd( 4f)     0.00047    -0.00002
 152    C  5  f(c2)  Ryd( 4f)     0.00002     0.00001
 153    C  5  f(s2)  Ryd( 4f)     0.00005     0.00003
 154    C  5  f(c3)  Ryd( 4f)     0.00014     0.00000
 155    C  5  f(s3)  Ryd( 4f)     0.00045    -0.00001

 156    C  6  s      Cor( 1s)     1.99999     0.00000
 157    C  6  s      Val( 2s)     0.96105    -0.00435
 158    C  6  s      Ryd( 3s)     0.00087     0.00002
 159    C  6  s      Ryd( 4s)     0.00002     0.00000
 160    C  6  s      Ryd( 5s)     0.00000     0.00000
 161    C  6  px     Val( 2p)     1.05554    -0.00773
 162    C  6  px     Ryd( 3p)     0.00370    -0.00010
 163    C  6  px     Ryd( 4p)     0.00016     0.00000
 164    C  6  py     Val( 2p)     1.15287    -0.00309
 165    C  6  py     Ryd( 3p)     0.00444     0.00007
 166    C  6  py     Ryd( 4p)     0.00019     0.00000
 167    C  6  pz     Val( 2p)     1.06016    -0.04753
 168    C  6  pz     Ryd( 3p)     0.00294     0.00010
 169    C  6  pz     Ryd( 4p)     0.00026    -0.00002
 170    C  6  dxy    Ryd( 3d)     0.00136     0.00001
 171    C  6  dxy    Ryd( 4d)     0.00019     0.00000
 172    C  6  dxz    Ryd( 3d)     0.00051     0.00039
 173    C  6  dxz    Ryd( 4d)     0.00008    -0.00001
 174    C  6  dyz    Ryd( 3d)     0.00025     0.00000
 175    C  6  dyz    Ryd( 4d)     0.00007     0.00001
 176    C  6  dx2y2  Ryd( 3d)     0.00051    -0.00001
 177    C  6  dx2y2  Ryd( 4d)     0.00041     0.00000
 178    C  6  dz2    Ryd( 3d)     0.00112     0.00000
 179    C  6  dz2    Ryd( 4d)     0.00005     0.00000
 180    C  6  f(0)   Ryd( 4f)     0.00042    -0.00001
 181    C  6  f(c1)  Ryd( 4f)     0.00043     0.00000
 182    C  6  f(s1)  Ryd( 4f)     0.00054     0.00000
 183    C  6  f(c2)  Ryd( 4f)     0.00003     0.00000
 184    C  6  f(s2)  Ryd( 4f)     0.00004     0.00003
 185    C  6  f(c3)  Ryd( 4f)     0.00014     0.00000
 186    C  6  f(s3)  Ryd( 4f)     0.00045     0.00000

 187    C  7  s      Cor( 1s)     1.99999     0.00000
 188    C  7  s      Val( 2s)     0.95574     0.00368
 189    C  7  s      Ryd( 4s)     0.00109     0.00000
 190    C  7  s      Ryd( 3s)     0.00006     0.00000
 191    C  7  s      Ryd( 5s)     0.00000     0.00000
 192    C  7  px     Val( 2p)     1.14533     0.00606
 193    C  7  px     Ryd( 3p)     0.00368     0.00002
 194    C  7  px     Ryd( 4p)     0.00040     0.00001
 195    C  7  py     Val( 2p)     1.04867     0.00328
 196    C  7  py     Ryd( 3p)     0.00453     0.00000
 197    C  7  py     Ryd( 4p)     0.00031     0.00000
 198    C  7  pz     Val( 2p)     1.08668     0.17852
 199    C  7  pz     Ryd( 3p)     0.00738     0.00600
 200    C  7  pz     Ryd( 4p)     0.00036     0.00032
 201    C  7  dxy    Ryd( 3d)     0.00069     0.00001
 202    C  7  dxy    Ryd( 4d)     0.00041     0.00001
 203    C  7  dxz    Ryd( 3d)     0.00029     0.00004
 204    C  7  dxz    Ryd( 4d)     0.00007     0.00000
 205    C  7  dyz    Ryd( 3d)     0.00038     0.00012
 206    C  7  dyz    Ryd( 4d)     0.00010     0.00001
 207    C  7  dx2y2  Ryd( 3d)     0.00115    -0.00003
 208    C  7  dx2y2  Ryd( 4d)     0.00033     0.00000
 209    C  7  dz2    Ryd( 3d)     0.00123    -0.00002
 210    C  7  dz2    Ryd( 4d)     0.00003     0.00000
 211    C  7  f(0)   Ryd( 4f)     0.00051     0.00020
 212    C  7  f(c1)  Ryd( 4f)     0.00054    -0.00001
 213    C  7  f(s1)  Ryd( 4f)     0.00046    -0.00002
 214    C  7  f(c2)  Ryd( 4f)     0.00005     0.00003
 215    C  7  f(s2)  Ryd( 4f)     0.00002     0.00000
 216    C  7  f(c3)  Ryd( 4f)     0.00020     0.00000
 217    C  7  f(s3)  Ryd( 4f)     0.00046    -0.00001

 218    C  8  s      Cor( 1s)     1.99999     0.00000
 219    C  8  s      Val( 2s)     0.92755     0.00123
 220    C  8  s      Ryd( 3s)     0.00190     0.00004
 221    C  8  s      Ryd( 4s)     0.00017     0.00000
 222    C  8  s      Ryd( 5s)     0.00000     0.00000
 223    C  8  px     Val( 2p)     1.06023     0.00066
 224    C  8  px     Ryd( 3p)     0.00544     0.00006
 225    C  8  px     Ryd( 4p)     0.00053    -0.00001
 226    C  8  py     Val( 2p)     1.08781     0.00079
 227    C  8  py     Ryd( 3p)     0.00489     0.00007
 228    C  8  py     Ryd( 4p)     0.00038    -0.00001
 229    C  8  pz     Val( 2p)     1.21900     0.14900
 230    C  8  pz     Ryd( 3p)     0.00856     0.00628
 231    C  8  pz     Ryd( 4p)     0.00026     0.00016
 232    C  8  dxy    Ryd( 3d)     0.00099    -0.00001
 233    C  8  dxy    Ryd( 4d)     0.00038     0.00000
 234    C  8  dxz    Ryd( 3d)     0.00066     0.00042
 235    C  8  dxz    Ryd( 4d)     0.00017     0.00000
 236    C  8  dyz    Ryd( 3d)     0.00041     0.00018
 237    C  8  dyz    Ryd( 4d)     0.00017     0.00004
 238    C  8  dx2y2  Ryd( 3d)     0.00102    -0.00002
 239    C  8  dx2y2  Ryd( 4d)     0.00017    -0.00001
 240    C  8  dz2    Ryd( 3d)     0.00102    -0.00002
 241    C  8  dz2    Ryd( 4d)     0.00003     0.00000
 242    C  8  f(0)   Ryd( 4f)     0.00083     0.00027
 243    C  8  f(c1)  Ryd( 4f)     0.00053    -0.00002
 244    C  8  f(s1)  Ryd( 4f)     0.00053    -0.00002
 245    C  8  f(c2)  Ryd( 4f)     0.00006     0.00000
 246    C  8  f(s2)  Ryd( 4f)     0.00003     0.00001
 247    C  8  f(c3)  Ryd( 4f)     0.00010     0.00000
 248    C  8  f(s3)  Ryd( 4f)     0.00055    -0.00001

 249    C  9  s      Cor( 1s)     1.99999     0.00000
 250    C  9  s      Val( 2s)     0.78895     0.00191
 251    C  9  s      Ryd( 3s)     0.00649    -0.00001
 252    C  9  s      Ryd( 4s)     0.00063     0.00002
 253    C  9  s      Ryd( 5s)     0.00001     0.00000
 254    C  9  px     Val( 2p)     0.83939     0.00139
 255    C  9  px     Ryd( 3p)     0.00486    -0.00012
 256    C  9  px     Ryd( 4p)     0.00036    -0.00001
 257    C  9  py     Val( 2p)     0.77786     0.00315
 258    C  9  py     Ryd( 4p)     0.01711    -0.00017
 259    C  9  py     Ryd( 3p)     0.00037     0.00000
[...]
   66. RY ( 3) C  1             0.00071     1.11034
   67. RY ( 4) C  1             0.00012     1.19219
   68. RY ( 5) C  1             0.00011     1.58441
   69. RY ( 6) C  1             0.00005     2.06818
   70. RY ( 7) C  1             0.00002     1.37223
   71. RY ( 8) C  1             0.00001     1.99008
   72. RY ( 9) C  1             0.00000     2.71562
   73. RY (10) C  1             0.00000     1.68928
   74. RY (11) C  1             0.00000     3.44906
   75. RY (12) C  1             0.00000     2.70195
   76. RY (13) C  1             0.00000     2.93851
   77. RY (14) C  1             0.00000     3.49156
   78. RY (15) C  1             0.00000     2.23797
   79. RY (16) C  1             0.00000     3.62502
   80. RY (17) C  1             0.00000     3.92730
   81. RY (18) C  1             0.00000     8.26733
   82. RY (19) C  1             0.00000     3.10592
   83. RY (20) C  1             0.00000     3.42709
   84. RY (21) C  1             0.00000    11.02242
   85. RY (22) C  1             0.00000     3.41652
   86. RY (23) C  1             0.00000     3.04469
   87. RY (24) C  1             0.00000     3.61028
   88. RY (25) C  1             0.00000     4.38107
   89. RY (26) C  1             0.00000     3.86438
   90. RY ( 1) O  2             0.00242     0.86214
   91. RY ( 2) O  2             0.00185     1.06741
   92. RY ( 3) O  2             0.00042     1.49503
   93. RY ( 4) O  2             0.00013     2.33627
   94. RY ( 5) O  2             0.00007     4.35802
   95. RY ( 6) O  2             0.00005     2.41083
   96. RY ( 7) O  2             0.00003     2.75344
   97. RY ( 8) O  2             0.00002     2.20095
   98. RY ( 9) O  2             0.00002     5.88734
   99. RY (10) O  2             0.00001     4.21847
  100. RY (11) O  2             0.00001     4.41930
  101. RY (12) O  2             0.00000     5.12084
  102. RY (13) O  2             0.00000     4.70995
  103. RY (14) O  2             0.00000     5.02088
  104. RY (15) O  2             0.00000    17.59538
  105. RY (16) O  2             0.00000     4.36559
  106. RY (17) O  2             0.00000     5.98701
  107. RY (18) O  2             0.00000     5.53473
  108. RY (19) O  2             0.00000    20.78220
  109. RY (20) O  2             0.00000     6.62760
  110. RY (21) O  2             0.00000     5.54809
  111. RY (22) O  2             0.00000    11.96412
  112. RY (23) O  2             0.00000     6.51431
  113. RY (24) O  2             0.00000     5.11536
  114. RY (25) O  2             0.00000     5.94687
  115. RY (26) O  2             0.00000     6.53440
  116. RY ( 1) C  3             0.00290     1.62965
  117. RY ( 2) C  3             0.00168     1.54167
  118. RY ( 3) C  3             0.00113     1.61885
  119. RY ( 4) C  3             0.00094     2.03387
  120. RY ( 5) C  3             0.00040     1.60706
  121. RY ( 6) C  3             0.00026     2.54307
  122. RY ( 7) C  3             0.00024     2.83667
  123. RY ( 8) C  3             0.00020     2.96354
  124. RY ( 9) C  3             0.00011     2.82202
  125. RY (10) C  3             0.00007     2.28843
  126. RY (11) C  3             0.00005     3.08014
  127. RY (12) C  3             0.00002     3.51609
  128. RY (13) C  3             0.00001     2.86454
  129. RY (14) C  3             0.00001     2.88374
  130. RY (15) C  3             0.00001     3.22728
  131. RY (16) C  3             0.00001     3.10022
  132. RY (17) C  3             0.00000     3.47310
  133. RY (18) C  3             0.00000     3.74055
  134. RY (19) C  3             0.00000     3.84184
  135. RY (20) C  3             0.00000     4.54395
  136. RY (21) C  3             0.00000     9.84704
  137. RY (22) C  3             0.00000     3.67893
  138. RY (23) C  3             0.00000     3.56708
  139. RY (24) C  3             0.00000     3.71607
  140. RY (25) C  3             0.00000     3.71806
  141. RY (26) C  3             0.00000    10.71869
  142. RY ( 1) C  4             0.00164     1.70311
  143. RY ( 2) C  4             0.00107     0.61838
  144. RY ( 3) C  4             0.00089     1.48299
  145. RY ( 4) C  4             0.00043     1.31103
  146. RY ( 5) C  4             0.00014     2.56180
  147. RY ( 6) C  4             0.00013     2.37152
  148. RY ( 7) C  4             0.00009     2.20131
  149. RY ( 8) C  4             0.00008     3.26140
  150. RY ( 9) C  4             0.00004     2.50179
  151. RY (10) C  4             0.00001     2.73562
  152. RY (11) C  4             0.00001     3.10364
  153. RY (12) C  4             0.00001     2.53061
  154. RY (13) C  4             0.00000     2.07186
  155. RY (14) C  4             0.00000     2.71156
  156. RY (15) C  4             0.00000     5.31657
  157. RY (16) C  4             0.00000    15.66409
  158. RY (17) C  4             0.00000     3.36014
  159. RY (18) C  4             0.00000     3.37556
  160. RY (19) C  4             0.00000     5.24622
  161. RY (20) C  4             0.00000     3.59909
  162. RY (21) C  4             0.00000     2.65689
  163. RY (22) C  4             0.00000     3.56541
  164. RY (23) C  4             0.00000     3.49305
  165. RY (24) C  4             0.00000     3.34211
  166. RY (25) C  4             0.00000     3.99779
  167. RY (26) C  4             0.00000     3.39659
  168. RY ( 1) C  5             0.00247     1.65519
  169. RY ( 2) C  5             0.00087     1.44354
  170. RY ( 3) C  5             0.00068     0.64061
  171. RY ( 4) C  5             0.00033     1.37437
  172. RY ( 5) C  5             0.00019     3.46039
  173. RY ( 6) C  5             0.00016     3.38820
  174. RY ( 7) C  5             0.00004     2.68885
  175. RY ( 8) C  5             0.00001     2.30508
  176. RY ( 9) C  5             0.00001     2.92236
  177. RY (10) C  5             0.00000     1.64537
  178. RY (11) C  5             0.00000     2.85399
  179. RY (12) C  5             0.00000     3.07928
  180. RY (13) C  5             0.00000     4.34984
  181. RY (14) C  5             0.00000     9.23897
  182. RY (15) C  5             0.00000     1.86780
  183. RY (16) C  5             0.00000     3.41985
  184. RY (17) C  5             0.00000     3.75481
  185. RY (18) C  5             0.00000     3.65606
  186. RY (19) C  5             0.00000     3.35098
  187. RY (20) C  5             0.00000     3.50302
  188. RY (21) C  5             0.00000     5.70780
  189. RY (22) C  5             0.00000     5.37634
  190. RY (23) C  5             0.00000     3.78341
  191. RY (24) C  5             0.00000     3.31063
  192. RY (25) C  5             0.00000     3.74895
  193. RY (26) C  5             0.00000     5.58050
  194. RY ( 1) C  6             0.00233     1.70450
  195. RY ( 2) C  6             0.00091     0.64482
  196. RY ( 3) C  6             0.00075     1.49824
  197. RY ( 4) C  6             0.00024     1.62040
  198. RY ( 5) C  6             0.00013     3.34189
  199. RY ( 6) C  6             0.00012     3.36852
  200. RY ( 7) C  6             0.00005     2.57380
  201. RY ( 8) C  6             0.00001     1.98899
  202. RY ( 9) C  6             0.00001     2.70924
  203. RY (10) C  6             0.00000     2.82796
  204. RY (11) C  6             0.00000     1.68923
  205. RY (12) C  6             0.00000     3.07860
  206. RY (13) C  6             0.00000     3.12758
  207. RY (14) C  6             0.00000     8.19908
  208. RY (15) C  6             0.00000    10.74423
  209. RY (16) C  6             0.00000     1.97702
  210. RY (17) C  6             0.00000     4.77920
  211. RY (18) C  6             0.00000     3.40718
  212. RY (19) C  6             0.00000     4.19845
  213. RY (20) C  6             0.00000     3.39993
  214. RY (21) C  6             0.00000     3.77109
  215. RY (22) C  6             0.00000     3.27598
  216. RY (23) C  6             0.00000     3.31208
  217. RY (24) C  6             0.00000     3.35255
  218. RY (25) C  6             0.00000     3.66655
  219. RY (26) C  6             0.00000     4.49400
  220. RY ( 1) C  7             0.00245     1.74514
  221. RY ( 2) C  7             0.00097     1.46807
  222. RY ( 3) C  7             0.00061     0.72380
  223. RY ( 4) C  7             0.00034     1.87509
  224. RY ( 5) C  7             0.00020     3.12610
  225. RY ( 6) C  7             0.00019     3.45621
  226. RY ( 7) C  7             0.00005     2.43018
  227. RY ( 8) C  7             0.00004     2.74316
  228. RY ( 9) C  7             0.00002     3.29545
  229. RY (10) C  7             0.00002     1.68321
  230. RY (11) C  7             0.00001     2.27808
  231. RY (12) C  7             0.00001     2.73237
  232. RY (13) C  7             0.00000     2.79894
  233. RY (14) C  7             0.00000     2.36620
  234. RY (15) C  7             0.00000     4.01831
  235. RY (16) C  7             0.00000     2.69377
  236. RY (17) C  7             0.00000     3.42071
  237. RY (18) C  7             0.00000     5.45211
  238. RY (19) C  7             0.00000     5.12207
  239. RY (20) C  7             0.00000     4.82756
  240. RY (21) C  7             0.00000     3.39602
  241. RY (22) C  7             0.00000     9.66456
  242. RY (23) C  7             0.00000     4.27119
  243. RY (24) C  7             0.00000     3.86133
  244. RY (25) C  7             0.00000     3.20162
  245. RY (26) C  7             0.00000     3.86816
  246. RY ( 1) C  8             0.00293     1.44077
  247. RY ( 2) C  8             0.00180     1.46393
  248. RY ( 3) C  8             0.00111     0.77124
  249. RY ( 4) C  8             0.00070     1.76117
  250. RY ( 5) C  8             0.00022     2.86758
  251. RY ( 6) C  8             0.00017     2.42711
  252. RY ( 7) C  8             0.00016     2.37168
  253. RY ( 8) C  8             0.00012     3.52254
  254. RY ( 9) C  8             0.00011     3.09763
  255. RY (10) C  8             0.00011     3.26456
  256. RY (11) C  8             0.00009     2.17275
  257. RY (12) C  8             0.00007     2.38830
  258. RY (13) C  8             0.00004     3.13644
  259. RY (14) C  8             0.00002     3.82716
  260. RY (15) C  8             0.00001     4.21338
  261. RY (16) C  8             0.00001     3.23546
  262. RY (17) C  8             0.00000     4.32124
  263. RY (18) C  8             0.00000     3.32713
  264. RY (19) C  8             0.00000    16.45269
  265. RY (20) C  8             0.00000     4.82319
  266. RY (21) C  8             0.00000     3.38211
  267. RY (22) C  8             0.00000     3.53850
  268. RY (23) C  8             0.00000     4.20037
  269. RY (24) C  8             0.00000     4.06993
  270. RY (25) C  8             0.00000     3.45726
  271. RY (26) C  8             0.00000     4.29804
  272. RY ( 1) C  9             0.00863     1.48175
  273. RY ( 2) C  9             0.00381     1.85494
  274. RY ( 3) C  9             0.00133     2.33718
  275. RY ( 4) C  9             0.00111     2.66644
  276. RY ( 5) C  9             0.00040     2.12374
  277. RY ( 6) C  9             0.00030     3.15120
  278. RY ( 7) C  9             0.00025     3.32482
  279. RY ( 8) C  9             0.00009     1.86783
  280. RY ( 9) C  9             0.00007     1.52315
  281. RY (10) C  9             0.00003     2.03654
  282. RY (11) C  9             0.00002     2.88459
  283. RY (12) C  9             0.00001     1.74490
  284. RY (13) C  9             0.00001     2.51811
  285. RY (14) C  9             0.00000     3.58357
  286. RY (15) C  9             0.00000     2.20149
  287. RY (16) C  9             0.00000     2.00031
  288. RY (17) C  9             0.00000     5.61292
  289. RY (18) C  9             0.00000     9.20727
  290. RY (19) C  9             0.00000     4.63387
  291. RY (20) C  9             0.00000     4.46837
  292. RY (21) C  9             0.00000     3.90209
  293. RY (22) C  9             0.00000     8.35569
  294. RY (23) C  9             0.00000     3.72601
  295. RY (24) C  9             0.00000     3.82055
  296. RY (25) C  9             0.00000     3.69355
  297. RY (26) C  9             0.00000     4.55919
  298. RY ( 1) O 10             0.00123     1.14255
  299. RY ( 2) O 10             0.00043     0.98100
  300. RY ( 3) O 10             0.00010     2.60283
  301. RY ( 4) O 10             0.00008     1.73309
  302. RY ( 5) O 10             0.00005     2.06631
  303. RY ( 6) O 10             0.00002     3.05419
  304. RY ( 7) O 10             0.00002     3.37969
  305. RY ( 8) O 10             0.00001     2.15002
  306. RY ( 9) O 10             0.00000     3.28645
  307. RY (10) O 10             0.00000     5.10790
  308. RY (11) O 10             0.00000     3.79307
  309. RY (12) O 10             0.00000     2.47493
  310. RY (13) O 10             0.00000     5.04746
  311. RY (14) O 10             0.00000     6.63429
  312. RY (15) O 10             0.00000    20.97403
  313. RY (16) O 10             0.00000     6.14864
  314. RY (17) O 10             0.00000     6.02659
  315. RY (18) O 10             0.00000     7.91616
  316. RY (19) O 10             0.00000    12.34337
  317. RY (20) O 10             0.00000     6.21368
  318. RY (21) O 10             0.00000    11.56178
  319. RY (22) O 10             0.00000     8.40510
  320. RY (23) O 10             0.00000     7.69529
  321. RY (24) O 10             0.00000     5.93833
  322. RY (25) O 10             0.00000     6.07895
  323. RY (26) O 10             0.00000     5.20691
  324. RY ( 1) O 11             0.00055     1.50919
  325. RY ( 2) O 11             0.00051     0.94021
  326. RY ( 3) O 11             0.00044     2.41941
  327. RY ( 4) O 11             0.00008     1.82500
  328. RY ( 5) O 11             0.00007     1.55823
  329. RY ( 6) O 11             0.00002     2.86914
  330. RY ( 7) O 11             0.00002     3.82491
  331. RY ( 8) O 11             0.00000     3.36215
  332. RY ( 9) O 11             0.00000     3.13673
  333. RY (10) O 11             0.00000     3.29386
  334. RY (11) O 11             0.00000     4.18400
  335. RY (12) O 11             0.00000     7.80583
  336. RY (13) O 11             0.00000    18.20325
  337. RY (14) O 11             0.00000     2.76108
  338. RY (15) O 11             0.00000     6.11469
  339. RY (16) O 11             0.00000     8.30396
  340. RY (17) O 11             0.00000     6.35345
  341. RY (18) O 11             0.00000     5.37190
  342. RY (19) O 11             0.00000     5.41459
  343. RY (20) O 11             0.00000     5.59927
  344. RY (21) O 11             0.00000     6.03934
  345. RY (22) O 11             0.00000    20.09180
  346. RY (23) O 11             0.00000     5.75300
  347. RY (24) O 11             0.00000     6.35333
  348. RY (25) O 11             0.00000     8.90042
  349. RY (26) O 11             0.00000     4.39646
  350. RY ( 1) H 12             0.00098     0.60899
  351. RY ( 2) H 12             0.00005     2.32634
  352. RY ( 3) H 12             0.00002     2.29229
  353. RY ( 4) H 12             0.00001     2.38633
  354. RY ( 5) H 12             0.00000     2.77929
  355. RY ( 1) H 13             0.00099     0.60888
  356. RY ( 2) H 13             0.00005     2.32665
  357. RY ( 3) H 13             0.00002     2.29194
  358. RY ( 4) H 13             0.00001     2.39030
  359. RY ( 5) H 13             0.00000     2.77436
  360. RY ( 1) H 14             0.00021     0.91048
  361. RY ( 2) H 14             0.00003     2.22980
  362. RY ( 3) H 14             0.00002     2.21375
  363. RY ( 4) H 14             0.00001     2.27237
  364. RY ( 5) H 14             0.00000     2.63344
  365. RY ( 1) H 15             0.00045     0.82298
  366. RY ( 2) H 15             0.00007     2.31587
  367. RY ( 3) H 15             0.00005     2.11258
  368. RY ( 4) H 15             0.00002     2.67282
  369. RY ( 5) H 15             0.00000     3.10148
  370. RY ( 1) H 16             0.00041     0.61984
  371. RY ( 2) H 16             0.00004     2.32343
  372. RY ( 3) H 16             0.00004     2.31822
  373. RY ( 4) H 16             0.00002     2.67903
  374. RY ( 5) H 16             0.00000     3.06571
  375. RY ( 1) H 17             0.00026     0.67197
  376. RY ( 2) H 17             0.00006     2.30940
  377. RY ( 3) H 17             0.00005     2.27263
  378. RY ( 4) H 17             0.00002     2.66245
  379. RY ( 5) H 17             0.00000     3.06201
  380. RY ( 1) H 18             0.00026     0.99959
  381. RY ( 2) H 18             0.00006     2.00035
  382. RY ( 3) H 18             0.00003     2.33346
  383. RY ( 4) H 18             0.00002     2.72550
  384. RY ( 5) H 18             0.00000     3.09070
  385. RY ( 1) H 19             0.00203     0.62761
  386. RY ( 2) H 19             0.00035     2.12337
  387. RY ( 3) H 19             0.00026     2.14685
  388. RY ( 4) H 19             0.00007     2.40224
  389. RY ( 5) H 19             0.00000     3.49900
          -------------------------------
                 Total Lewis   39.07585  ( 97.6896%)
           Valence non-Lewis    0.85440  (  2.1360%)
           Rydberg non-Lewis    0.06975  (  0.1744%)
          -------------------------------
               Total unit  1   40.00000  (100.0000%)
              Charge unit  1    0.00000

 $CHOOSE
  ALPHA
   LONE 2 2 5 1 10 3 11 2 END
   BOND S 1 2 S 1 12 S 1 13 S 1 14 S 2 3 D 3 4 S 3 8 S 4 5 S 4 15 S 5 6 S 5 16
        D 6 7 S 6 17 S 7 8 S 7 18 D 8 9 S 9 10 S 9 11 S 11 19 END
  END
  BETA
   LONE 2 2 10 2 11 2 END
   BOND S 1 2 S 1 12 S 1 13 S 1 14 S 2 3 D 3 4 S 3 8 S 4 5 S 4 15 D 5 6 S 5 16
        S 6 7 S 6 17 D 7 8 S 7 18 S 8 9 D 9 10 S 9 11 S 11 19 END
  END
 $END

 NBO analysis completed in 6.00 CPU seconds (6 wall seconds)
 Maximum scratch memory used by NBO was 1738613 words (13.26 MB)
 Maximum scratch memory used by G16NBO was 313135 words (2.39 MB)

 Opening RunExU unformatted file "/tmp/Gau-1833507.EUF"
 Read unf file /tmp/Gau-1833507.EUF:
 Label Gaussian matrix elements                                         IVers= 2 NLab= 2 Version=AS64L-G16RevC.01
 Title Ac4_rdkit_conf_1_SP_charge_n                                    
 NAtoms=    19 NBasis=   389 NBsUse=   389 ICharg=    -1 Multip=     2 NE=    81 Len12L=8 Len4L=8 IOpCl= 1 ICGU=112
 GAUSSIAN SCALARS                    NI= 1 NR= 1 NTot=       1 LenBuf=    2 NRI=1 N=    1000
 NPA CHARGES                         NI= 0 NR= 1 NTot=      19 LenBuf= 2048 NRI=1 N=      19
 Recovered energy= -535.323802928     dipole=      0.700018300217     -0.442627810120      0.100269883077
 Unable to Open any file for archive entry.
 1\1\GINC-NODE07\SP\UM062X\def2TZVP\C8H8O3(1-,2)\SVSS\29-Jan-2024\0\\# 
 pop=(nbo6, hirshfeld) m062x/def2tzvp\\Ac4_rdkit_conf_1_SP_charge_n\\-1
 ,2\C,0,-2.046496,-2.260665,-0.056193\O,0,-0.784718,-1.631211,-0.033646
 \C,0,-0.733371,-0.290984,-0.003777\C,0,-1.87575,0.510929,0.002664\C,0,
 -1.762951,1.892223,0.021712\C,0,-0.519669,2.503674,0.029674\C,0,0.6159
 52,1.71255,0.019679\C,0,0.535641,0.322156,0.008315\C,0,1.784342,-0.483
 754,0.024025\O,0,1.877819,-1.667923,0.183657\O,0,2.884264,0.286644,-0.
 158218\H,0,-2.626459,-2.017476,0.837681\H,0,-2.614323,-1.979204,-0.946
 801\H,0,-1.843925,-3.327508,-0.077149\H,0,-2.856661,0.060901,-0.007641
 \H,0,-2.663958,2.492495,0.028658\H,0,-0.434248,3.581107,0.043235\H,0,1
 .595222,2.168712,0.024987\H,0,3.639243,-0.315885,-0.113899\\Version=AS
 64L-G16RevC.01\State=2-A\HF=-535.3238029\S2=0.762574\S2-1=0.\S2A=0.750
 088\RMSD=8.636e-09\Dipole=-0.7000182,-0.4426279,-0.1002699\Quadrupole=
 1.7606579,-4.6554194,2.8947615,6.3432831,-0.2094595,0.787459\PG=C01 [X
 (C8H8O3)]\\@
 The archive entry for this job was punched.


 EVERYTHING'S GOT A MORAL, IF ONLY YOU CAN FIND IT.

                                    -- LEWIS CARROL, ALICE IN WONDERLAND
 Job cpu time:       0 days  0 hours 33 minutes  2.5 seconds.
 Elapsed time:       0 days  0 hours  4 minutes 21.9 seconds.
 File lengths (MBytes):  RWF=    149 Int=      0 D2E=      0 Chk=     12 Scr=      1
 Normal termination of Gaussian 16 at Mon Jan 29 15:34:59 2024.
