Job Start Time: Mon Jan 29 15:30:52 MST 2024
SLURM Job ID: 229858
SLURM Job Name: Ac4_rdkit_conf_3_SP_charge_p
 Entering Gaussian System, Link 0=/opt/apps/Gaussian/G16C/g16/g16
 Initial command:
 /opt/apps/Gaussian/G16C/g16/l1.exe "/tmp/Gau-588535.inp" -scrdir="/tmp/"
 Entering Link 1 = /opt/apps/Gaussian/G16C/g16/l1.exe PID=    588537.
  
 Copyright (c) 1988-2019, Gaussian, Inc.  All Rights Reserved.
  
 This is part of the Gaussian(R) 16 program.  It is based on
 the Gaussian(R) 09 system (copyright 2009, Gaussian, Inc.),
 the Gaussian(R) 03 system (copyright 2003, Gaussian, Inc.),
 the Gaussian(R) 98 system (copyright 1998, Gaussian, Inc.),
 the Gaussian(R) 94 system (copyright 1995, Gaussian, Inc.),
 the Gaussian 92(TM) system (copyright 1992, Gaussian, Inc.),
 the Gaussian 90(TM) system (copyright 1990, Gaussian, Inc.),
 the Gaussian 88(TM) system (copyright 1988, Gaussian, Inc.),
 the Gaussian 86(TM) system (copyright 1986, Carnegie Mellon
 University), and the Gaussian 82(TM) system (copyright 1983,
 Carnegie Mellon University). Gaussian is a federally registered
 trademark of Gaussian, Inc.
  
 This software contains proprietary and confidential information,
 including trade secrets, belonging to Gaussian, Inc.
  
 This software is provided under written license and may be
 used, copied, transmitted, or stored only in accord with that
 written license.
  
 The following legend is applicable only to US Government
 contracts under FAR:
  
                    RESTRICTED RIGHTS LEGEND
  
 Use, reproduction and disclosure by the US Government is
 subject to restrictions as set forth in subparagraphs (a)
 and (c) of the Commercial Computer Software - Restricted
 Rights clause in FAR 52.227-19.
  
 Gaussian, Inc.
 340 Quinnipiac St., Bldg. 40, Wallingford CT 06492
  
  
 ---------------------------------------------------------------
 Warning -- This program may not be used in any manner that
 competes with the business of Gaussian, Inc. or will provide
 assistance to any competitor of Gaussian, Inc.  The licensee
 of this program is prohibited from giving any competitor of
 Gaussian, Inc. access to this program.  By using this program,
 the user acknowledges that Gaussian, Inc. is engaged in the
 business of creating and licensing software in the field of
 computational chemistry and represents and warrants to the
 licensee that it is not a competitor of Gaussian, Inc. and that
 it will not use this program in any manner prohibited above.
 ---------------------------------------------------------------
  

 Cite this work as:
 Gaussian 16, Revision C.01,
 M. J. Frisch, G. W. Trucks, H. B. Schlegel, G. E. Scuseria, 
 M. A. Robb, J. R. Cheeseman, G. Scalmani, V. Barone, 
 G. A. Petersson, H. Nakatsuji, X. Li, M. Caricato, A. V. Marenich, 
 J. Bloino, B. G. Janesko, R. Gomperts, B. Mennucci, H. P. Hratchian, 
 J. V. Ortiz, A. F. Izmaylov, J. L. Sonnenberg, D. Williams-Young, 
 F. Ding, F. Lipparini, F. Egidi, J. Goings, B. Peng, A. Petrone, 
 T. Henderson, D. Ranasinghe, V. G. Zakrzewski, J. Gao, N. Rega, 
 G. Zheng, W. Liang, M. Hada, M. Ehara, K. Toyota, R. Fukuda, 
 J. Hasegawa, M. Ishida, T. Nakajima, Y. Honda, O. Kitao, H. Nakai, 
 T. Vreven, K. Throssell, J. A. Montgomery, Jr., J. E. Peralta, 
 F. Ogliaro, M. J. Bearpark, J. J. Heyd, E. N. Brothers, K. N. Kudin, 
 V. N. Staroverov, T. A. Keith, R. Kobayashi, J. Normand, 
 K. Raghavachari, A. P. Rendell, J. C. Burant, S. S. Iyengar, 
 J. Tomasi, M. Cossi, J. M. Millam, M. Klene, C. Adamo, R. Cammi, 
 J. W. Ochterski, R. L. Martin, K. Morokuma, O. Farkas, 
 J. B. Foresman, and D. J. Fox, Gaussian, Inc., Wallingford CT, 2019.
 
 ******************************************
 Gaussian 16:  AS64L-G16RevC.01  3-Jul-2019
                29-Jan-2024 
 ******************************************
 %nprocshared=8
 Will use up to    8 processors via shared memory.
 %mem=16GB
 --------------------------------------
 # pop=(nbo6, hirshfeld) m062x/def2tzvp
 --------------------------------------
 1/38=1,172=1/1;
 2/12=2,17=6,18=5,40=1/2;
 3/5=44,7=101,11=2,25=1,30=1,74=-55/1,2,3;
 4//1;
 5/5=2,38=5/2;
 6/7=2,8=2,9=2,10=2,28=1,40=1,79=1,113=1,114=1,124=3103,126=1/1,12;
 99/5=1,9=1/99;
 ----------------------------
 Ac4_rdkit_conf_3_SP_charge_p
 ----------------------------
 Symbolic Z-matrix:
 Charge =  1 Multiplicity = 2
 C                     0.81887   2.56857   0.48624 
 O                     0.47873   1.71006  -0.59178 
 C                    -0.39191   0.71336  -0.26415 
 C                    -1.75258   1.0017   -0.22777 
 C                    -2.67589   0.00311   0.02705 
 C                    -2.2512   -1.30422   0.2351 
 C                    -0.90147  -1.59595   0.18956 
 C                     0.04394  -0.59595  -0.04136 
 C                     1.46906  -1.02971  -0.04837 
 O                     1.81427  -2.17055  -0.20107 
 O                     2.35493  -0.04619   0.17686 
 H                    -0.07309   3.05402   0.89168 
 H                     1.49222   3.32115   0.08363 
 H                     1.32437   2.00873   1.27541 
 H                    -2.06599   2.01851  -0.4268 
 H                    -3.73139   0.24209   0.0493 
 H                    -2.97015  -2.08964   0.42368 
 H                    -0.54211  -2.60606   0.33441 
 H                     3.22979  -0.46082   0.15887 
 
                          Input orientation:                          
 ---------------------------------------------------------------------
 Center     Atomic      Atomic             Coordinates (Angstroms)
 Number     Number       Type             X           Y           Z
 ---------------------------------------------------------------------
      1          6           0        0.818870    2.568572    0.486238
      2          8           0        0.478730    1.710061   -0.591784
      3          6           0       -0.391914    0.713364   -0.264149
      4          6           0       -1.752579    1.001698   -0.227769
      5          6           0       -2.675893    0.003110    0.027052
      6          6           0       -2.251199   -1.304215    0.235095
      7          6           0       -0.901466   -1.595949    0.189559
      8          6           0        0.043937   -0.595951   -0.041361
      9          6           0        1.469064   -1.029710   -0.048370
     10          8           0        1.814267   -2.170553   -0.201068
     11          8           0        2.354933   -0.046194    0.176857
     12          1           0       -0.073093    3.054019    0.891683
     13          1           0        1.492221    3.321149    0.083629
     14          1           0        1.324367    2.008731    1.275413
     15          1           0       -2.065986    2.018507   -0.426795
     16          1           0       -3.731391    0.242092    0.049298
     17          1           0       -2.970150   -2.089642    0.423680
     18          1           0       -0.542114   -2.606055    0.334406
     19          1           0        3.229789   -0.460822    0.158868
 ---------------------------------------------------------------------
                    Distance matrix (angstroms):
                    1          2          3          4          5
     1  C    0.000000
     2  O    1.419460   0.000000
     3  C    2.338990   1.363367   0.000000
     4  C    3.094713   2.369182   1.391355   0.000000
     5  C    4.359566   3.639819   2.409527   1.383698   0.000000
     6  C    4.948422   4.149952   2.788693   2.404184   1.390232
     7  C    4.515618   3.666762   2.407991   2.765199   2.394157
     8  C    3.300468   2.410332   1.397822   2.411369   2.785862
     9  C    3.695428   2.963512   2.558927   3.812845   4.272362
    10  O    4.891064   4.122558   3.631555   4.773498   4.993835
    11  O    3.048312   2.682420   2.883849   4.258339   5.033297
    12  H    1.093454   2.076393   2.629878   2.878518   4.102463
    13  H    1.087137   2.019641   3.235963   4.000694   5.327829
    14  H    1.091671   2.071408   2.644588   3.569491   4.645751
    15  H    3.075483   2.568646   2.128936   1.082467   2.154017
    16  H    5.129162   4.504557   3.387101   2.137631   1.082443
    17  H    6.004960   5.231031   3.870046   3.385742   2.150235
    18  H    5.352765   4.530873   3.376295   3.846706   3.384556
    19  H    3.885477   3.583928   3.830716   5.206961   5.925343
                    6          7          8          9         10
     6  C    0.000000
     7  C    1.381652   0.000000
     8  C    2.417791   1.395388   0.000000
     9  C    3.741131   2.448806   1.489692   0.000000
    10  O    4.179569   2.803206   2.374647   1.201667   0.000000
    11  O    4.775192   3.606388   2.385488   1.342682   2.224421
    12  H    4.916244   4.775079   3.769157   4.465287   5.661483
    13  H    5.952321   5.469809   4.178136   4.352922   5.508499
    14  H    4.984230   4.373457   3.187125   3.317448   4.459418
    15  H    3.393064   3.847115   3.381675   4.683098   5.714503
    16  H    2.148617   3.377357   3.868286   5.354601   6.052922
    17  H    1.081365   2.139626   3.395894   4.588345   4.825713
    18  H    2.150726   1.081864   2.127246   2.583838   2.455387
    19  H    5.546021   4.284475   3.194997   1.861917   2.248652
                   11         12         13         14         15
    11  O    0.000000
    12  H    4.002200   0.000000
    13  H    3.477350   1.781718   0.000000
    14  H    2.547863   1.786832   1.780720   0.000000
    15  H    4.916494   2.604283   3.823381   3.793692   0.000000
    16  H    6.094483   4.690383   6.063653   5.494093   2.481106
    17  H    5.709038   5.921927   7.021755   5.997082   4.291586
    18  H    3.869185   5.706748   6.271615   5.066112   4.928305
    19  H    0.968304   4.878540   4.162704   3.313004   5.876675
                   16         17         18         19
    16  H    0.000000
    17  H    2.481256   0.000000
    18  H    4.285407   2.483951   0.000000
    19  H    6.997437   6.415795   4.342821   0.000000
 Stoichiometry    C8H8O3(1+,2)
 Framework group  C1[X(C8H8O3)]
 Deg. of freedom    51
 Full point group                 C1      NOp   1
 Largest Abelian subgroup         C1      NOp   1
 Largest concise Abelian subgroup C1      NOp   1
                         Standard orientation:                         
 ---------------------------------------------------------------------
 Center     Atomic      Atomic             Coordinates (Angstroms)
 Number     Number       Type             X           Y           Z
 ---------------------------------------------------------------------
      1          6           0        0.818869    2.568572    0.486238
      2          8           0        0.478729    1.710061   -0.591784
      3          6           0       -0.391914    0.713364   -0.264149
      4          6           0       -1.752579    1.001697   -0.227769
      5          6           0       -2.675893    0.003109    0.027052
      6          6           0       -2.251199   -1.304216    0.235095
      7          6           0       -0.901466   -1.595949    0.189559
      8          6           0        0.043937   -0.595951   -0.041361
      9          6           0        1.469064   -1.029710   -0.048370
     10          8           0        1.814268   -2.170553   -0.201068
     11          8           0        2.354933   -0.046193    0.176857
     12          1           0       -0.073094    3.054019    0.891683
     13          1           0        1.492220    3.321149    0.083629
     14          1           0        1.324366    2.008731    1.275413
     15          1           0       -2.065987    2.018506   -0.426795
     16          1           0       -3.731391    0.242091    0.049298
     17          1           0       -2.970149   -2.089643    0.423680
     18          1           0       -0.542113   -2.606055    0.334406
     19          1           0        3.229789   -0.460821    0.158868
 ---------------------------------------------------------------------
 Rotational constants (GHZ):           1.4786082           1.1698909           0.6795928
 Standard basis: def2TZVP (5D, 7F)
 There are   444 symmetry adapted cartesian basis functions of A   symmetry.
 There are   389 symmetry adapted basis functions of A   symmetry.
   389 basis functions,   625 primitive gaussians,   444 cartesian basis functions
    40 alpha electrons       39 beta electrons
       nuclear repulsion energy       601.2380960696 Hartrees.
 NAtoms=   19 NActive=   19 NUniq=   19 SFac= 1.00D+00 NAtFMM=   60 NAOKFM=F Big=F
 Integral buffers will be    131072 words long.
 Raffenetti 2 integral format.
 Two-electron integral symmetry is turned on.
 One-electron integrals computed using PRISM.
   1 Symmetry operations used in ECPInt.
 ECPInt:  NShTT=   11781 NPrTT=   36312 LenC2=   11329 LenP2D=   26919.
 LDataN:  DoStor=T MaxTD1= 6 Len=  172
 NBasis=   389 RedAO= T EigKep=  8.07D-06  NBF=   389
 NBsUse=   389 1.00D-06 EigRej= -1.00D+00 NBFU=   389
 ExpMin= 9.52D-02 ExpMax= 2.70D+04 ExpMxC= 9.22D+02 IAcc=3 IRadAn=         5 AccDes= 0.00D+00
 Harris functional with IExCor= 1009 and IRadAn=       5 diagonalized for initial guess.
 HarFok:  IExCor= 1009 AccDes= 0.00D+00 IRadAn=         5 IDoV= 1 UseB2=F ITyADJ=14
 ICtDFT=  3500011 ScaDFX=  1.000000  1.000000  1.000000  1.000000
 FoFCou: FMM=F IPFlag=           0 FMFlag=      100000 FMFlg1=           0
         NFxFlg=           0 DoJE=T BraDBF=F KetDBF=T FulRan=T
         wScrn=  0.000000 ICntrl=       500 IOpCl=  0 I1Cent=   200000004 NGrid=           0
         NMat0=    1 NMatS0=      1 NMatT0=    0 NMatD0=    1 NMtDS0=    0 NMtDT0=    0
 Petite list used in FoFCou.
 Initial guess <Sx>= 0.0000 <Sy>= 0.0000 <Sz>= 0.5000 <S**2>= 0.7500 S= 0.5000
 Requested convergence on RMS density matrix=1.00D-08 within 128 cycles.
 Requested convergence on MAX density matrix=1.00D-06.
 Requested convergence on             energy=1.00D-06.
 No special actions if energy rises.
 Integral accuracy reduced to 1.0D-05 until final iterations.
 Initial convergence to 1.0D-05 achieved.  Increase integral accuracy.
 SCF Done:  E(UM062X) =  -534.995175286     A.U. after   27 cycles
            NFock= 27  Conv=0.70D-08     -V/T= 2.0042
 <Sx>= 0.0000 <Sy>= 0.0000 <Sz>= 0.5000 <S**2>= 0.7679 S= 0.5089
 <L.S>=  0.00000000000    
 Annihilation of the first spin contaminant:
 S**2 before annihilation     0.7679,   after     0.7501

 **********************************************************************

            Population analysis using the SCF Density.

 **********************************************************************

 Orbital symmetries:
 Alpha Orbitals:
       Occupied  (A) (A) (A) (A) (A) (A) (A) (A) (A) (A) (A) (A)
                 (A) (A) (A) (A) (A) (A) (A) (A) (A) (A) (A) (A)
                 (A) (A) (A) (A) (A) (A) (A) (A) (A) (A) (A) (A)
                 (A) (A) (A) (A)
       Virtual   (A) (A) (A) (A) (A) (A) (A) (A) (A) (A) (A) (A)
                 (A) (A) (A) (A) (A) (A) (A) (A) (A) (A) (A) (A)
                 (A) (A) (A) (A) (A) (A) (A) (A) (A) (A) (A) (A)
                 (A) (A) (A) (A) (A) (A) (A) (A) (A) (A) (A) (A)
                 (A) (A) (A) (A) (A) (A) (A) (A) (A) (A) (A) (A)
                 (A) (A) (A) (A) (A) (A) (A) (A) (A) (A) (A) (A)
                 (A) (A) (A) (A) (A) (A) (A) (A) (A) (A) (A) (A)
                 (A) (A) (A) (A) (A) (A) (A) (A) (A) (A) (A) (A)
                 (A) (A) (A) (A) (A) (A) (A) (A) (A) (A) (A) (A)
                 (A) (A) (A) (A) (A) (A) (A) (A) (A) (A) (A) (A)
                 (A) (A) (A) (A) (A) (A) (A) (A) (A) (A) (A) (A)
                 (A) (A) (A) (A) (A) (A) (A) (A) (A) (A) (A) (A)
                 (A) (A) (A) (A) (A) (A) (A) (A) (A) (A) (A) (A)
                 (A) (A) (A) (A) (A) (A) (A) (A) (A) (A) (A) (A)
                 (A) (A) (A) (A) (A) (A) (A) (A) (A) (A) (A) (A)
                 (A) (A) (A) (A) (A) (A) (A) (A) (A) (A) (A) (A)
                 (A) (A) (A) (A) (A) (A) (A) (A) (A) (A) (A) (A)
                 (A) (A) (A) (A) (A) (A) (A) (A) (A) (A) (A) (A)
                 (A) (A) (A) (A) (A) (A) (A) (A) (A) (A) (A) (A)
                 (A) (A) (A) (A) (A) (A) (A) (A) (A) (A) (A) (A)
                 (A) (A) (A) (A) (A) (A) (A) (A) (A) (A) (A) (A)
                 (A) (A) (A) (A) (A) (A) (A) (A) (A) (A) (A) (A)
                 (A) (A) (A) (A) (A) (A) (A) (A) (A) (A) (A) (A)
                 (A) (A) (A) (A) (A) (A) (A) (A) (A) (A) (A) (A)
                 (A) (A) (A) (A) (A) (A) (A) (A) (A) (A) (A) (A)
                 (A) (A) (A) (A) (A) (A) (A) (A) (A) (A) (A) (A)
                 (A) (A) (A) (A) (A) (A) (A) (A) (A) (A) (A) (A)
                 (A) (A) (A) (A) (A) (A) (A) (A) (A) (A) (A) (A)
                 (A) (A) (A) (A) (A) (A) (A) (A) (A) (A) (A) (A)
                 (A)
 Beta  Orbitals:
       Occupied  (A) (A) (A) (A) (A) (A) (A) (A) (A) (A) (A) (A)
                 (A) (A) (A) (A) (A) (A) (A) (A) (A) (A) (A) (A)
                 (A) (A) (A) (A) (A) (A) (A) (A) (A) (A) (A) (A)
                 (A) (A) (A)
       Virtual   (A) (A) (A) (A) (A) (A) (A) (A) (A) (A) (A) (A)
                 (A) (A) (A) (A) (A) (A) (A) (A) (A) (A) (A) (A)
                 (A) (A) (A) (A) (A) (A) (A) (A) (A) (A) (A) (A)
                 (A) (A) (A) (A) (A) (A) (A) (A) (A) (A) (A) (A)
                 (A) (A) (A) (A) (A) (A) (A) (A) (A) (A) (A) (A)
                 (A) (A) (A) (A) (A) (A) (A) (A) (A) (A) (A) (A)
                 (A) (A) (A) (A) (A) (A) (A) (A) (A) (A) (A) (A)
                 (A) (A) (A) (A) (A) (A) (A) (A) (A) (A) (A) (A)
                 (A) (A) (A) (A) (A) (A) (A) (A) (A) (A) (A) (A)
                 (A) (A) (A) (A) (A) (A) (A) (A) (A) (A) (A) (A)
                 (A) (A) (A) (A) (A) (A) (A) (A) (A) (A) (A) (A)
                 (A) (A) (A) (A) (A) (A) (A) (A) (A) (A) (A) (A)
                 (A) (A) (A) (A) (A) (A) (A) (A) (A) (A) (A) (A)
                 (A) (A) (A) (A) (A) (A) (A) (A) (A) (A) (A) (A)
                 (A) (A) (A) (A) (A) (A) (A) (A) (A) (A) (A) (A)
                 (A) (A) (A) (A) (A) (A) (A) (A) (A) (A) (A) (A)
                 (A) (A) (A) (A) (A) (A) (A) (A) (A) (A) (A) (A)
                 (A) (A) (A) (A) (A) (A) (A) (A) (A) (A) (A) (A)
                 (A) (A) (A) (A) (A) (A) (A) (A) (A) (A) (A) (A)
                 (A) (A) (A) (A) (A) (A) (A) (A) (A) (A) (A) (A)
                 (A) (A) (A) (A) (A) (A) (A) (A) (A) (A) (A) (A)
                 (A) (A) (A) (A) (A) (A) (A) (A) (A) (A) (A) (A)
                 (A) (A) (A) (A) (A) (A) (A) (A) (A) (A) (A) (A)
                 (A) (A) (A) (A) (A) (A) (A) (A) (A) (A) (A) (A)
                 (A) (A) (A) (A) (A) (A) (A) (A) (A) (A) (A) (A)
                 (A) (A) (A) (A) (A) (A) (A) (A) (A) (A) (A) (A)
                 (A) (A) (A) (A) (A) (A) (A) (A) (A) (A) (A) (A)
                 (A) (A) (A) (A) (A) (A) (A) (A) (A) (A) (A) (A)
                 (A) (A) (A) (A) (A) (A) (A) (A) (A) (A) (A) (A)
                 (A) (A)
 The electronic state is 2-A.
 Alpha  occ. eigenvalues --  -19.85568 -19.82467 -19.77639 -10.85551 -10.84399
 Alpha  occ. eigenvalues --  -10.79174 -10.77503 -10.76987 -10.76808 -10.76220
 Alpha  occ. eigenvalues --  -10.75042  -1.40125  -1.39044  -1.29847  -1.19758
 Alpha  occ. eigenvalues --   -1.08596  -1.07813  -0.97690  -0.94865  -0.89953
 Alpha  occ. eigenvalues --   -0.87127  -0.81242  -0.78552  -0.76824  -0.74521
 Alpha  occ. eigenvalues --   -0.73852  -0.72822  -0.71353  -0.69546  -0.68750
 Alpha  occ. eigenvalues --   -0.65892  -0.65694  -0.64383  -0.62369  -0.59945
 Alpha  occ. eigenvalues --   -0.55906  -0.54830  -0.53727  -0.52789  -0.51832
 Alpha virt. eigenvalues --   -0.21530  -0.20067  -0.09182  -0.07931  -0.06720
 Alpha virt. eigenvalues --   -0.04996  -0.04424  -0.02747  -0.01886  -0.01377
 Alpha virt. eigenvalues --   -0.00297   0.00880   0.01502   0.02604   0.03748
 Alpha virt. eigenvalues --    0.04638   0.04919   0.07235   0.07431   0.08319
 Alpha virt. eigenvalues --    0.08918   0.10175   0.10775   0.11731   0.12463
 Alpha virt. eigenvalues --    0.13570   0.15718   0.16190   0.17073   0.17841
 Alpha virt. eigenvalues --    0.18959   0.19327   0.19982   0.20722   0.21387
 Alpha virt. eigenvalues --    0.24216   0.24686   0.25245   0.25422   0.26644
 Alpha virt. eigenvalues --    0.27114   0.28231   0.29694   0.30245   0.31304
 Alpha virt. eigenvalues --    0.32510   0.33193   0.33708   0.34932   0.35382
 Alpha virt. eigenvalues --    0.36136   0.37334   0.38658   0.38833   0.39675
 Alpha virt. eigenvalues --    0.41034   0.43692   0.44398   0.45191   0.46007
 Alpha virt. eigenvalues --    0.47510   0.48169   0.49637   0.52200   0.52569
 Alpha virt. eigenvalues --    0.54175   0.54589   0.55899   0.57061   0.59727
 Alpha virt. eigenvalues --    0.61084   0.61895   0.62400   0.64217   0.65620
 Alpha virt. eigenvalues --    0.66792   0.67500   0.69022   0.69989   0.71711
 Alpha virt. eigenvalues --    0.72123   0.73673   0.76149   0.77619   0.79450
 Alpha virt. eigenvalues --    0.81608   0.82059   0.83196   0.83729   0.84322
 Alpha virt. eigenvalues --    0.87743   0.89292   0.92269   0.93551   0.94912
 Alpha virt. eigenvalues --    0.95917   0.97532   0.98614   1.00910   1.03805
 Alpha virt. eigenvalues --    1.04626   1.06902   1.07390   1.10256   1.12831
 Alpha virt. eigenvalues --    1.13914   1.15214   1.16407   1.19380   1.23806
 Alpha virt. eigenvalues --    1.25164   1.26780   1.29459   1.31062   1.33235
 Alpha virt. eigenvalues --    1.35182   1.36020   1.36578   1.37371   1.38781
 Alpha virt. eigenvalues --    1.38965   1.40291   1.41635   1.43802   1.45967
 Alpha virt. eigenvalues --    1.46668   1.47824   1.50006   1.50645   1.51239
 Alpha virt. eigenvalues --    1.52639   1.54528   1.55402   1.56368   1.58577
 Alpha virt. eigenvalues --    1.60292   1.64244   1.65174   1.67506   1.69812
 Alpha virt. eigenvalues --    1.71487   1.73714   1.75799   1.77542   1.79217
 Alpha virt. eigenvalues --    1.81463   1.82091   1.84249   1.85773   1.87987
 Alpha virt. eigenvalues --    1.90120   1.92021   1.92974   1.93543   1.95469
 Alpha virt. eigenvalues --    1.97379   1.98509   1.98836   2.00283   2.02460
 Alpha virt. eigenvalues --    2.04820   2.06168   2.07846   2.11017   2.14055
 Alpha virt. eigenvalues --    2.14818   2.16297   2.19037   2.20275   2.21359
 Alpha virt. eigenvalues --    2.23609   2.25045   2.25660   2.30153   2.32127
 Alpha virt. eigenvalues --    2.34832   2.35246   2.36710   2.38404   2.39282
 Alpha virt. eigenvalues --    2.41171   2.41864   2.44283   2.45356   2.46080
 Alpha virt. eigenvalues --    2.47809   2.48628   2.50659   2.51360   2.53289
 Alpha virt. eigenvalues --    2.54719   2.55661   2.58311   2.58996   2.60899
 Alpha virt. eigenvalues --    2.62023   2.63343   2.65794   2.66713   2.68986
 Alpha virt. eigenvalues --    2.69250   2.70171   2.71738   2.73161   2.73496
 Alpha virt. eigenvalues --    2.76762   2.77819   2.80335   2.81083   2.82388
 Alpha virt. eigenvalues --    2.84577   2.85776   2.87520   2.89635   2.90352
 Alpha virt. eigenvalues --    2.92127   2.93469   2.95702   2.96140   2.97298
 Alpha virt. eigenvalues --    2.98466   3.00575   3.01299   3.03322   3.03857
 Alpha virt. eigenvalues --    3.05105   3.07734   3.08525   3.09937   3.11210
 Alpha virt. eigenvalues --    3.11684   3.13617   3.13664   3.15104   3.16351
 Alpha virt. eigenvalues --    3.18889   3.19792   3.19865   3.22044   3.23217
 Alpha virt. eigenvalues --    3.25192   3.26634   3.27913   3.28746   3.30041
 Alpha virt. eigenvalues --    3.31864   3.32878   3.35692   3.36996   3.38662
 Alpha virt. eigenvalues --    3.39790   3.40884   3.44071   3.45498   3.46633
 Alpha virt. eigenvalues --    3.49190   3.54993   3.57670   3.62551   3.63535
 Alpha virt. eigenvalues --    3.65082   3.69570   3.70059   3.72481   3.74943
 Alpha virt. eigenvalues --    3.78014   3.86358   3.87768   3.89949   3.92644
 Alpha virt. eigenvalues --    3.94089   3.94746   3.95407   3.99142   4.00817
 Alpha virt. eigenvalues --    4.02875   4.03433   4.06261   4.09066   4.11519
 Alpha virt. eigenvalues --    4.16466   4.18856   4.22518   4.26197   4.31185
 Alpha virt. eigenvalues --    4.36150   4.37218   4.39245   4.41453   4.43250
 Alpha virt. eigenvalues --    4.50585   4.54611   4.62052   4.64937   4.70918
 Alpha virt. eigenvalues --    4.81635   4.86164   4.90175   5.01203   5.03185
 Alpha virt. eigenvalues --    5.06011   5.07424   5.09443   5.16070   5.21297
 Alpha virt. eigenvalues --    5.24969   5.26066   5.30428   5.34850   5.38449
 Alpha virt. eigenvalues --    5.49822   5.61063   5.65016   5.74403   5.77430
 Alpha virt. eigenvalues --    5.81477   5.93644   6.01459   6.06128   6.07607
 Alpha virt. eigenvalues --    6.16717   6.19198   6.24599   6.32137   6.37968
 Alpha virt. eigenvalues --    6.50680   6.56142   6.56232   6.60619   6.67556
 Alpha virt. eigenvalues --    6.69134   6.77636   6.84574   6.94771   6.97685
 Alpha virt. eigenvalues --    7.01096   7.04235   7.21578  22.00655  22.30893
 Alpha virt. eigenvalues --   22.50773  22.56186  22.74483  22.77317  23.16378
 Alpha virt. eigenvalues --   23.40293  43.82191  43.87479  44.15912
  Beta  occ. eigenvalues --  -19.85301 -19.82463 -19.77629 -10.85385 -10.84408
  Beta  occ. eigenvalues --  -10.78962 -10.77481 -10.76919 -10.76809 -10.76272
  Beta  occ. eigenvalues --  -10.75011  -1.39860  -1.38433  -1.29820  -1.18844
  Beta  occ. eigenvalues --   -1.07983  -1.06638  -0.97153  -0.94521  -0.89334
  Beta  occ. eigenvalues --   -0.86683  -0.80802  -0.78043  -0.76361  -0.73654
  Beta  occ. eigenvalues --   -0.73105  -0.71932  -0.71073  -0.69239  -0.68373
  Beta  occ. eigenvalues --   -0.65752  -0.64233  -0.62474  -0.62192  -0.58816
  Beta  occ. eigenvalues --   -0.55527  -0.54097  -0.52627  -0.51665
  Beta virt. eigenvalues --   -0.36874  -0.19637  -0.16647  -0.08370  -0.07680
  Beta virt. eigenvalues --   -0.06632  -0.04861  -0.04324  -0.02713  -0.01846
  Beta virt. eigenvalues --   -0.01283   0.00355   0.00704   0.01509   0.03034
  Beta virt. eigenvalues --    0.03543   0.04470   0.05046   0.07060   0.07365
  Beta virt. eigenvalues --    0.08186   0.08464   0.10064   0.10799   0.11884
  Beta virt. eigenvalues --    0.12606   0.13576   0.15503   0.16229   0.17280
  Beta virt. eigenvalues --    0.17596   0.19037   0.19424   0.19905   0.21065
  Beta virt. eigenvalues --    0.21329   0.24345   0.24930   0.25305   0.25486
  Beta virt. eigenvalues --    0.26697   0.27126   0.28173   0.29558   0.30300
  Beta virt. eigenvalues --    0.31493   0.32664   0.33295   0.33839   0.35035
  Beta virt. eigenvalues --    0.35625   0.36532   0.37288   0.38603   0.38844
  Beta virt. eigenvalues --    0.39742   0.40939   0.43726   0.44579   0.45428
  Beta virt. eigenvalues --    0.46020   0.47416   0.48190   0.49776   0.52167
  Beta virt. eigenvalues --    0.52511   0.54605   0.54916   0.56283   0.56890
  Beta virt. eigenvalues --    0.59689   0.61013   0.61845   0.62653   0.64034
  Beta virt. eigenvalues --    0.65882   0.66662   0.67618   0.69209   0.70139
  Beta virt. eigenvalues --    0.71688   0.72237   0.73880   0.76003   0.77841
  Beta virt. eigenvalues --    0.79439   0.81726   0.82227   0.83320   0.83874
  Beta virt. eigenvalues --    0.84394   0.87710   0.89376   0.92444   0.93714
  Beta virt. eigenvalues --    0.95165   0.96164   0.97819   0.98897   1.01096
  Beta virt. eigenvalues --    1.04223   1.04911   1.07238   1.07760   1.10778
  Beta virt. eigenvalues --    1.13302   1.14306   1.15491   1.16819   1.19733
  Beta virt. eigenvalues --    1.24177   1.26563   1.27141   1.29946   1.31313
  Beta virt. eigenvalues --    1.34058   1.35618   1.36755   1.36888   1.38160
  Beta virt. eigenvalues --    1.39041   1.39598   1.40505   1.41827   1.43856
  Beta virt. eigenvalues --    1.46183   1.47026   1.48706   1.50541   1.51094
  Beta virt. eigenvalues --    1.51538   1.53592   1.55006   1.55798   1.56881
  Beta virt. eigenvalues --    1.58881   1.60640   1.64564   1.65707   1.68450
  Beta virt. eigenvalues --    1.70351   1.71988   1.74167   1.76131   1.77834
  Beta virt. eigenvalues --    1.79574   1.81783   1.82382   1.84793   1.86053
  Beta virt. eigenvalues --    1.88262   1.90529   1.92429   1.93603   1.93973
  Beta virt. eigenvalues --    1.96024   1.98131   1.98867   1.99567   2.00852
  Beta virt. eigenvalues --    2.02960   2.05285   2.06668   2.08398   2.11501
  Beta virt. eigenvalues --    2.14696   2.15301   2.17262   2.19350   2.20672
  Beta virt. eigenvalues --    2.21837   2.24370   2.25391   2.26145   2.30704
  Beta virt. eigenvalues --    2.32449   2.35297   2.35832   2.37487   2.39669
  Beta virt. eigenvalues --    2.40384   2.41955   2.42383   2.44995   2.47235
  Beta virt. eigenvalues --    2.47617   2.48909   2.49344   2.52094   2.52614
  Beta virt. eigenvalues --    2.54800   2.55792   2.56267   2.59603   2.60080
  Beta virt. eigenvalues --    2.62014   2.63121   2.64311   2.66395   2.67298
  Beta virt. eigenvalues --    2.69430   2.69731   2.70990   2.72864   2.73915
  Beta virt. eigenvalues --    2.74199   2.77283   2.78528   2.80884   2.81961
  Beta virt. eigenvalues --    2.83593   2.85330   2.86546   2.87833   2.90783
  Beta virt. eigenvalues --    2.91520   2.93016   2.94330   2.96101   2.96700
  Beta virt. eigenvalues --    2.98126   2.99155   3.01404   3.02570   3.03741
  Beta virt. eigenvalues --    3.04386   3.05966   3.08998   3.09239   3.10619
  Beta virt. eigenvalues --    3.12052   3.12389   3.14691   3.14735   3.15915
  Beta virt. eigenvalues --    3.17191   3.19603   3.20569   3.21018   3.22534
  Beta virt. eigenvalues --    3.24103   3.25908   3.27326   3.28645   3.29883
  Beta virt. eigenvalues --    3.31114   3.33151   3.34115   3.36603   3.37787
  Beta virt. eigenvalues --    3.39376   3.40639   3.41570   3.45169   3.46205
  Beta virt. eigenvalues --    3.47819   3.49837   3.55733   3.58826   3.63188
  Beta virt. eigenvalues --    3.64456   3.66416   3.70326   3.70925   3.73997
  Beta virt. eigenvalues --    3.75903   3.79153   3.86950   3.88436   3.91624
  Beta virt. eigenvalues --    3.95670   3.96250   3.97244   3.97922   4.00719
  Beta virt. eigenvalues --    4.02513   4.03606   4.04719   4.07458   4.10771
  Beta virt. eigenvalues --    4.12911   4.17216   4.19832   4.23617   4.26908
  Beta virt. eigenvalues --    4.32748   4.38045   4.39161   4.40809   4.43209
  Beta virt. eigenvalues --    4.45430   4.52918   4.56615   4.63570   4.67992
  Beta virt. eigenvalues --    4.72258   4.83930   4.87944   4.92482   5.02111
  Beta virt. eigenvalues --    5.05476   5.07529   5.07968   5.10532   5.18100
  Beta virt. eigenvalues --    5.22279   5.25124   5.26927   5.31192   5.35722
  Beta virt. eigenvalues --    5.38597   5.50024   5.61501   5.65199   5.74475
  Beta virt. eigenvalues --    5.77498   5.82047   5.94039   6.01547   6.06657
  Beta virt. eigenvalues --    6.08024   6.17123   6.19432   6.24782   6.32221
  Beta virt. eigenvalues --    6.38077   6.51681   6.56273   6.56553   6.61259
  Beta virt. eigenvalues --    6.67690   6.69322   6.77706   6.84983   6.94812
  Beta virt. eigenvalues --    6.98186   7.01329   7.04489   7.21694  22.00905
  Beta virt. eigenvalues --   22.30978  22.51263  22.56602  22.75013  22.77824
  Beta virt. eigenvalues --   23.16797  23.40651  43.82192  43.87478  44.15923
          Condensed to atoms (all electrons):
               1          2          3          4          5          6
     1  C    4.920746   0.182440  -0.044026  -0.008215  -0.001018   0.000401
     2  O    0.182440   7.905097   0.266836  -0.020501   0.008592  -0.000707
     3  C   -0.044026   0.266836   5.083340   0.342660   0.017607  -0.076180
     4  C   -0.008215  -0.020501   0.342660   4.975674   0.467733  -0.003534
     5  C   -0.001018   0.008592   0.017607   0.467733   4.946108   0.410410
     6  C    0.000401  -0.000707  -0.076180  -0.003534   0.410410   4.911224
     7  C   -0.000312   0.011007   0.061368  -0.095035  -0.000317   0.378470
     8  C    0.003460  -0.032875   0.174042   0.018579  -0.082390  -0.005529
     9  C   -0.006055   0.001428  -0.052233   0.013482  -0.007599   0.016273
    10  O   -0.000029  -0.000179   0.001502  -0.000355  -0.000007   0.003781
    11  O   -0.008918  -0.010454   0.016443   0.002068  -0.000224   0.000163
    12  H    0.405612  -0.038445   0.013231  -0.013130  -0.001803  -0.000040
    13  H    0.410476  -0.025323  -0.000332  -0.001041   0.000188  -0.000053
    14  H    0.404079  -0.037088  -0.000873   0.009417  -0.000337   0.000365
    15  H   -0.001773   0.003292  -0.043755   0.407317  -0.018410   0.004341
    16  H    0.000026  -0.000170   0.003728  -0.013436   0.398583  -0.025376
    17  H   -0.000000   0.000005  -0.000824   0.003903  -0.027431   0.410807
    18  H    0.000028  -0.000023   0.009421  -0.001469   0.003491  -0.029808
    19  H    0.000328   0.000522  -0.001259   0.000005   0.000003  -0.000007
               7          8          9         10         11         12
     1  C   -0.000312   0.003460  -0.006055  -0.000029  -0.008918   0.405612
     2  O    0.011007  -0.032875   0.001428  -0.000179  -0.010454  -0.038445
     3  C    0.061368   0.174042  -0.052233   0.001502   0.016443   0.013231
     4  C   -0.095035   0.018579   0.013482  -0.000355   0.002068  -0.013130
     5  C   -0.000317  -0.082390  -0.007599  -0.000007  -0.000224  -0.001803
     6  C    0.378470  -0.005529   0.016273   0.003781   0.000163  -0.000040
     7  C    5.047247   0.399043  -0.098691   0.020629   0.002431   0.000191
     8  C    0.399043   5.398672   0.284840  -0.102447  -0.118307   0.004710
     9  C   -0.098691   0.284840   4.504783   0.635461   0.393501   0.001270
    10  O    0.020629  -0.102447   0.635461   7.775792  -0.082853   0.000001
    11  O    0.002431  -0.118307   0.393501  -0.082853   7.901671   0.000446
    12  H    0.000191   0.004710   0.001270   0.000001   0.000446   0.525322
    13  H    0.000194  -0.001324  -0.000662   0.000000   0.000371  -0.016850
    14  H   -0.002552   0.000448  -0.003041  -0.000003   0.004559  -0.038549
    15  H   -0.002818   0.010804   0.000249   0.000005   0.000007  -0.002413
    16  H    0.002263  -0.000015   0.000015  -0.000001  -0.000001   0.000049
    17  H   -0.028304   0.004457  -0.000005  -0.000036   0.000002   0.000001
    18  H    0.396520  -0.013036  -0.013593   0.012600   0.000436  -0.000006
    19  H   -0.000394   0.019386  -0.024453   0.005385   0.300648  -0.000002
              13         14         15         16         17         18
     1  C    0.410476   0.404079  -0.001773   0.000026  -0.000000   0.000028
     2  O   -0.025323  -0.037088   0.003292  -0.000170   0.000005  -0.000023
     3  C   -0.000332  -0.000873  -0.043755   0.003728  -0.000824   0.009421
     4  C   -0.001041   0.009417   0.407317  -0.013436   0.003903  -0.001469
     5  C    0.000188  -0.000337  -0.018410   0.398583  -0.027431   0.003491
     6  C   -0.000053   0.000365   0.004341  -0.025376   0.410807  -0.029808
     7  C    0.000194  -0.002552  -0.002818   0.002263  -0.028304   0.396520
     8  C   -0.001324   0.000448   0.010804  -0.000015   0.004457  -0.013036
     9  C   -0.000662  -0.003041   0.000249   0.000015  -0.000005  -0.013593
    10  O    0.000000  -0.000003   0.000005  -0.000001  -0.000036   0.012600
    11  O    0.000371   0.004559   0.000007  -0.000001   0.000002   0.000436
    12  H   -0.016850  -0.038549  -0.002413   0.000049   0.000001  -0.000006
    13  H    0.458070  -0.017446  -0.000478   0.000000  -0.000000   0.000000
    14  H   -0.017446   0.499899   0.000813  -0.000009   0.000001  -0.000012
    15  H   -0.000478   0.000813   0.419363  -0.002058  -0.000039   0.000013
    16  H    0.000000  -0.000009  -0.002058   0.425567  -0.001876  -0.000071
    17  H   -0.000000   0.000001  -0.000039  -0.001876   0.416613  -0.001478
    18  H    0.000000  -0.000012   0.000013  -0.000071  -0.001478   0.403533
    19  H   -0.000018  -0.000077  -0.000001   0.000000  -0.000000  -0.000042
              19
     1  C    0.000328
     2  O    0.000522
     3  C   -0.001259
     4  C    0.000005
     5  C    0.000003
     6  C   -0.000007
     7  C   -0.000394
     8  C    0.019386
     9  C   -0.024453
    10  O    0.005385
    11  O    0.300648
    12  H   -0.000002
    13  H   -0.000018
    14  H   -0.000077
    15  H   -0.000001
    16  H    0.000000
    17  H   -0.000000
    18  H   -0.000042
    19  H    0.327693
          Atomic-Atomic Spin Densities.
               1          2          3          4          5          6
     1  C    0.029625   0.005832  -0.021415  -0.003458   0.000627   0.000044
     2  O    0.005832   0.140896  -0.047054  -0.000128   0.000060   0.000282
     3  C   -0.021415  -0.047054   0.348481   0.046986  -0.006700  -0.009758
     4  C   -0.003458  -0.000128   0.046986   0.127978  -0.029876  -0.007027
     5  C    0.000627   0.000060  -0.006700  -0.029876  -0.094503   0.037528
     6  C    0.000044   0.000282  -0.009758  -0.007027   0.037528   0.402652
     7  C    0.000847   0.000740  -0.011644  -0.009151  -0.001850   0.054467
     8  C    0.001564  -0.000019   0.045475   0.005604   0.001302  -0.015576
     9  C   -0.000585  -0.000115   0.002458   0.000554  -0.000030  -0.000245
    10  O   -0.000004  -0.000014   0.000019  -0.000005   0.000002   0.000066
    11  O    0.000258   0.000626  -0.000093  -0.000068   0.000032  -0.000035
    12  H    0.000922   0.000366  -0.000724  -0.001135   0.000086  -0.000014
    13  H   -0.001099   0.000444   0.000457   0.000072  -0.000009   0.000005
    14  H   -0.001858  -0.001397   0.006274   0.000931  -0.000116  -0.000044
    15  H   -0.000376  -0.000084   0.000751  -0.000486  -0.000400   0.000139
    16  H    0.000005   0.000000   0.000093  -0.001180   0.001056  -0.001009
    17  H   -0.000001   0.000000   0.000220  -0.000341   0.003323  -0.006788
    18  H   -0.000003  -0.000008  -0.000340   0.000082  -0.000175   0.000128
    19  H    0.000002  -0.000007  -0.000028   0.000006  -0.000001   0.000001
               7          8          9         10         11         12
     1  C    0.000847   0.001564  -0.000585  -0.000004   0.000258   0.000922
     2  O    0.000740  -0.000019  -0.000115  -0.000014   0.000626   0.000366
     3  C   -0.011644   0.045475   0.002458   0.000019  -0.000093  -0.000724
     4  C   -0.009151   0.005604   0.000554  -0.000005  -0.000068  -0.001135
     5  C   -0.001850   0.001302  -0.000030   0.000002   0.000032   0.000086
     6  C    0.054467  -0.015576  -0.000245   0.000066  -0.000035  -0.000014
     7  C    0.008334  -0.026510   0.001997   0.000115   0.000384   0.000025
     8  C   -0.026510   0.019846  -0.001263  -0.000411  -0.001199   0.000460
     9  C    0.001997  -0.001263  -0.008962   0.000777  -0.000163  -0.000003
    10  O    0.000115  -0.000411   0.000777   0.005428   0.000140   0.000000
    11  O    0.000384  -0.001199  -0.000163   0.000140   0.002261   0.000005
    12  H    0.000025   0.000460  -0.000003   0.000000   0.000005  -0.001155
    13  H   -0.000025  -0.000033   0.000040  -0.000000  -0.000009  -0.000295
    14  H   -0.000141  -0.000883   0.000034  -0.000000  -0.000418   0.000112
    15  H   -0.000115   0.000032  -0.000001   0.000000  -0.000002   0.000019
    16  H   -0.000047  -0.000011   0.000004  -0.000000   0.000000   0.000002
    17  H    0.003747  -0.000363  -0.000013   0.000001  -0.000000  -0.000000
    18  H   -0.000170  -0.000006   0.000379  -0.000078   0.000002  -0.000000
    19  H   -0.000002  -0.000059   0.000098  -0.000014   0.000019  -0.000000
              13         14         15         16         17         18
     1  C   -0.001099  -0.001858  -0.000376   0.000005  -0.000001  -0.000003
     2  O    0.000444  -0.001397  -0.000084   0.000000   0.000000  -0.000008
     3  C    0.000457   0.006274   0.000751   0.000093   0.000220  -0.000340
     4  C    0.000072   0.000931  -0.000486  -0.001180  -0.000341   0.000082
     5  C   -0.000009  -0.000116  -0.000400   0.001056   0.003323  -0.000175
     6  C    0.000005  -0.000044   0.000139  -0.001009  -0.006788   0.000128
     7  C   -0.000025  -0.000141  -0.000115  -0.000047   0.003747  -0.000170
     8  C   -0.000033  -0.000883   0.000032  -0.000011  -0.000363  -0.000006
     9  C    0.000040   0.000034  -0.000001   0.000004  -0.000013   0.000379
    10  O   -0.000000  -0.000000   0.000000  -0.000000   0.000001  -0.000078
    11  O   -0.000009  -0.000418  -0.000002   0.000000  -0.000000   0.000002
    12  H   -0.000295   0.000112   0.000019   0.000002  -0.000000  -0.000000
    13  H   -0.000749   0.001101   0.000026  -0.000000   0.000000  -0.000000
    14  H    0.001101   0.001423   0.000005   0.000000   0.000000   0.000003
    15  H    0.000026   0.000005  -0.005163   0.000063  -0.000003   0.000003
    16  H   -0.000000   0.000000   0.000063   0.000782  -0.000020  -0.000003
    17  H    0.000000   0.000000  -0.000003  -0.000020  -0.007565  -0.000091
    18  H   -0.000000   0.000003   0.000003  -0.000003  -0.000091  -0.000429
    19  H   -0.000001   0.000017   0.000000  -0.000000  -0.000000   0.000001
              19
     1  C    0.000002
     2  O   -0.000007
     3  C   -0.000028
     4  C    0.000006
     5  C   -0.000001
     6  C    0.000001
     7  C   -0.000002
     8  C   -0.000059
     9  C    0.000098
    10  O   -0.000014
    11  O    0.000019
    12  H   -0.000000
    13  H   -0.000001
    14  H    0.000017
    15  H    0.000000
    16  H   -0.000000
    17  H   -0.000000
    18  H    0.000001
    19  H   -0.000230
 Mulliken charges and spin densities:
               1          2
     1  C   -0.257249   0.010928
     2  O   -0.213455   0.100420
     3  C    0.229306   0.353461
     4  C   -0.084122   0.129358
     5  C   -0.113179  -0.089644
     6  C    0.005001   0.454817
     7  C   -0.090938   0.021001
     8  C    0.037480   0.027950
     9  C    0.355030  -0.005040
    10  O   -0.269244   0.006022
    11  O   -0.401987   0.001740
    12  H    0.160407  -0.001329
    13  H    0.194229  -0.000075
    14  H    0.180407   0.005043
    15  H    0.225544  -0.005591
    16  H    0.212783  -0.000264
    17  H    0.224205  -0.007894
    18  H    0.233498  -0.000706
    19  H    0.372284  -0.000197
 Sum of Mulliken charges =   1.00000   1.00000
 Mulliken charges and spin densities with hydrogens summed into heavy atoms:
               1          2
     1  C    0.277794   0.014567
     2  O   -0.213455   0.100420
     3  C    0.229306   0.353461
     4  C    0.141422   0.123766
     5  C    0.099603  -0.089908
     6  C    0.229207   0.446923
     7  C    0.142560   0.020295
     8  C    0.037480   0.027950
     9  C    0.355030  -0.005040
    10  O   -0.269244   0.006022
    11  O   -0.029703   0.001543
 Electronic spatial extent (au):  <R**2>=           1608.6477
 Charge=              1.0000 electrons
 Dipole moment (field-independent basis, Debye):
    X=             -4.9479    Y=              1.7342    Z=              1.5683  Tot=              5.4725
 Quadrupole moment (field-independent basis, Debye-Ang):
   XX=            -31.4397   YY=            -46.3768   ZZ=            -61.3006
   XY=              7.6369   XZ=              1.0661   YZ=             -0.2668
 Traceless Quadrupole moment (field-independent basis, Debye-Ang):
   XX=             14.9326   YY=             -0.0044   ZZ=            -14.9282
   XY=              7.6369   XZ=              1.0661   YZ=             -0.2668
 Octapole moment (field-independent basis, Debye-Ang**2):
  XXX=             -4.6900  YYY=             32.0186  ZZZ=             -1.0783  XYY=            -15.8863
  XXY=             -4.5081  XXZ=              5.4051  XZZ=              7.9231  YZZ=              0.6409
  YYZ=             10.3324  XYZ=              4.5405
 Hexadecapole moment (field-independent basis, Debye-Ang**3):
 XXXX=           -696.0095 YYYY=           -750.6866 ZZZZ=            -97.8676 XXXY=             13.8617
 XXXZ=             -0.8194 YYYX=             77.3360 YYYZ=             -3.3961 ZZZX=              0.7203
 ZZZY=             -0.2998 XXYY=           -277.4290 XXZZ=           -197.0480 YYZZ=           -158.9864
 XXYZ=            -13.7945 YYXZ=              3.3438 ZZXY=             -1.0182
 N-N= 6.012380960696D+02 E-N=-2.438423292567D+03  KE= 5.327339164695D+02
 There are a total of      430506 grid points.
 ElSum from          density=       78.9999914605
 ElSum from atomic densities=       79.9999734327
 Hirshfeld populations at iteration   1 (CA, CB, DipXYZ):
               1          2          3          4          5
     1  C    2.996928   2.973866   0.007466   0.011010  -0.041214
     2  O    4.097614   3.986577  -0.028708   0.024145   0.071391
     3  C    3.030285   2.777931   0.052404   0.058476  -0.035359
     4  C    3.044336   2.922809  -0.001934   0.078690  -0.027471
     5  C    2.990333   2.982318  -0.096566  -0.015105   0.006357
     6  C    3.103077   2.787420  -0.065377  -0.082004   0.017135
     7  C    3.009997   2.943552  -0.031974  -0.091453   0.012079
     8  C    3.019552   2.950777   0.064022   0.024052  -0.013761
     9  C    2.888508   2.887729   0.007859   0.082810   0.001200
    10  O    4.116019   4.111091  -0.021047   0.069137   0.013508
    11  O    4.074925   4.073123   0.057930  -0.094728  -0.011756
    12  H    0.475056   0.473675  -0.107182   0.089039   0.065076
    13  H    0.460953   0.460795   0.107952   0.125220  -0.052774
    14  H    0.476767   0.471171   0.070014  -0.036931   0.127711
    15  H    0.455443   0.452044  -0.067225   0.165314  -0.035325
    16  H    0.453902   0.454910  -0.178669   0.038950   0.003858
    17  H    0.454845   0.440791  -0.120501  -0.132941   0.031239
    18  H    0.455955   0.453920   0.022611  -0.168766   0.029388
    19  H    0.395503   0.395495   0.223952  -0.060175   0.002498
       Tot  39.999997  38.999994  -0.104974   0.084741   0.163781

 Dip from Atomic Chgs             -1.841685   0.597519   0.453215
         Total Dipole             -1.946659   0.682260   0.616996

 Hirshfeld charges, spin densities, dipoles, and CM5 charges using IRadAn=      5:
              Q-H        S-H        Dx         Dy         Dz        Q-CM5   
     1  C    0.029206   0.023062   0.007466   0.011010  -0.041214  -0.092116
     2  O   -0.084191   0.111038  -0.028708   0.024145   0.071391  -0.172385
     3  C    0.191784   0.252354   0.052404   0.058476  -0.035359   0.211046
     4  C    0.032854   0.121527  -0.001934   0.078690  -0.027471  -0.018227
     5  C    0.027350   0.008015  -0.096566  -0.015105   0.006357  -0.028336
     6  C    0.109503   0.315658  -0.065377  -0.082004   0.017135   0.053635
     7  C    0.046451   0.066445  -0.031974  -0.091453   0.012079  -0.005223
     8  C    0.029671   0.068775   0.064022   0.024052  -0.013761   0.030928
     9  C    0.223763   0.000779   0.007859   0.082810   0.001200   0.279335
    10  O   -0.227110   0.004928  -0.021047   0.069137   0.013508  -0.278354
    11  O   -0.148048   0.001802   0.057930  -0.094728  -0.011756  -0.344986
    12  H    0.051269   0.001381  -0.107182   0.089039   0.065076   0.111027
    13  H    0.078253   0.000158   0.107952   0.125220  -0.052774   0.139160
    14  H    0.052062   0.005596   0.070014  -0.036931   0.127711   0.115253
    15  H    0.092513   0.003399  -0.067225   0.165314  -0.035325   0.152148
    16  H    0.091188  -0.001008  -0.178669   0.038950   0.003858   0.147335
    17  H    0.104364   0.014054  -0.120501  -0.132941   0.031239   0.160597
    18  H    0.090125   0.002035   0.022611  -0.168766   0.029388   0.151860
    19  H    0.209002   0.000007   0.223952  -0.060175   0.002498   0.387311
       Tot   1.000009   1.000003  -0.104974   0.084741   0.163781   1.000009
 Hirshfeld charges and spin densities with hydrogens summed into heavy atoms:
              Q-H        S-H       Q-CM5   
     1  C    0.210789   0.030196   0.273324
     2  O   -0.084191   0.111038  -0.172385
     3  C    0.191784   0.252354   0.211046
     4  C    0.125368   0.124926   0.133922
     5  C    0.118538   0.007007   0.118999
     6  C    0.213867   0.329711   0.214233
     7  C    0.136576   0.068480   0.146636
     8  C    0.029671   0.068775   0.030928
     9  C    0.223763   0.000779   0.279335
    10  O   -0.227110   0.004928  -0.278354
    11  O    0.060954   0.001810   0.042325
 
 EQQ= 0.973607002404E-01 EQD=-0.653734411583E-01 EDD= 0.118245507083E-01
 EQQ+QD+DD= 0.438118097904E-01
 
                          Isotropic Fermi Contact Couplings
        Atom                 a.u.       MegaHertz       Gauss      10(-4) cm-1
     1  C(13)              0.02137      24.02061       8.57115       8.01241
     2  O(17)              0.08163     -49.48369     -17.65701     -16.50598
     3  C(13)              0.03990      44.86021      16.00724      14.96375
     4  C(13)              0.00703       7.90622       2.82113       2.63723
     5  C(13)             -0.02180     -24.51010      -8.74581      -8.17569
     6  C(13)              0.05974      67.15683      23.96323      22.40111
     7  C(13)             -0.01050     -11.80334      -4.21172      -3.93717
     8  C(13)             -0.00456      -5.12626      -1.82918      -1.70994
     9  C(13)             -0.00503      -5.65672      -2.01846      -1.88688
    10  O(17)              0.00043      -0.26104      -0.09314      -0.08707
    11  O(17)             -0.00017       0.10493       0.03744       0.03500
    12  H(1)              -0.00006      -0.27314      -0.09746      -0.09111
    13  H(1)              -0.00055      -2.46482      -0.87951      -0.82218
    14  H(1)               0.00213       9.53844       3.40355       3.18168
    15  H(1)              -0.00312     -13.93004      -4.97058      -4.64656
    16  H(1)               0.00011       0.47593       0.16982       0.15875
    17  H(1)              -0.00735     -32.83231     -11.71538     -10.95168
    18  H(1)              -0.00121      -5.40488      -1.92860      -1.80287
    19  H(1)              -0.00006      -0.24591      -0.08775      -0.08203
 --------------------------------------------------------
       Center         ----  Spin Dipole Couplings  ----
                      3XX-RR        3YY-RR        3ZZ-RR
 --------------------------------------------------------
     1   Atom       -0.004522     -0.004641      0.009163
     2   Atom       -0.233652     -0.218766      0.452418
     3   Atom       -0.187720     -0.186865      0.374585
     4   Atom       -0.074129     -0.071137      0.145266
     5   Atom        0.017997      0.023019     -0.041016
     6   Atom       -0.229862     -0.216885      0.446748
     7   Atom       -0.019126     -0.022490      0.041616
     8   Atom       -0.036020     -0.020352      0.056372
     9   Atom        0.003448      0.003208     -0.006656
    10   Atom       -0.011913     -0.008642      0.020555
    11   Atom        0.002106     -0.007850      0.005744
    12   Atom       -0.003773      0.005061     -0.001287
    13   Atom       -0.000394      0.003373     -0.002978
    14   Atom        0.000147     -0.000842      0.000696
    15   Atom       -0.003145      0.009680     -0.006535
    16   Atom        0.001879      0.003344     -0.005223
    17   Atom        0.001257      0.003983     -0.005240
    18   Atom        0.001641      0.004133     -0.005774
    19   Atom        0.002955     -0.001231     -0.001724
 --------------------------------------------------------
                        XY            XZ            YZ
 --------------------------------------------------------
     1   Atom        0.020072      0.024141      0.024713
     2   Atom       -0.059128      0.159985     -0.181919
     3   Atom        0.004688      0.039914      0.062675
     4   Atom       -0.008121     -0.005029      0.047631
     5   Atom       -0.005483     -0.008093     -0.011225
     6   Atom        0.012833      0.053849      0.114887
     7   Atom       -0.002975      0.007718      0.023128
     8   Atom       -0.006208      0.002543      0.034878
     9   Atom       -0.004334      0.000833     -0.000104
    10   Atom       -0.005073      0.013797     -0.009115
    11   Atom       -0.002411     -0.003170      0.001636
    12   Atom       -0.000489     -0.002223      0.006847
    13   Atom        0.006400      0.000822      0.000755
    14   Atom        0.003530      0.005614      0.001234
    15   Atom       -0.014456      0.002231     -0.002047
    16   Atom       -0.005702      0.000869     -0.001457
    17   Atom        0.033528     -0.006300     -0.004246
    18   Atom       -0.010515      0.001786     -0.001528
    19   Atom       -0.001280      0.000468     -0.000222
 --------------------------------------------------------


 ---------------------------------------------------------------------------------
              Anisotropic Spin Dipole Couplings in Principal Axis System
 ---------------------------------------------------------------------------------

       Atom             a.u.   MegaHertz   Gauss  10(-4) cm-1        Axes

              Baa    -0.0247    -3.315    -1.183    -1.106 -0.6332  0.7664 -0.1079
     1 C(13)  Bbb    -0.0223    -2.994    -1.068    -0.999 -0.5733 -0.3707  0.7307
              Bcc     0.0470     6.309     2.251     2.105  0.5200  0.5245  0.6741
 
              Baa    -0.2858    20.681     7.379     6.898  0.7480  0.6637  0.0014
     2 O(17)  Bbb    -0.2501    18.101     6.459     6.038 -0.6278  0.7069  0.3260
              Bcc     0.5360   -38.781   -13.838   -12.936  0.2153 -0.2447  0.9454
 
              Baa    -0.1938   -26.006    -9.280    -8.675 -0.0866  0.9909 -0.1032
     3 C(13)  Bbb    -0.1905   -25.566    -9.122    -8.528  0.9938  0.0786 -0.0789
              Bcc     0.3843    51.572    18.402    17.203  0.0701  0.1094  0.9915
 
              Baa    -0.0854   -11.466    -4.091    -3.825  0.5273  0.8344 -0.1608
     4 C(13)  Bbb    -0.0700    -9.397    -3.353    -3.135  0.8492 -0.5110  0.1329
              Bcc     0.1555    20.863     7.445     6.959 -0.0287  0.2066  0.9780
 
              Baa    -0.0442    -5.932    -2.117    -1.979  0.1421  0.1743  0.9744
     5 C(13)  Bbb     0.0172     2.308     0.823     0.770  0.8785  0.4314 -0.2053
              Bcc     0.0270     3.624     1.293     1.209 -0.4561  0.8852 -0.0918
 
              Baa    -0.2391   -32.079   -11.447   -10.700 -0.6067  0.7904 -0.0848
     6 C(13)  Bbb    -0.2314   -31.048   -11.079   -10.357  0.7910  0.5897 -0.1627
              Bcc     0.4704    63.127    22.525    21.057  0.0786  0.1658  0.9830
 
              Baa    -0.0321    -4.312    -1.538    -1.438  0.3843  0.8687 -0.3126
     7 C(13)  Bbb    -0.0176    -2.357    -0.841    -0.786  0.9185 -0.3940  0.0342
              Bcc     0.0497     6.668     2.379     2.224  0.0935  0.3003  0.9493
 
              Baa    -0.0417    -5.599    -1.998    -1.868  0.7618  0.6039 -0.2345
     8 C(13)  Bbb    -0.0281    -3.775    -1.347    -1.259 -0.6478  0.7108 -0.2739
              Bcc     0.0699     9.374     3.345     3.127  0.0013  0.3605  0.9327
 
              Baa    -0.0067    -0.903    -0.322    -0.301 -0.0945 -0.0308  0.9950
     9 C(13)  Bbb    -0.0010    -0.129    -0.046    -0.043  0.6897  0.7188  0.0878
              Bcc     0.0077     1.033     0.368     0.344  0.7179 -0.6945  0.0467
 
              Baa    -0.0174     1.259     0.449     0.420  0.9280  0.2485 -0.2776
    10 O(17)  Bbb    -0.0111     0.802     0.286     0.268 -0.1496  0.9309  0.3333
              Bcc     0.0285    -2.062    -0.736    -0.688  0.3413 -0.2678  0.9010
 
              Baa    -0.0085     0.612     0.219     0.204  0.2027  0.9769 -0.0673
    11 O(17)  Bbb     0.0004    -0.032    -0.011    -0.011  0.8314 -0.1354  0.5390
              Bcc     0.0080    -0.580    -0.207    -0.194 -0.5174  0.1652  0.8396
 
              Baa    -0.0066    -3.534    -1.261    -1.179  0.5129 -0.4179  0.7498
    12 H(1)   Bbb    -0.0030    -1.603    -0.572    -0.535  0.8499  0.3700 -0.3751
              Bcc     0.0096     5.138     1.833     1.714 -0.1207  0.8297  0.5450
 
              Baa    -0.0052    -2.775    -0.990    -0.926  0.8017 -0.5899 -0.0961
    13 H(1)   Bbb    -0.0031    -1.636    -0.584    -0.546  0.0192 -0.1353  0.9906
              Bcc     0.0083     4.411     1.574     1.471  0.5974  0.7961  0.0972
 
              Baa    -0.0059    -3.150    -1.124    -1.051  0.7385 -0.3793 -0.5574
    14 H(1)   Bbb    -0.0015    -0.810    -0.289    -0.270  0.0268  0.8426 -0.5378
              Bcc     0.0074     3.959     1.413     1.321  0.6737  0.3823  0.6325
 
              Baa    -0.0126    -6.747    -2.407    -2.250  0.8378  0.5308 -0.1281
    15 H(1)   Bbb    -0.0068    -3.612    -1.289    -1.205  0.0469  0.1638  0.9854
              Bcc     0.0194    10.358     3.696     3.455 -0.5440  0.8315 -0.1123
 
              Baa    -0.0055    -2.916    -1.041    -0.973  0.0199  0.1757  0.9842
    16 H(1)   Bbb    -0.0031    -1.652    -0.590    -0.551  0.7568  0.6407 -0.1297
              Bcc     0.0086     4.568     1.630     1.524 -0.6534  0.7474 -0.1202
 
              Baa    -0.0310   -16.561    -5.909    -5.524  0.7247 -0.6861  0.0641
    17 H(1)   Bbb    -0.0064    -3.430    -1.224    -1.144  0.0723  0.1681  0.9831
              Bcc     0.0375    19.991     7.133     6.668  0.6852  0.7079 -0.1714
 
              Baa    -0.0078    -4.141    -1.478    -1.381  0.7482  0.6381 -0.1818
    18 H(1)   Bbb    -0.0060    -3.197    -1.141    -1.066  0.0592  0.2088  0.9762
              Bcc     0.0138     7.338     2.618     2.448 -0.6608  0.7411 -0.1185
 
              Baa    -0.0018    -0.965    -0.344    -0.322  0.0111  0.3794  0.9252
    19 H(1)   Bbb    -0.0016    -0.831    -0.296    -0.277  0.2888  0.8846 -0.3662
              Bcc     0.0034     1.796     0.641     0.599  0.9573 -0.2713  0.0998
 

 ---------------------------------------------------------------------------------

 Running external command "gaunbo6 R"
         input file       "/tmp/Gau-588537.EIn"
         output file      "/tmp/Gau-588537.EOu"
         message file     "/tmp/Gau-588537.EMs"
         fchk file        "/tmp/Gau-588537.EFC"
         mat. el file     "/tmp/Gau-588537.EUF"

 Writing WrtUnf unformatted file "/tmp/Gau-588537.EUF"
 Gaussian matrix elements                                         Version   2 NLab=11 Len12L=8 Len4L=8
 Write SHELL TO ATOM MAP                   from file      0 offset           0 length                 153 to matrix element file.
 Write SHELL TYPES                         from file      0 offset           0 length                 153 to matrix element file.
 Write NUMBER OF PRIMITIVES PER SHELL      from file      0 offset           0 length                 153 to matrix element file.
 Write PRIMITIVE EXPONENTS                 from file      0 offset           0 length                 268 to matrix element file.
 Write CONTRACTION COEFFICIENTS            from file      0 offset           0 length                 268 to matrix element file.
 Write P(S=P) CONTRACTION COEFFICIENTS     from file      0 offset           0 length                 268 to matrix element file.
 Write COORDINATES OF EACH SHELL           from file      0 offset           0 length                 459 to matrix element file.
 Write BONDS PER ATOM                      from file      0 offset           0 length                  19 to matrix element file.
 Write BONDED ATOMS                        from file      0 offset           0 length                  38 to matrix element file.
 Write BOND TYPES                          from file      0 offset           0 length                  38 to matrix element file.
 Write ONIOM CHARGE/MULT                   from file      0 offset           0 length                  32 to matrix element file.
 Write ONIOM ATOM LAYERS                   from file      0 offset           0 length                  19 to matrix element file.
 Write ONIOM ATOM MODIFIERS                from file      0 offset           0 length                  19 to matrix element file.
 Write ONIOM ATOM TYPES                    from file      0 offset           0 length                  19 to matrix element file.
 Write ONIOM LINK ATOMS                    from file      0 offset           0 length                  19 to matrix element file.
 Write ONIOM LINK CHARGES                  from file      0 offset           0 length                  19 to matrix element file.
 Write ONIOM LINK DISTANCES                from file      0 offset           0 length                  76 to matrix element file.
 Write SYMINF INTS                         from file      0 offset           0 length                  26 to matrix element file.
 Write ROTTR TO SO                         from file      0 offset           0 length                  12 to matrix element file.
 Write GAUSSIAN SCALARS                    from file    501 offset           0 to matrix element file.
 Write OPTIMIZATION FLAGS                  from file      0 offset           0 length                  19 to matrix element file.
 Write INTEGER ISO                         from file      0 offset           0 length                  19 to matrix element file.
 Write INTEGER SPIN                        from file      0 offset           0 length                  19 to matrix element file.
 Write REAL ZEFFECTIVE                     from file      0 offset           0 length                  19 to matrix element file.
 Write REAL GFACTOR                        from file      0 offset           0 length                  19 to matrix element file.
 Write REAL ZNUCLEAR                       from file      0 offset           0 length                  19 to matrix element file.
 Write MULLIKEN CHARGES                    from file      0 offset           0 length                  19 to matrix element file.
 Write TYPE 6 CHARGES                      from file      0 offset           0 length                  19 to matrix element file.
 Write TYPE 7 CHARGES                      from file      0 offset           0 length                  19 to matrix element file.
 Write NUCLEAR GRADIENT                    from file  10584 offset           0 length                  57 to matrix element file.
 Array NUCLEAR FORCE CONSTANTS              on  file  10585 does not exist.
 Write ELECTRIC DIPOLE MOMENT              from file      0 offset           0 length                   3 to matrix element file.
 Write NON-ADIABATIC COUPLING              from file  10810 offset           0 length                  57 to matrix element file.
 Write FINITE EM FIELD                     from file  10521 offset           0 length                  35 to matrix element file.
 Write OVERLAP                             from file  10514 offset           0 length               75855 to matrix element file.
 Write CORE HAMILTONIAN ALPHA              from file  10515 offset           0 length               75855 to matrix element file.
 Write CORE HAMILTONIAN BETA               from file  10515 offset       75855 length               75855 to matrix element file.
 Write KINETIC ENERGY                      from file  10516 offset           0 length               75855 to matrix element file.
 Write ORTHOGONAL BASIS                    from file  10685 offset           0 length              151321 to matrix element file.
 Write DIPOLE INTEGRALS                    from file  10518 offset           0 length              227565 to matrix element file.
 Array DIP VEL INTEGRALS                    on  file  10572 does not exist.
 Array R X DEL INTEGRALS                    on  file  10572 does not exist.
 Write ALPHA ORBITAL ENERGIES              from file      0 offset           0 length                 389 to matrix element file.
 Write BETA ORBITAL ENERGIES               from file      0 offset           0 length                 389 to matrix element file.
 Write ALPHA MO COEFFICIENTS               from file  10524 offset           0 length              151321 to matrix element file.
 Write BETA MO COEFFICIENTS                from file  10526 offset           0 length              151321 to matrix element file.
 Write ALPHA DENSITY MATRIX                from file      0 offset           0 length               75855 to matrix element file.
 Write BETA DENSITY MATRIX                 from file      0 offset           0 length               75855 to matrix element file.
 Write ALPHA FOCK MATRIX                   from file  10536 offset           0 length               75855 to matrix element file.
 Write BETA FOCK MATRIX                    from file  10538 offset           0 length               75855 to matrix element file.
 Write ENERGY-WEIGHTED DENSITY             from file  10571 offset           0 length               75855 to matrix element file.
 Write ALPHA SCF DENSITY MATRIX            from file      0 offset           0 length               75855 to matrix element file.
 Write BETA SCF DENSITY MATRIX             from file      0 offset           0 length               75855 to matrix element file.
 No 2e integrals to process.
 Perform NBO analysis...

 *********************************** NBO 7.0 ***********************************
             N A T U R A L   A T O M I C   O R B I T A L   A N D
          N A T U R A L   B O N D   O R B I T A L   A N A L Y S I S
 **************************** Robert Paton (I101709) ***************************
  (c) Copyright 1996-2019 Board of Regents of the University of Wisconsin System
      on behalf of the Theoretical Chemistry Institute.  All rights reserved.

          Cite this program [NBO 7.0.5 (4-Jun-2019)] as:

          NBO 7.0.  E. D. Glendening, J. K. Badenhoop, A. E. Reed,
          J. E. Carpenter, J. A. Bohmann, C. M. Morales, P. Karafiloglou,
          C. R. Landis, and F. Weinhold, Theoretical Chemistry Institute,
          University of Wisconsin, Madison, WI (2018)

 Filename set to /tmp/Gau-588537

 Job title:  Ac4_rdkit_conf_3_SP_charge_p


 NATURAL POPULATIONS:  Natural atomic orbital occupancies

  NAO Atom No lang   Type(AO)    Occupancy     Spin
 -----------------------------------------------------
   1    C  1  s      Cor( 1s)     1.99999     0.00000
   2    C  1  s      Val( 2s)     1.11600     0.00113
   3    C  1  s      Ryd( 3s)     0.00154     0.00010
   4    C  1  s      Ryd( 4s)     0.00005     0.00000
   5    C  1  s      Ryd( 5s)     0.00000     0.00000
   6    C  1  px     Val( 2p)     1.17664     0.00500
   7    C  1  px     Ryd( 3p)     0.00109     0.00000
   8    C  1  px     Ryd( 4p)     0.00024     0.00000
   9    C  1  py     Val( 2p)     1.02894     0.00086
  10    C  1  py     Ryd( 3p)     0.00130     0.00014
  11    C  1  py     Ryd( 4p)     0.00021    -0.00001
  12    C  1  pz     Val( 2p)     0.92518     0.00794
  13    C  1  pz     Ryd( 3p)     0.00251     0.00007
  14    C  1  pz     Ryd( 4p)     0.00035     0.00000
  15    C  1  dxy    Ryd( 3d)     0.00150    -0.00002
  16    C  1  dxy    Ryd( 4d)     0.00002     0.00000
  17    C  1  dxz    Ryd( 3d)     0.00140    -0.00001
  18    C  1  dxz    Ryd( 4d)     0.00003     0.00000
  19    C  1  dyz    Ryd( 3d)     0.00142     0.00005
  20    C  1  dyz    Ryd( 4d)     0.00009     0.00000
  21    C  1  dx2y2  Ryd( 3d)     0.00127     0.00000
  22    C  1  dx2y2  Ryd( 4d)     0.00006     0.00000
  23    C  1  dz2    Ryd( 3d)     0.00080    -0.00005
  24    C  1  dz2    Ryd( 4d)     0.00009     0.00000
  25    C  1  f(0)   Ryd( 4f)     0.00002     0.00000
  26    C  1  f(c1)  Ryd( 4f)     0.00005     0.00000
  27    C  1  f(s1)  Ryd( 4f)     0.00009     0.00000
  28    C  1  f(c2)  Ryd( 4f)     0.00003     0.00000
  29    C  1  f(s2)  Ryd( 4f)     0.00030     0.00000
  30    C  1  f(c3)  Ryd( 4f)     0.00006     0.00000
  31    C  1  f(s3)  Ryd( 4f)     0.00007     0.00000

  32    O  2  s      Cor( 1s)     2.00000     0.00000
  33    O  2  s      Val( 2s)     1.59416     0.00908
  34    O  2  s      Ryd( 3s)     0.00056     0.00004
  35    O  2  s      Ryd( 4s)     0.00003     0.00000
  36    O  2  s      Ryd( 5s)     0.00000     0.00000
  37    O  2  px     Val( 2p)     1.72127    -0.00008
  38    O  2  px     Ryd( 3p)     0.00423    -0.00004
  39    O  2  px     Ryd( 4p)     0.00009     0.00000
  40    O  2  py     Val( 2p)     1.52037     0.00474
  41    O  2  py     Ryd( 3p)     0.00284     0.00010
  42    O  2  py     Ryd( 4p)     0.00006     0.00000
  43    O  2  pz     Val( 2p)     1.55952     0.09003
  44    O  2  pz     Ryd( 3p)     0.00223     0.00057
  45    O  2  pz     Ryd( 4p)     0.00017     0.00001
  46    O  2  dxy    Ryd( 3d)     0.00262    -0.00001
  47    O  2  dxy    Ryd( 4d)     0.00003     0.00000
  48    O  2  dxz    Ryd( 3d)     0.00270    -0.00008
  49    O  2  dxz    Ryd( 4d)     0.00003     0.00001
  50    O  2  dyz    Ryd( 3d)     0.00352    -0.00014
  51    O  2  dyz    Ryd( 4d)     0.00002     0.00001
  52    O  2  dx2y2  Ryd( 3d)     0.00090     0.00001
  53    O  2  dx2y2  Ryd( 4d)     0.00007     0.00000
  54    O  2  dz2    Ryd( 3d)     0.00358     0.00001
  55    O  2  dz2    Ryd( 4d)     0.00004     0.00001
  56    O  2  f(0)   Ryd( 4f)     0.00001     0.00000
  57    O  2  f(c1)  Ryd( 4f)     0.00002     0.00000
  58    O  2  f(s1)  Ryd( 4f)     0.00005     0.00000
  59    O  2  f(c2)  Ryd( 4f)     0.00003     0.00000
  60    O  2  f(s2)  Ryd( 4f)     0.00010     0.00000
  61    O  2  f(c3)  Ryd( 4f)     0.00011     0.00000
  62    O  2  f(s3)  Ryd( 4f)     0.00013     0.00000

  63    C  3  s      Cor( 1s)     1.99999     0.00000
  64    C  3  s      Val( 2s)     0.89425     0.00899
  65    C  3  s      Ryd( 3s)     0.00162     0.00017
  66    C  3  s      Ryd( 4s)     0.00030     0.00001
  67    C  3  s      Ryd( 5s)     0.00000     0.00000
  68    C  3  px     Val( 2p)     0.93949     0.00647
  69    C  3  px     Ryd( 3p)     0.00299     0.00008
  70    C  3  px     Ryd( 4p)     0.00050     0.00001
  71    C  3  py     Val( 2p)     0.89756     0.01406
  72    C  3  py     Ryd( 3p)     0.00367     0.00035
  73    C  3  py     Ryd( 4p)     0.00034     0.00001
  74    C  3  pz     Val( 2p)     0.73743     0.27640
  75    C  3  pz     Ryd( 3p)     0.00223     0.00045
  76    C  3  pz     Ryd( 4p)     0.00018     0.00007
  77    C  3  dxy    Ryd( 3d)     0.00046    -0.00003
  78    C  3  dxy    Ryd( 4d)     0.00075    -0.00001
  79    C  3  dxz    Ryd( 3d)     0.00086     0.00015
  80    C  3  dxz    Ryd( 4d)     0.00022    -0.00002
  81    C  3  dyz    Ryd( 3d)     0.00106     0.00007
  82    C  3  dyz    Ryd( 4d)     0.00021    -0.00001
  83    C  3  dx2y2  Ryd( 3d)     0.00218    -0.00001
  84    C  3  dx2y2  Ryd( 4d)     0.00033     0.00001
  85    C  3  dz2    Ryd( 3d)     0.00075    -0.00009
  86    C  3  dz2    Ryd( 4d)     0.00010     0.00001
  87    C  3  f(0)   Ryd( 4f)     0.00024     0.00005
  88    C  3  f(c1)  Ryd( 4f)     0.00026     0.00001
  89    C  3  f(s1)  Ryd( 4f)     0.00024     0.00002
  90    C  3  f(c2)  Ryd( 4f)     0.00005     0.00000
  91    C  3  f(s2)  Ryd( 4f)     0.00004     0.00000
  92    C  3  f(c3)  Ryd( 4f)     0.00033    -0.00001
  93    C  3  f(s3)  Ryd( 4f)     0.00022    -0.00001

  94    C  4  s      Cor( 1s)     1.99999     0.00000
  95    C  4  s      Val( 2s)     1.01730     0.00191
  96    C  4  s      Ryd( 3s)     0.00115     0.00004
  97    C  4  s      Ryd( 4s)     0.00007     0.00000
  98    C  4  s      Ryd( 5s)     0.00000     0.00000
  99    C  4  px     Val( 2p)     1.04220    -0.00218
 100    C  4  px     Ryd( 3p)     0.00282     0.00005
 101    C  4  px     Ryd( 4p)     0.00014    -0.00001
 102    C  4  py     Val( 2p)     1.18210     0.01130
 103    C  4  py     Ryd( 3p)     0.00409    -0.00002
 104    C  4  py     Ryd( 4p)     0.00015     0.00001
 105    C  4  pz     Val( 2p)     0.90969     0.12297
 106    C  4  pz     Ryd( 3p)     0.00105     0.00014
 107    C  4  pz     Ryd( 4p)     0.00016     0.00001
 108    C  4  dxy    Ryd( 3d)     0.00147    -0.00004
 109    C  4  dxy    Ryd( 4d)     0.00017     0.00000
 110    C  4  dxz    Ryd( 3d)     0.00034     0.00016
 111    C  4  dxz    Ryd( 4d)     0.00009     0.00002
 112    C  4  dyz    Ryd( 3d)     0.00106    -0.00011
 113    C  4  dyz    Ryd( 4d)     0.00006     0.00000
 114    C  4  dx2y2  Ryd( 3d)     0.00157    -0.00003
 115    C  4  dx2y2  Ryd( 4d)     0.00035     0.00000
 116    C  4  dz2    Ryd( 3d)     0.00125    -0.00008
 117    C  4  dz2    Ryd( 4d)     0.00001     0.00000
 118    C  4  f(0)   Ryd( 4f)     0.00037     0.00005
 119    C  4  f(c1)  Ryd( 4f)     0.00036    -0.00001
 120    C  4  f(s1)  Ryd( 4f)     0.00045     0.00001
 121    C  4  f(c2)  Ryd( 4f)     0.00010     0.00001
 122    C  4  f(s2)  Ryd( 4f)     0.00009     0.00000
 123    C  4  f(c3)  Ryd( 4f)     0.00040    -0.00001
 124    C  4  f(s3)  Ryd( 4f)     0.00032     0.00000

 125    C  5  s      Cor( 1s)     1.99999     0.00000
 126    C  5  s      Val( 2s)     1.00852    -0.00424
 127    C  5  s      Ryd( 3s)     0.00087     0.00002
 128    C  5  s      Ryd( 4s)     0.00002     0.00000
 129    C  5  s      Ryd( 5s)     0.00000     0.00000
 130    C  5  px     Val( 2p)     1.19268    -0.00281
 131    C  5  px     Ryd( 3p)     0.00467     0.00004
 132    C  5  px     Ryd( 4p)     0.00007     0.00000
 133    C  5  py     Val( 2p)     1.03486    -0.01064
 134    C  5  py     Ryd( 3p)     0.00319    -0.00002
 135    C  5  py     Ryd( 4p)     0.00008    -0.00001
 136    C  5  pz     Val( 2p)     0.93459    -0.03183
 137    C  5  pz     Ryd( 3p)     0.00085    -0.00001
 138    C  5  pz     Ryd( 4p)     0.00012    -0.00002
 139    C  5  dxy    Ryd( 3d)     0.00149    -0.00006
 140    C  5  dxy    Ryd( 4d)     0.00026    -0.00001
 141    C  5  dxz    Ryd( 3d)     0.00088    -0.00013
 142    C  5  dxz    Ryd( 4d)     0.00004    -0.00001
 143    C  5  dyz    Ryd( 3d)     0.00024     0.00008
 144    C  5  dyz    Ryd( 4d)     0.00007     0.00004
 145    C  5  dx2y2  Ryd( 3d)     0.00077    -0.00001
 146    C  5  dx2y2  Ryd( 4d)     0.00039     0.00000
 147    C  5  dz2    Ryd( 3d)     0.00090    -0.00002
 148    C  5  dz2    Ryd( 4d)     0.00002     0.00000
 149    C  5  f(0)   Ryd( 4f)     0.00029    -0.00001
 150    C  5  f(c1)  Ryd( 4f)     0.00050     0.00000
 151    C  5  f(s1)  Ryd( 4f)     0.00036    -0.00001
 152    C  5  f(c2)  Ryd( 4f)     0.00008     0.00000
 153    C  5  f(s2)  Ryd( 4f)     0.00008     0.00000
 154    C  5  f(c3)  Ryd( 4f)     0.00033    -0.00001
 155    C  5  f(s3)  Ryd( 4f)     0.00027    -0.00001

 156    C  6  s      Cor( 1s)     1.99999     0.00000
 157    C  6  s      Val( 2s)     1.01580     0.01525
 158    C  6  s      Ryd( 3s)     0.00068    -0.00002
 159    C  6  s      Ryd( 4s)     0.00001     0.00000
 160    C  6  s      Ryd( 5s)     0.00000     0.00000
 161    C  6  px     Val( 2p)     1.09334     0.01184
 162    C  6  px     Ryd( 3p)     0.00338    -0.00005
 163    C  6  px     Ryd( 4p)     0.00008     0.00000
 164    C  6  py     Val( 2p)     1.10152     0.02209
 165    C  6  py     Ryd( 3p)     0.00340    -0.00005
 166    C  6  py     Ryd( 4p)     0.00005     0.00000
 167    C  6  pz     Val( 2p)     0.74115     0.36553
 168    C  6  pz     Ryd( 3p)     0.00058     0.00032
 169    C  6  pz     Ryd( 4p)     0.00008     0.00003
 170    C  6  dxy    Ryd( 3d)     0.00075    -0.00008
 171    C  6  dxy    Ryd( 4d)     0.00039     0.00000
 172    C  6  dxz    Ryd( 3d)     0.00058     0.00008
 173    C  6  dxz    Ryd( 4d)     0.00006    -0.00001
 174    C  6  dyz    Ryd( 3d)     0.00068    -0.00003
 175    C  6  dyz    Ryd( 4d)     0.00005    -0.00001
 176    C  6  dx2y2  Ryd( 3d)     0.00235    -0.00005
 177    C  6  dx2y2  Ryd( 4d)     0.00017     0.00000
 178    C  6  dz2    Ryd( 3d)     0.00120    -0.00027
 179    C  6  dz2    Ryd( 4d)     0.00002     0.00000
 180    C  6  f(0)   Ryd( 4f)     0.00029     0.00009
 181    C  6  f(c1)  Ryd( 4f)     0.00037     0.00001
 182    C  6  f(s1)  Ryd( 4f)     0.00037     0.00002
 183    C  6  f(c2)  Ryd( 4f)     0.00003     0.00000
 184    C  6  f(s2)  Ryd( 4f)     0.00009     0.00002
 185    C  6  f(c3)  Ryd( 4f)     0.00039    -0.00001
 186    C  6  f(s3)  Ryd( 4f)     0.00028    -0.00001

 187    C  7  s      Cor( 1s)     1.99999     0.00000
 188    C  7  s      Val( 2s)     1.00920    -0.00181
 189    C  7  s      Ryd( 4s)     0.00106     0.00001
 190    C  7  s      Ryd( 3s)     0.00006     0.00000
 191    C  7  s      Ryd( 5s)     0.00000     0.00000
 192    C  7  px     Val( 2p)     1.03949    -0.00687
 193    C  7  px     Ryd( 3p)     0.00313     0.00001
 194    C  7  px     Ryd( 4p)     0.00009    -0.00001
 195    C  7  py     Val( 2p)     1.17151     0.00402
 196    C  7  py     Ryd( 3p)     0.00477     0.00002
 197    C  7  py     Ryd( 4p)     0.00006     0.00000
 198    C  7  pz     Val( 2p)     0.87182     0.04208
 199    C  7  pz     Ryd( 3p)     0.00070     0.00010
 200    C  7  pz     Ryd( 4p)     0.00009     0.00000
 201    C  7  dxy    Ryd( 3d)     0.00146    -0.00006
 202    C  7  dxy    Ryd( 4d)     0.00035    -0.00001
 203    C  7  dxz    Ryd( 3d)     0.00028     0.00012
 204    C  7  dxz    Ryd( 4d)     0.00011     0.00005
 205    C  7  dyz    Ryd( 3d)     0.00091    -0.00015
 206    C  7  dyz    Ryd( 4d)     0.00004     0.00000
 207    C  7  dx2y2  Ryd( 3d)     0.00103    -0.00002
 208    C  7  dx2y2  Ryd( 4d)     0.00045     0.00000
 209    C  7  dz2    Ryd( 3d)     0.00108    -0.00006
 210    C  7  dz2    Ryd( 4d)     0.00002     0.00000
 211    C  7  f(0)   Ryd( 4f)     0.00030     0.00001
 212    C  7  f(c1)  Ryd( 4f)     0.00039    -0.00001
 213    C  7  f(s1)  Ryd( 4f)     0.00045     0.00000
 214    C  7  f(c2)  Ryd( 4f)     0.00008     0.00000
 215    C  7  f(s2)  Ryd( 4f)     0.00006     0.00000
 216    C  7  f(c3)  Ryd( 4f)     0.00043    -0.00001
 217    C  7  f(s3)  Ryd( 4f)     0.00027    -0.00001

 218    C  8  s      Cor( 1s)     1.99999     0.00000
 219    C  8  s      Val( 2s)     0.97918    -0.00075
 220    C  8  s      Ryd( 3s)     0.00148     0.00004
 221    C  8  s      Ryd( 4s)     0.00016     0.00000
 222    C  8  s      Ryd( 5s)     0.00000     0.00000
 223    C  8  px     Val( 2p)     1.09386     0.00235
 224    C  8  px     Ryd( 3p)     0.00540    -0.00002
 225    C  8  px     Ryd( 4p)     0.00033     0.00000
 226    C  8  py     Val( 2p)     1.07065     0.00126
 227    C  8  py     Ryd( 3p)     0.00388     0.00008
 228    C  8  py     Ryd( 4p)     0.00021     0.00000
 229    C  8  pz     Val( 2p)     1.00023     0.05221
 230    C  8  pz     Ryd( 3p)     0.00132     0.00017
 231    C  8  pz     Ryd( 4p)     0.00009     0.00000
 232    C  8  dxy    Ryd( 3d)     0.00116    -0.00003
 233    C  8  dxy    Ryd( 4d)     0.00020     0.00000
 234    C  8  dxz    Ryd( 3d)     0.00052    -0.00008
 235    C  8  dxz    Ryd( 4d)     0.00010     0.00000
 236    C  8  dyz    Ryd( 3d)     0.00048     0.00010
 237    C  8  dyz    Ryd( 4d)     0.00016     0.00003
 238    C  8  dx2y2  Ryd( 3d)     0.00145    -0.00001
 239    C  8  dx2y2  Ryd( 4d)     0.00042     0.00000
 240    C  8  dz2    Ryd( 3d)     0.00085    -0.00003
 241    C  8  dz2    Ryd( 4d)     0.00004     0.00001
 242    C  8  f(0)   Ryd( 4f)     0.00047     0.00003
 243    C  8  f(c1)  Ryd( 4f)     0.00051     0.00000
 244    C  8  f(s1)  Ryd( 4f)     0.00045     0.00001
 245    C  8  f(c2)  Ryd( 4f)     0.00010     0.00000
 246    C  8  f(s2)  Ryd( 4f)     0.00013     0.00000
 247    C  8  f(c3)  Ryd( 4f)     0.00048    -0.00001
 248    C  8  f(s3)  Ryd( 4f)     0.00033     0.00000

 249    C  9  s      Cor( 1s)     1.99999     0.00000
 250    C  9  s      Val( 2s)     0.79700    -0.00116
 251    C  9  s      Ryd( 3s)     0.00505    -0.00002
 252    C  9  s      Ryd( 4s)     0.00034     0.00000
 253    C  9  s      Ryd( 5s)     0.00000     0.00000
 254    C  9  px     Val( 2p)     0.87593    -0.00150
 255    C  9  px     Ryd( 4p)     0.00408     0.00000
 256    C  9  px     Ryd( 3p)     0.00019     0.00000
 257    C  9  py     Val( 2p)     0.76170    -0.00018
 258    C  9  py     Ryd( 4p)     0.01530    -0.00001
 259    C  9  py     Ryd( 3p)     0.00011     0.00000
[...]
   65. RY ( 2) C  1             0.00097     1.08139
   66. RY ( 3) C  1             0.00062     0.84754
   67. RY ( 4) C  1             0.00008     0.98735
   68. RY ( 5) C  1             0.00007     1.13244
   69. RY ( 6) C  1             0.00002     1.33569
   70. RY ( 7) C  1             0.00001     1.63749
   71. RY ( 8) C  1             0.00001     1.33089
   72. RY ( 9) C  1             0.00001     1.58459
   73. RY (10) C  1             0.00000     1.55647
   74. RY (11) C  1             0.00000     3.67799
   75. RY (12) C  1             0.00000     2.36010
   76. RY (13) C  1             0.00000     1.73556
   77. RY (14) C  1             0.00000     2.40103
   78. RY (15) C  1             0.00000     1.48667
   79. RY (16) C  1             0.00000     7.11208
   80. RY (17) C  1             0.00000     2.89318
   81. RY (18) C  1             0.00000    10.39797
   82. RY (19) C  1             0.00000     3.80215
   83. RY (20) C  1             0.00000     5.45818
   84. RY (21) C  1             0.00000     2.99161
   85. RY (22) C  1             0.00000     2.97351
   86. RY (23) C  1             0.00000     3.62043
   87. RY (24) C  1             0.00000     4.56321
   88. RY (25) C  1             0.00000     4.00522
   89. RY (26) C  1             0.00000     3.24310
   90. RY ( 1) O  2             0.00252     0.67610
   91. RY ( 2) O  2             0.00084     0.74847
   92. RY ( 3) O  2             0.00025     1.47477
   93. RY ( 4) O  2             0.00010     1.25458
   94. RY ( 5) O  2             0.00005     4.73097
   95. RY ( 6) O  2             0.00003     2.42880
   96. RY ( 7) O  2             0.00002     3.12009
   97. RY ( 8) O  2             0.00002     2.44083
   98. RY ( 9) O  2             0.00001     4.66444
   99. RY (10) O  2             0.00001     3.38255
  100. RY (11) O  2             0.00000     3.89221
  101. RY (12) O  2             0.00000     3.53462
  102. RY (13) O  2             0.00000     4.73658
  103. RY (14) O  2             0.00000     5.88912
  104. RY (15) O  2             0.00000     4.82288
  105. RY (16) O  2             0.00000     6.64252
  106. RY (17) O  2             0.00000    13.10536
  107. RY (18) O  2             0.00000     5.89277
  108. RY (19) O  2             0.00000     3.78720
  109. RY (20) O  2             0.00000     8.76499
  110. RY (21) O  2             0.00000    14.38722
  111. RY (22) O  2             0.00000     5.17898
  112. RY (23) O  2             0.00000     7.34057
  113. RY (24) O  2             0.00000     6.39699
  114. RY (25) O  2             0.00000    14.95983
  115. RY (26) O  2             0.00000     6.24674
  116. RY ( 1) C  3             0.00240     1.36393
  117. RY ( 2) C  3             0.00123     1.66811
  118. RY ( 3) C  3             0.00105     1.28069
  119. RY ( 4) C  3             0.00077     1.30137
  120. RY ( 5) C  3             0.00058     1.42523
  121. RY ( 6) C  3             0.00023     1.75101
  122. RY ( 7) C  3             0.00018     2.83401
  123. RY ( 8) C  3             0.00016     2.63205
  124. RY ( 9) C  3             0.00011     2.36364
  125. RY (10) C  3             0.00007     1.94495
  126. RY (11) C  3             0.00005     1.76791
  127. RY (12) C  3             0.00003     2.48769
  128. RY (13) C  3             0.00002     2.75376
  129. RY (14) C  3             0.00002     2.45610
  130. RY (15) C  3             0.00001     2.50126
  131. RY (16) C  3             0.00001     3.76861
  132. RY (17) C  3             0.00000     2.93178
  133. RY (18) C  3             0.00000     3.71528
  134. RY (19) C  3             0.00000     2.73238
  135. RY (20) C  3             0.00000    15.22905
  136. RY (21) C  3             0.00000     3.07389
  137. RY (22) C  3             0.00000     3.92465
  138. RY (23) C  3             0.00000     3.77590
  139. RY (24) C  3             0.00000     5.27994
  140. RY (25) C  3             0.00000     3.30488
  141. RY (26) C  3             0.00000     3.72515
  142. RY ( 1) C  4             0.00197     1.37162
  143. RY ( 2) C  4             0.00092     1.11572
  144. RY ( 3) C  4             0.00050     0.64009
  145. RY ( 4) C  4             0.00041     0.90903
  146. RY ( 5) C  4             0.00021     1.97035
  147. RY ( 6) C  4             0.00015     1.43859
  148. RY ( 7) C  4             0.00009     2.53285
  149. RY ( 8) C  4             0.00004     1.78629
  150. RY ( 9) C  4             0.00003     2.34366
  151. RY (10) C  4             0.00001     1.59450
  152. RY (11) C  4             0.00001     2.20041
  153. RY (12) C  4             0.00001     3.24673
  154. RY (13) C  4             0.00000     2.49708
  155. RY (14) C  4             0.00000     1.96156
  156. RY (15) C  4             0.00000     3.22595
  157. RY (16) C  4             0.00000     3.31135
  158. RY (17) C  4             0.00000     4.05404
  159. RY (18) C  4             0.00000     4.79707
  160. RY (19) C  4             0.00000     2.68797
  161. RY (20) C  4             0.00000     4.70026
  162. RY (21) C  4             0.00000     3.15036
  163. RY (22) C  4             0.00000     6.41968
  164. RY (23) C  4             0.00000     3.06341
  165. RY (24) C  4             0.00000     5.01091
  166. RY (25) C  4             0.00000     9.10558
  167. RY (26) C  4             0.00000     3.17221
  168. RY ( 1) C  5             0.00225     1.41061
  169. RY ( 2) C  5             0.00074     1.11836
  170. RY ( 3) C  5             0.00031     0.53723
  171. RY ( 4) C  5             0.00026     1.14682
  172. RY ( 5) C  5             0.00018     2.98780
  173. RY ( 6) C  5             0.00003     2.46033
  174. RY ( 7) C  5             0.00002     1.43513
  175. RY ( 8) C  5             0.00001     1.78350
  176. RY ( 9) C  5             0.00001     2.74660
  177. RY (10) C  5             0.00000     2.35839
  178. RY (11) C  5             0.00000     1.76796
  179. RY (12) C  5             0.00000     2.11761
  180. RY (13) C  5             0.00000     6.97411
  181. RY (14) C  5             0.00000     7.62597
  182. RY (15) C  5             0.00000     3.18535
  183. RY (16) C  5             0.00000     3.78672
  184. RY (17) C  5             0.00000     2.79456
  185. RY (18) C  5             0.00000     2.98457
  186. RY (19) C  5             0.00000     3.62095
  187. RY (20) C  5             0.00000     3.08431
  188. RY (21) C  5             0.00000     3.23974
  189. RY (22) C  5             0.00000     4.44108
  190. RY (23) C  5             0.00000     3.04130
  191. RY (24) C  5             0.00000     2.87576
  192. RY (25) C  5             0.00000     3.42418
  193. RY (26) C  5             0.00000     4.97396
  194. RY ( 1) C  6             0.00193     1.38561
  195. RY ( 2) C  6             0.00059     1.12160
  196. RY ( 3) C  6             0.00019     1.19017
  197. RY ( 4) C  6             0.00014     2.94658
  198. RY ( 5) C  6             0.00013     2.49330
  199. RY ( 6) C  6             0.00006     0.81783
  200. RY ( 7) C  6             0.00004     1.90712
  201. RY ( 8) C  6             0.00001     2.45062
  202. RY ( 9) C  6             0.00001     1.45248
  203. RY (10) C  6             0.00001     1.90935
  204. RY (11) C  6             0.00000     2.76980
  205. RY (12) C  6             0.00000     1.47581
  206. RY (13) C  6             0.00000     2.19319
  207. RY (14) C  6             0.00000     6.11499
  208. RY (15) C  6             0.00000     2.44055
  209. RY (16) C  6             0.00000     7.18472
  210. RY (17) C  6             0.00000     2.92036
  211. RY (18) C  6             0.00000     2.81402
  212. RY (19) C  6             0.00000     2.76252
  213. RY (20) C  6             0.00000     3.53920
  214. RY (21) C  6             0.00000     3.35065
  215. RY (22) C  6             0.00000     3.12060
  216. RY (23) C  6             0.00000     3.84783
  217. RY (24) C  6             0.00000     2.86721
  218. RY (25) C  6             0.00000     2.88540
  219. RY (26) C  6             0.00000    10.45487
  220. RY ( 1) C  7             0.00245     1.44424
  221. RY ( 2) C  7             0.00092     1.06217
  222. RY ( 3) C  7             0.00036     1.60313
  223. RY ( 4) C  7             0.00030     0.82395
  224. RY ( 5) C  7             0.00023     2.49886
  225. RY ( 6) C  7             0.00005     2.13008
  226. RY ( 7) C  7             0.00005     2.47849
  227. RY ( 8) C  7             0.00004     1.35701
  228. RY ( 9) C  7             0.00003     2.23017
  229. RY (10) C  7             0.00002     2.12696
  230. RY (11) C  7             0.00001     2.14146
  231. RY (12) C  7             0.00001     1.85637
  232. RY (13) C  7             0.00000     2.86550
  233. RY (14) C  7             0.00000     2.47312
  234. RY (15) C  7             0.00000     2.29359
  235. RY (16) C  7             0.00000     4.15661
  236. RY (17) C  7             0.00000     2.55733
  237. RY (18) C  7             0.00000     3.06841
  238. RY (19) C  7             0.00000    10.69430
  239. RY (20) C  7             0.00000     3.05492
  240. RY (21) C  7             0.00000     3.60992
  241. RY (22) C  7             0.00000     3.13236
  242. RY (23) C  7             0.00000     6.20540
  243. RY (24) C  7             0.00000     4.45853
  244. RY (25) C  7             0.00000     2.85236
  245. RY (26) C  7             0.00000     3.49904
  246. RY ( 1) C  8             0.00268     1.14579
  247. RY ( 2) C  8             0.00187     1.07361
  248. RY ( 3) C  8             0.00064     0.89715
  249. RY ( 4) C  8             0.00053     0.91009
  250. RY ( 5) C  8             0.00031     1.69948
  251. RY ( 6) C  8             0.00020     2.05103
  252. RY ( 7) C  8             0.00019     1.70493
  253. RY ( 8) C  8             0.00016     1.95558
  254. RY ( 9) C  8             0.00011     3.40731
  255. RY (10) C  8             0.00008     2.69589
  256. RY (11) C  8             0.00006     1.89039
  257. RY (12) C  8             0.00004     3.25170
  258. RY (13) C  8             0.00003     3.09399
  259. RY (14) C  8             0.00001     3.63714
  260. RY (15) C  8             0.00001     3.63223
  261. RY (16) C  8             0.00000     1.95351
  262. RY (17) C  8             0.00000     3.51543
  263. RY (18) C  8             0.00000     3.04537
  264. RY (19) C  8             0.00000     3.46447
  265. RY (20) C  8             0.00000     5.09593
  266. RY (21) C  8             0.00000     4.01185
  267. RY (22) C  8             0.00000     3.78664
  268. RY (23) C  8             0.00000     3.16082
  269. RY (24) C  8             0.00000     3.17355
  270. RY (25) C  8             0.00000     3.36287
  271. RY (26) C  8             0.00000    15.72119
  272. RY ( 1) C  9             0.00786     1.19965
  273. RY ( 2) C  9             0.00301     1.69729
  274. RY ( 3) C  9             0.00202     1.82059
  275. RY ( 4) C  9             0.00116     2.41107
  276. RY ( 5) C  9             0.00040     1.43469
  277. RY ( 6) C  9             0.00033     2.67956
  278. RY ( 7) C  9             0.00025     2.41132
  279. RY ( 8) C  9             0.00009     1.36536
  280. RY ( 9) C  9             0.00006     1.89415
  281. RY (10) C  9             0.00003     2.30153
  282. RY (11) C  9             0.00002     1.58714
  283. RY (12) C  9             0.00001     1.80191
  284. RY (13) C  9             0.00001     2.89948
  285. RY (14) C  9             0.00000     1.76664
  286. RY (15) C  9             0.00000     2.30058
  287. RY (16) C  9             0.00000     2.81212
  288. RY (17) C  9             0.00000     2.45108
  289. RY (18) C  9             0.00000     5.63587
  290. RY (19) C  9             0.00000     4.13907
  291. RY (20) C  9             0.00000     5.98683
  292. RY (21) C  9             0.00000     5.70579
  293. RY (22) C  9             0.00000     2.96713
  294. RY (23) C  9             0.00000     9.40744
  295. RY (24) C  9             0.00000     3.10043
  296. RY (25) C  9             0.00000     3.10364
  297. RY (26) C  9             0.00000     4.93000
  298. RY ( 1) O 10             0.00096     0.85760
  299. RY ( 2) O 10             0.00043     0.83944
  300. RY ( 3) O 10             0.00009     2.61682
  301. RY ( 4) O 10             0.00005     1.81324
  302. RY ( 5) O 10             0.00004     1.55495
  303. RY ( 6) O 10             0.00002     2.27289
  304. RY ( 7) O 10             0.00001     3.95409
  305. RY ( 8) O 10             0.00000     2.25978
  306. RY ( 9) O 10             0.00000     3.72830
  307. RY (10) O 10             0.00000     3.20391
  308. RY (11) O 10             0.00000    21.28842
  309. RY (12) O 10             0.00000     3.80431
  310. RY (13) O 10             0.00000     9.24700
  311. RY (14) O 10             0.00000     2.51897
  312. RY (15) O 10             0.00000     5.97118
  313. RY (16) O 10             0.00000     2.15492
  314. RY (17) O 10             0.00000     5.56093
  315. RY (18) O 10             0.00000     8.42281
  316. RY (19) O 10             0.00000    11.72063
  317. RY (20) O 10             0.00000     5.52705
  318. RY (21) O 10             0.00000     8.20545
  319. RY (22) O 10             0.00000     6.49243
  320. RY (23) O 10             0.00000     8.50659
  321. RY (24) O 10             0.00000     5.84678
  322. RY (25) O 10             0.00000     4.90961
  323. RY (26) O 10             0.00000     5.66038
  324. RY ( 1) O 11             0.00063     0.64277
  325. RY ( 2) O 11             0.00053     0.94371
  326. RY ( 3) O 11             0.00033     2.51029
  327. RY ( 4) O 11             0.00008     0.96082
  328. RY ( 5) O 11             0.00003     1.57609
  329. RY ( 6) O 11             0.00003     2.68937
  330. RY ( 7) O 11             0.00002     2.40156
  331. RY ( 8) O 11             0.00001     3.58371
  332. RY ( 9) O 11             0.00000     2.95671
  333. RY (10) O 11             0.00000     3.76940
  334. RY (11) O 11             0.00000     2.79418
  335. RY (12) O 11             0.00000     4.44563
  336. RY (13) O 11             0.00000     5.58399
  337. RY (14) O 11             0.00000     5.82801
  338. RY (15) O 11             0.00000    19.57864
  339. RY (16) O 11             0.00000     6.77121
  340. RY (17) O 11             0.00000     5.47463
  341. RY (18) O 11             0.00000     3.47870
  342. RY (19) O 11             0.00000    13.62374
  343. RY (20) O 11             0.00000     5.41871
  344. RY (21) O 11             0.00000     6.65073
  345. RY (22) O 11             0.00000     6.64862
  346. RY (23) O 11             0.00000     5.52367
  347. RY (24) O 11             0.00000     6.78258
  348. RY (25) O 11             0.00000    14.15016
  349. RY (26) O 11             0.00000     3.56874
  350. RY ( 1) H 12             0.00030     0.49849
  351. RY ( 2) H 12             0.00002     2.04473
  352. RY ( 3) H 12             0.00002     2.05156
  353. RY ( 4) H 12             0.00001     2.15462
  354. RY ( 5) H 12             0.00000     2.27737
  355. RY ( 1) H 13             0.00011     0.93149
  356. RY ( 2) H 13             0.00002     1.91873
  357. RY ( 3) H 13             0.00001     1.83910
  358. RY ( 4) H 13             0.00001     2.03731
  359. RY ( 5) H 13             0.00000     2.20369
  360. RY ( 1) H 14             0.00031     0.52088
  361. RY ( 2) H 14             0.00003     2.04215
  362. RY ( 3) H 14             0.00002     2.02325
  363. RY ( 4) H 14             0.00001     2.09875
  364. RY ( 5) H 14             0.00000     2.37805
  365. RY ( 1) H 15             0.00021     0.76977
  366. RY ( 2) H 15             0.00004     1.51780
  367. RY ( 3) H 15             0.00002     1.96486
  368. RY ( 4) H 15             0.00001     2.34125
  369. RY ( 5) H 15             0.00001     2.73677
  370. RY ( 1) H 16             0.00010     0.47672
  371. RY ( 2) H 16             0.00005     1.83142
  372. RY ( 3) H 16             0.00002     1.95714
  373. RY ( 4) H 16             0.00001     2.30848
  374. RY ( 5) H 16             0.00000     2.73790
  375. RY ( 1) H 17             0.00007     0.76498
  376. RY ( 2) H 17             0.00004     1.58393
  377. RY ( 3) H 17             0.00001     2.29192
  378. RY ( 4) H 17             0.00000     1.94433
  379. RY ( 5) H 17             0.00000     2.72567
  380. RY ( 1) H 18             0.00019     1.10892
  381. RY ( 2) H 18             0.00005     1.31375
  382. RY ( 3) H 18             0.00002     2.15876
  383. RY ( 4) H 18             0.00002     2.08421
  384. RY ( 5) H 18             0.00000     2.74201
  385. RY ( 1) H 19             0.00041     1.22766
  386. RY ( 2) H 19             0.00028     1.83103
  387. RY ( 3) H 19             0.00021     1.24757
  388. RY ( 4) H 19             0.00006     1.97454
  389. RY ( 5) H 19             0.00000     3.12195
          -------------------------------
                 Total Lewis   38.17585  ( 97.8868%)
           Valence non-Lewis    0.76649  (  1.9654%)
           Rydberg non-Lewis    0.05766  (  0.1478%)
          -------------------------------
               Total unit  1   39.00000  (100.0000%)
              Charge unit  1    1.00000

 $CHOOSE
  ALPHA
   LONE 2 2 10 2 11 2 END
   BOND S 1 2 S 1 12 S 1 13 S 1 14 S 2 3 S 3 4 D 3 8 D 4 5 S 4 15 S 5 6 S 5 16
        D 6 7 S 6 17 S 7 8 S 7 18 S 8 9 D 9 10 S 9 11 S 11 19 END
  END
  BETA
   LONE 2 2 10 2 11 2 END
   BOND S 1 2 S 1 12 S 1 13 S 1 14 S 2 3 S 3 4 S 3 8 D 4 5 S 4 15 S 5 6 S 5 16
        S 6 7 S 6 17 D 7 8 S 7 18 S 8 9 D 9 10 S 9 11 S 11 19 END
  END
 $END

 NBO analysis completed in 4.85 CPU seconds (5 wall seconds)
 Maximum scratch memory used by NBO was 1737904 words (13.26 MB)
 Maximum scratch memory used by G16NBO was 313135 words (2.39 MB)

 Opening RunExU unformatted file "/tmp/Gau-588537.EUF"
 Read unf file /tmp/Gau-588537.EUF:
 Label Gaussian matrix elements                                         IVers= 2 NLab= 2 Version=AS64L-G16RevC.01
 Title Ac4_rdkit_conf_3_SP_charge_p                                    
 NAtoms=    19 NBasis=   389 NBsUse=   389 ICharg=     1 Multip=     2 NE=    79 Len12L=8 Len4L=8 IOpCl= 1 ICGU=112
 GAUSSIAN SCALARS                    NI= 1 NR= 1 NTot=       1 LenBuf=    2 NRI=1 N=    1000
 NPA CHARGES                         NI= 0 NR= 1 NTot=      19 LenBuf= 2048 NRI=1 N=      19
 Recovered energy= -534.995175286     dipole=     -1.946644219989      0.682275960164      0.617017143580
 Unable to Open any file for archive entry.
 1\1\GINC-NODE18\SP\UM062X\def2TZVP\C8H8O3(1+,2)\SVSS\29-Jan-2024\0\\# 
 pop=(nbo6, hirshfeld) m062x/def2tzvp\\Ac4_rdkit_conf_3_SP_charge_p\\1,
 2\C,0,0.81887,2.568572,0.486238\O,0,0.47873,1.710061,-0.591784\C,0,-0.
 391914,0.713364,-0.264149\C,0,-1.752579,1.001698,-0.227769\C,0,-2.6758
 93,0.00311,0.027052\C,0,-2.251199,-1.304215,0.235095\C,0,-0.901466,-1.
 595949,0.189559\C,0,0.043937,-0.595951,-0.041361\C,0,1.469064,-1.02971
 ,-0.04837\O,0,1.814267,-2.170553,-0.201068\O,0,2.354933,-0.046194,0.17
 6857\H,0,-0.073093,3.054019,0.891683\H,0,1.492221,3.321149,0.083629\H,
 0,1.324367,2.008731,1.275413\H,0,-2.065986,2.018507,-0.426795\H,0,-3.7
 31391,0.242092,0.049298\H,0,-2.97015,-2.089642,0.42368\H,0,-0.542114,-
 2.606055,0.334406\H,0,3.229789,-0.460822,0.158868\\Version=AS64L-G16Re
 vC.01\State=2-A\HF=-534.9951753\S2=0.767853\S2-1=0.\S2A=0.750103\RMSD=
 7.012e-09\Dipole=-1.946644,0.6822765,0.6170171\Quadrupole=11.1020512,-
 0.003293,-11.0987581,5.6778607,0.7925961,-0.1983254\PG=C01 [X(C8H8O3)]
 \\@
 The archive entry for this job was punched.


 Money is a good servant but a bad master.
                        -- French Proverb
 Job cpu time:       0 days  0 hours 34 minutes  1.7 seconds.
 Elapsed time:       0 days  0 hours  4 minutes 26.3 seconds.
 File lengths (MBytes):  RWF=    149 Int=      0 D2E=      0 Chk=     12 Scr=      1
 Normal termination of Gaussian 16 at Mon Jan 29 15:35:18 2024.
