Job Start Time: Mon Jan 29 15:30:52 MST 2024
SLURM Job ID: 229861
SLURM Job Name: Ac5_rdkit_conf_3_SP_charge_p
 Entering Gaussian System, Link 0=/opt/apps/Gaussian/G16C/g16/g16
 Initial command:
 /opt/apps/Gaussian/G16C/g16/l1.exe "/tmp/Gau-3413863.inp" -scrdir="/tmp/"
 Entering Link 1 = /opt/apps/Gaussian/G16C/g16/l1.exe PID=   3413864.
  
 Copyright (c) 1988-2019, Gaussian, Inc.  All Rights Reserved.
  
 This is part of the Gaussian(R) 16 program.  It is based on
 the Gaussian(R) 09 system (copyright 2009, Gaussian, Inc.),
 the Gaussian(R) 03 system (copyright 2003, Gaussian, Inc.),
 the Gaussian(R) 98 system (copyright 1998, Gaussian, Inc.),
 the Gaussian(R) 94 system (copyright 1995, Gaussian, Inc.),
 the Gaussian 92(TM) system (copyright 1992, Gaussian, Inc.),
 the Gaussian 90(TM) system (copyright 1990, Gaussian, Inc.),
 the Gaussian 88(TM) system (copyright 1988, Gaussian, Inc.),
 the Gaussian 86(TM) system (copyright 1986, Carnegie Mellon
 University), and the Gaussian 82(TM) system (copyright 1983,
 Carnegie Mellon University). Gaussian is a federally registered
 trademark of Gaussian, Inc.
  
 This software contains proprietary and confidential information,
 including trade secrets, belonging to Gaussian, Inc.
  
 This software is provided under written license and may be
 used, copied, transmitted, or stored only in accord with that
 written license.
  
 The following legend is applicable only to US Government
 contracts under FAR:
  
                    RESTRICTED RIGHTS LEGEND
  
 Use, reproduction and disclosure by the US Government is
 subject to restrictions as set forth in subparagraphs (a)
 and (c) of the Commercial Computer Software - Restricted
 Rights clause in FAR 52.227-19.
  
 Gaussian, Inc.
 340 Quinnipiac St., Bldg. 40, Wallingford CT 06492
  
  
 ---------------------------------------------------------------
 Warning -- This program may not be used in any manner that
 competes with the business of Gaussian, Inc. or will provide
 assistance to any competitor of Gaussian, Inc.  The licensee
 of this program is prohibited from giving any competitor of
 Gaussian, Inc. access to this program.  By using this program,
 the user acknowledges that Gaussian, Inc. is engaged in the
 business of creating and licensing software in the field of
 computational chemistry and represents and warrants to the
 licensee that it is not a competitor of Gaussian, Inc. and that
 it will not use this program in any manner prohibited above.
 ---------------------------------------------------------------
  

 Cite this work as:
 Gaussian 16, Revision C.01,
 M. J. Frisch, G. W. Trucks, H. B. Schlegel, G. E. Scuseria, 
 M. A. Robb, J. R. Cheeseman, G. Scalmani, V. Barone, 
 G. A. Petersson, H. Nakatsuji, X. Li, M. Caricato, A. V. Marenich, 
 J. Bloino, B. G. Janesko, R. Gomperts, B. Mennucci, H. P. Hratchian, 
 J. V. Ortiz, A. F. Izmaylov, J. L. Sonnenberg, D. Williams-Young, 
 F. Ding, F. Lipparini, F. Egidi, J. Goings, B. Peng, A. Petrone, 
 T. Henderson, D. Ranasinghe, V. G. Zakrzewski, J. Gao, N. Rega, 
 G. Zheng, W. Liang, M. Hada, M. Ehara, K. Toyota, R. Fukuda, 
 J. Hasegawa, M. Ishida, T. Nakajima, Y. Honda, O. Kitao, H. Nakai, 
 T. Vreven, K. Throssell, J. A. Montgomery, Jr., J. E. Peralta, 
 F. Ogliaro, M. J. Bearpark, J. J. Heyd, E. N. Brothers, K. N. Kudin, 
 V. N. Staroverov, T. A. Keith, R. Kobayashi, J. Normand, 
 K. Raghavachari, A. P. Rendell, J. C. Burant, S. S. Iyengar, 
 J. Tomasi, M. Cossi, J. M. Millam, M. Klene, C. Adamo, R. Cammi, 
 J. W. Ochterski, R. L. Martin, K. Morokuma, O. Farkas, 
 J. B. Foresman, and D. J. Fox, Gaussian, Inc., Wallingford CT, 2019.
 
 ******************************************
 Gaussian 16:  AS64L-G16RevC.01  3-Jul-2019
                29-Jan-2024 
 ******************************************
 %nprocshared=8
 Will use up to    8 processors via shared memory.
 %mem=16GB
 --------------------------------------
 # pop=(nbo6, hirshfeld) m062x/def2tzvp
 --------------------------------------
 1/38=1,172=1/1;
 2/12=2,17=6,18=5,40=1/2;
 3/5=44,7=101,11=2,25=1,30=1,74=-55/1,2,3;
 4//1;
 5/5=2,38=5/2;
 6/7=2,8=2,9=2,10=2,28=1,40=1,79=1,113=1,114=1,124=3103,126=1/1,12;
 99/5=1,9=1/99;
 ----------------------------
 Ac5_rdkit_conf_3_SP_charge_p
 ----------------------------
 Symbolic Z-matrix:
 Charge =  1 Multiplicity = 2
 C                    -1.42658   1.8853    0.26277 
 C                    -1.02231   0.42241   0.42787 
 C                    -1.4041   -0.04817   1.83888 
 C                    -1.77427  -0.38277  -0.63025 
 O                    -2.20281   0.05944  -1.65801 
 O                    -1.90714  -1.6849   -0.30758 
 C                     0.47435   0.18723   0.17851 
 C                     1.02545  -1.08098   0.37401 
 C                     2.37521  -1.31284   0.16442 
 C                     3.20769  -0.27996  -0.2453 
 C                     2.67276   0.9814   -0.44713 
 C                     1.31792   1.21167  -0.24073 
 H                    -1.24191   2.24142  -0.74835 
 H                    -0.87981   2.5056    0.97339 
 H                    -2.49292   1.99346   0.46089 
 H                    -1.15389  -1.09247   2.00573 
 H                    -0.86947   0.55869   2.57022 
 H                    -2.47586   0.07501   2.00274 
 H                    -2.35062  -2.11351  -1.05389 
 H                     0.39029  -1.90066   0.68241 
 H                     2.77796  -2.30513   0.32204 
 H                     4.2624   -0.4595   -0.40761 
 H                     3.30805   1.79606  -0.77015 
 H                     0.92858   2.20505  -0.41101 
 
                          Input orientation:                          
 ---------------------------------------------------------------------
 Center     Atomic      Atomic             Coordinates (Angstroms)
 Number     Number       Type             X           Y           Z
 ---------------------------------------------------------------------
      1          6           0       -1.426577    1.885298    0.262769
      2          6           0       -1.022308    0.422408    0.427874
      3          6           0       -1.404101   -0.048170    1.838882
      4          6           0       -1.774268   -0.382772   -0.630252
      5          8           0       -2.202813    0.059444   -1.658005
      6          8           0       -1.907135   -1.684903   -0.307582
      7          6           0        0.474354    0.187226    0.178509
      8          6           0        1.025446   -1.080980    0.374013
      9          6           0        2.375212   -1.312843    0.164418
     10          6           0        3.207689   -0.279962   -0.245304
     11          6           0        2.672761    0.981402   -0.447134
     12          6           0        1.317919    1.211669   -0.240730
     13          1           0       -1.241906    2.241416   -0.748350
     14          1           0       -0.879808    2.505598    0.973389
     15          1           0       -2.492915    1.993456    0.460885
     16          1           0       -1.153888   -1.092471    2.005731
     17          1           0       -0.869472    0.558692    2.570218
     18          1           0       -2.475857    0.075009    2.002742
     19          1           0       -2.350617   -2.113507   -1.053886
     20          1           0        0.390287   -1.900657    0.682412
     21          1           0        2.777964   -2.305129    0.322043
     22          1           0        4.262403   -0.459500   -0.407611
     23          1           0        3.308054    1.796060   -0.770145
     24          1           0        0.928575    2.205049   -0.411005
 ---------------------------------------------------------------------
                    Distance matrix (angstroms):
                    1          2          3          4          5
     1  C    0.000000
     2  C    1.526676   0.000000
     3  C    2.494581   1.535628   0.000000
     4  C    2.462218   1.527544   2.519048   0.000000
     5  O    2.761459   2.424093   3.588557   1.198116   0.000000
     6  O    3.647269   2.400953   2.745769   1.348078   2.225717
     7  C    2.550311   1.535412   2.518103   2.456683   3.249051
     8  C    3.850142   2.540939   3.019145   3.055232   3.981372
     9  C    4.969042   3.824088   4.322781   4.326051   5.114950
    10  C    5.140322   4.340434   5.066179   4.997865   5.602183
    11  C    4.257413   3.838183   4.786094   4.655166   5.107586
    12  C    2.870461   2.558638   3.649846   3.500798   3.966339
    13  H    1.087789   2.177273   3.458653   2.680246   2.551826
    14  H    1.090279   2.158141   2.746942   3.422631   3.828609
    15  H    1.089966   2.152200   2.693070   2.711732   2.883445
    16  H    3.461125   2.191302   1.086743   2.799455   3.981220
    17  H    2.719296   2.152108   1.090395   3.456591   4.461493
    18  H    2.721331   2.171106   1.091185   2.763050   3.670949
    19  H    4.310206   3.223489   3.678263   1.872722   2.260204
    20  H    4.220255   2.730722   2.826475   2.951671   4.005461
    21  H    5.936443   4.678966   4.988420   5.032409   5.858322
    22  H    6.189667   5.422543   6.109435   6.041263   6.605438
    23  H    4.846814   4.698319   5.693207   5.531444   5.845835
    24  H    2.470416   2.772629   3.947197   3.748366   3.995525
                    6          7          8          9         10
     6  O    0.000000
     7  C    3.068003   0.000000
     8  C    3.070721   1.396521   0.000000
     9  C    4.324316   2.421501   1.385481   0.000000
    10  C    5.304636   2.805174   2.405695   1.388428   0.000000
    11  C    5.301330   2.419739   2.764299   2.392925   1.384891
    12  C    4.335386   1.391706   2.391587   2.766799   2.407533
    13  H    4.006593   2.832722   4.175991   5.152615   5.138998
    14  H    4.500732   2.800078   4.105215   5.082330   5.094329
    15  H    3.803157   3.485239   4.673175   5.892212   6.177703
    16  H    2.503952   2.761800   2.722523   3.986671   4.975006
    17  H    3.793705   2.768416   3.332050   4.451796   5.025311
    18  H    2.959448   3.470470   4.030905   5.370143   6.122288
    19  H    0.968167   3.846119   3.808255   4.945583   5.908507
    20  H    2.510933   2.149475   1.081854   2.133956   3.380098
    21  H    4.767731   3.396918   2.138355   1.082445   2.146590
    22  H    6.290852   3.887301   3.387486   2.148698   1.082127
    23  H    6.287230   3.393840   3.846655   3.377703   2.143688
    24  H    4.814943   2.150687   3.379885   3.847003   3.375959
                   11         12         13         14         15
    11  C    0.000000
    12  C    1.389684   0.000000
    13  H    4.123467   2.805488   0.000000
    14  H    4.118471   2.824596   1.779127   0.000000
    15  H    5.341625   3.952962   1.757486   1.768351   0.000000
    16  H    4.996072   4.057768   4.325218   3.753259   3.701687
    17  H    4.672313   3.621117   3.739406   2.518018   3.023806
    18  H    5.773362   4.551692   3.712743   3.084591   2.461311
    19  H    5.931352   5.017587   4.504214   5.254451   4.379717
    20  H    3.846014   3.376280   4.676313   4.594877   4.850365
    21  H    3.376979   3.849196   6.162481   6.078375   6.802887
    22  H    2.145862   3.389785   6.140722   6.094366   7.239171
    23  H    1.082405   2.140661   4.571756   4.591464   5.933434
    24  H    2.130916   1.080456   2.196841   2.297199   3.537168
                   16         17         18         19         20
    16  H    0.000000
    17  H    1.768015   0.000000
    18  H    1.763695   1.771003   0.000000
    19  H    3.440339   4.740102   3.761418   0.000000
    20  H    2.188336   3.346521   3.723078   3.251552   0.000000
    21  H    4.445763   5.153596   6.007698   5.313402   2.448360
    22  H    5.963311   6.019993   7.176326   6.847295   4.272981
    23  H    5.996501   5.490066   6.641125   6.883733   4.928387
    24  H    4.588126   3.851124   4.685446   5.460432   4.282772
                   21         22         23         24
    21  H    0.000000
    22  H    2.478367   0.000000
    23  H    4.277104   2.475836   0.000000
    24  H    4.929432   4.267815   2.440937   0.000000
 Stoichiometry    C10H12O2(1+,2)
 Framework group  C1[X(C10H12O2)]
 Deg. of freedom    66
 Full point group                 C1      NOp   1
 Largest Abelian subgroup         C1      NOp   1
 Largest concise Abelian subgroup C1      NOp   1
                         Standard orientation:                         
 ---------------------------------------------------------------------
 Center     Atomic      Atomic             Coordinates (Angstroms)
 Number     Number       Type             X           Y           Z
 ---------------------------------------------------------------------
      1          6           0       -1.426577    1.885298    0.262769
      2          6           0       -1.022308    0.422408    0.427874
      3          6           0       -1.404101   -0.048170    1.838882
      4          6           0       -1.774268   -0.382772   -0.630252
      5          8           0       -2.202813    0.059444   -1.658005
      6          8           0       -1.907135   -1.684903   -0.307582
      7          6           0        0.474354    0.187226    0.178509
      8          6           0        1.025446   -1.080980    0.374013
      9          6           0        2.375212   -1.312843    0.164418
     10          6           0        3.207689   -0.279962   -0.245304
     11          6           0        2.672761    0.981402   -0.447134
     12          6           0        1.317919    1.211669   -0.240730
     13          1           0       -1.241906    2.241416   -0.748350
     14          1           0       -0.879808    2.505598    0.973389
     15          1           0       -2.492915    1.993456    0.460885
     16          1           0       -1.153888   -1.092471    2.005731
     17          1           0       -0.869472    0.558692    2.570218
     18          1           0       -2.475857    0.075009    2.002742
     19          1           0       -2.350617   -2.113507   -1.053886
     20          1           0        0.390287   -1.900657    0.682412
     21          1           0        2.777964   -2.305129    0.322043
     22          1           0        4.262403   -0.459500   -0.407611
     23          1           0        3.308054    1.796060   -0.770145
     24          1           0        0.928575    2.205049   -0.411005
 ---------------------------------------------------------------------
 Rotational constants (GHZ):           1.6062536           0.6952714           0.6285052
 Standard basis: def2TZVP (5D, 7F)
 There are   504 symmetry adapted cartesian basis functions of A   symmetry.
 There are   444 symmetry adapted basis functions of A   symmetry.
   444 basis functions,   708 primitive gaussians,   504 cartesian basis functions
    44 alpha electrons       43 beta electrons
       nuclear repulsion energy       701.8619352578 Hartrees.
 NAtoms=   24 NActive=   24 NUniq=   24 SFac= 1.00D+00 NAtFMM=   60 NAOKFM=F Big=F
 Integral buffers will be    131072 words long.
 Raffenetti 2 integral format.
 Two-electron integral symmetry is turned on.
 One-electron integrals computed using PRISM.
   1 Symmetry operations used in ECPInt.
 ECPInt:  NShTT=   16290 NPrTT=   49128 LenC2=   15660 LenP2D=   36357.
 LDataN:  DoStor=T MaxTD1= 6 Len=  172
 NBasis=   444 RedAO= T EigKep=  7.55D-06  NBF=   444
 NBsUse=   444 1.00D-06 EigRej= -1.00D+00 NBFU=   444
 ExpMin= 9.52D-02 ExpMax= 2.70D+04 ExpMxC= 9.22D+02 IAcc=3 IRadAn=         5 AccDes= 0.00D+00
 Harris functional with IExCor= 1009 and IRadAn=       5 diagonalized for initial guess.
 HarFok:  IExCor= 1009 AccDes= 0.00D+00 IRadAn=         5 IDoV= 1 UseB2=F ITyADJ=14
 ICtDFT=  3500011 ScaDFX=  1.000000  1.000000  1.000000  1.000000
 FoFCou: FMM=F IPFlag=           0 FMFlag=      100000 FMFlg1=           0
         NFxFlg=           0 DoJE=T BraDBF=F KetDBF=T FulRan=T
         wScrn=  0.000000 ICntrl=       500 IOpCl=  0 I1Cent=   200000004 NGrid=           0
         NMat0=    1 NMatS0=      1 NMatT0=    0 NMatD0=    1 NMtDS0=    0 NMtDT0=    0
 Petite list used in FoFCou.
 Initial guess <Sx>= 0.0000 <Sy>= 0.0000 <Sz>= 0.5000 <S**2>= 0.7500 S= 0.5000
 Requested convergence on RMS density matrix=1.00D-08 within 128 cycles.
 Requested convergence on MAX density matrix=1.00D-06.
 Requested convergence on             energy=1.00D-06.
 No special actions if energy rises.
 Integral accuracy reduced to 1.0D-05 until final iterations.
 Initial convergence to 1.0D-05 achieved.  Increase integral accuracy.
 SCF Done:  E(UM062X) =  -538.404705968     A.U. after   29 cycles
            NFock= 29  Conv=0.56D-08     -V/T= 2.0044
 <Sx>= 0.0000 <Sy>= 0.0000 <Sz>= 0.5000 <S**2>= 0.7671 S= 0.5085
 <L.S>=  0.00000000000    
 Annihilation of the first spin contaminant:
 S**2 before annihilation     0.7671,   after     0.7501

 **********************************************************************

            Population analysis using the SCF Density.

 **********************************************************************

 Orbital symmetries:
 Alpha Orbitals:
       Occupied  (A) (A) (A) (A) (A) (A) (A) (A) (A) (A) (A) (A)
                 (A) (A) (A) (A) (A) (A) (A) (A) (A) (A) (A) (A)
                 (A) (A) (A) (A) (A) (A) (A) (A) (A) (A) (A) (A)
                 (A) (A) (A) (A) (A) (A) (A) (A)
       Virtual   (A) (A) (A) (A) (A) (A) (A) (A) (A) (A) (A) (A)
                 (A) (A) (A) (A) (A) (A) (A) (A) (A) (A) (A) (A)
                 (A) (A) (A) (A) (A) (A) (A) (A) (A) (A) (A) (A)
                 (A) (A) (A) (A) (A) (A) (A) (A) (A) (A) (A) (A)
                 (A) (A) (A) (A) (A) (A) (A) (A) (A) (A) (A) (A)
                 (A) (A) (A) (A) (A) (A) (A) (A) (A) (A) (A) (A)
                 (A) (A) (A) (A) (A) (A) (A) (A) (A) (A) (A) (A)
                 (A) (A) (A) (A) (A) (A) (A) (A) (A) (A) (A) (A)
                 (A) (A) (A) (A) (A) (A) (A) (A) (A) (A) (A) (A)
                 (A) (A) (A) (A) (A) (A) (A) (A) (A) (A) (A) (A)
                 (A) (A) (A) (A) (A) (A) (A) (A) (A) (A) (A) (A)
                 (A) (A) (A) (A) (A) (A) (A) (A) (A) (A) (A) (A)
                 (A) (A) (A) (A) (A) (A) (A) (A) (A) (A) (A) (A)
                 (A) (A) (A) (A) (A) (A) (A) (A) (A) (A) (A) (A)
                 (A) (A) (A) (A) (A) (A) (A) (A) (A) (A) (A) (A)
                 (A) (A) (A) (A) (A) (A) (A) (A) (A) (A) (A) (A)
                 (A) (A) (A) (A) (A) (A) (A) (A) (A) (A) (A) (A)
                 (A) (A) (A) (A) (A) (A) (A) (A) (A) (A) (A) (A)
                 (A) (A) (A) (A) (A) (A) (A) (A) (A) (A) (A) (A)
                 (A) (A) (A) (A) (A) (A) (A) (A) (A) (A) (A) (A)
                 (A) (A) (A) (A) (A) (A) (A) (A) (A) (A) (A) (A)
                 (A) (A) (A) (A) (A) (A) (A) (A) (A) (A) (A) (A)
                 (A) (A) (A) (A) (A) (A) (A) (A) (A) (A) (A) (A)
                 (A) (A) (A) (A) (A) (A) (A) (A) (A) (A) (A) (A)
                 (A) (A) (A) (A) (A) (A) (A) (A) (A) (A) (A) (A)
                 (A) (A) (A) (A) (A) (A) (A) (A) (A) (A) (A) (A)
                 (A) (A) (A) (A) (A) (A) (A) (A) (A) (A) (A) (A)
                 (A) (A) (A) (A) (A) (A) (A) (A) (A) (A) (A) (A)
                 (A) (A) (A) (A) (A) (A) (A) (A) (A) (A) (A) (A)
                 (A) (A) (A) (A) (A) (A) (A) (A) (A) (A) (A) (A)
                 (A) (A) (A) (A) (A) (A) (A) (A) (A) (A) (A) (A)
                 (A) (A) (A) (A) (A) (A) (A) (A) (A) (A) (A) (A)
                 (A) (A) (A) (A) (A) (A) (A) (A) (A) (A) (A) (A)
                 (A) (A) (A) (A)
 Beta  Orbitals:
       Occupied  (A) (A) (A) (A) (A) (A) (A) (A) (A) (A) (A) (A)
                 (A) (A) (A) (A) (A) (A) (A) (A) (A) (A) (A) (A)
                 (A) (A) (A) (A) (A) (A) (A) (A) (A) (A) (A) (A)
                 (A) (A) (A) (A) (A) (A) (A)
       Virtual   (A) (A) (A) (A) (A) (A) (A) (A) (A) (A) (A) (A)
                 (A) (A) (A) (A) (A) (A) (A) (A) (A) (A) (A) (A)
                 (A) (A) (A) (A) (A) (A) (A) (A) (A) (A) (A) (A)
                 (A) (A) (A) (A) (A) (A) (A) (A) (A) (A) (A) (A)
                 (A) (A) (A) (A) (A) (A) (A) (A) (A) (A) (A) (A)
                 (A) (A) (A) (A) (A) (A) (A) (A) (A) (A) (A) (A)
                 (A) (A) (A) (A) (A) (A) (A) (A) (A) (A) (A) (A)
                 (A) (A) (A) (A) (A) (A) (A) (A) (A) (A) (A) (A)
                 (A) (A) (A) (A) (A) (A) (A) (A) (A) (A) (A) (A)
                 (A) (A) (A) (A) (A) (A) (A) (A) (A) (A) (A) (A)
                 (A) (A) (A) (A) (A) (A) (A) (A) (A) (A) (A) (A)
                 (A) (A) (A) (A) (A) (A) (A) (A) (A) (A) (A) (A)
                 (A) (A) (A) (A) (A) (A) (A) (A) (A) (A) (A) (A)
                 (A) (A) (A) (A) (A) (A) (A) (A) (A) (A) (A) (A)
                 (A) (A) (A) (A) (A) (A) (A) (A) (A) (A) (A) (A)
                 (A) (A) (A) (A) (A) (A) (A) (A) (A) (A) (A) (A)
                 (A) (A) (A) (A) (A) (A) (A) (A) (A) (A) (A) (A)
                 (A) (A) (A) (A) (A) (A) (A) (A) (A) (A) (A) (A)
                 (A) (A) (A) (A) (A) (A) (A) (A) (A) (A) (A) (A)
                 (A) (A) (A) (A) (A) (A) (A) (A) (A) (A) (A) (A)
                 (A) (A) (A) (A) (A) (A) (A) (A) (A) (A) (A) (A)
                 (A) (A) (A) (A) (A) (A) (A) (A) (A) (A) (A) (A)
                 (A) (A) (A) (A) (A) (A) (A) (A) (A) (A) (A) (A)
                 (A) (A) (A) (A) (A) (A) (A) (A) (A) (A) (A) (A)
                 (A) (A) (A) (A) (A) (A) (A) (A) (A) (A) (A) (A)
                 (A) (A) (A) (A) (A) (A) (A) (A) (A) (A) (A) (A)
                 (A) (A) (A) (A) (A) (A) (A) (A) (A) (A) (A) (A)
                 (A) (A) (A) (A) (A) (A) (A) (A) (A) (A) (A) (A)
                 (A) (A) (A) (A) (A) (A) (A) (A) (A) (A) (A) (A)
                 (A) (A) (A) (A) (A) (A) (A) (A) (A) (A) (A) (A)
                 (A) (A) (A) (A) (A) (A) (A) (A) (A) (A) (A) (A)
                 (A) (A) (A) (A) (A) (A) (A) (A) (A) (A) (A) (A)
                 (A) (A) (A) (A) (A) (A) (A) (A) (A) (A) (A) (A)
                 (A) (A) (A) (A) (A)
 The electronic state is 2-A.
 Alpha  occ. eigenvalues --  -19.81886 -19.77300 -10.83083 -10.79209 -10.77903
 Alpha  occ. eigenvalues --  -10.75203 -10.75045 -10.74755 -10.74428 -10.74283
 Alpha  occ. eigenvalues --  -10.68500 -10.67307  -1.38946  -1.29341  -1.18926
 Alpha  occ. eigenvalues --   -1.11148  -1.05117  -1.03931  -0.94175  -0.91546
 Alpha  occ. eigenvalues --   -0.89427  -0.88729  -0.81883  -0.79112  -0.74500
 Alpha  occ. eigenvalues --   -0.73753  -0.72714  -0.71202  -0.70590  -0.68642
 Alpha  occ. eigenvalues --   -0.67076  -0.65932  -0.64046  -0.62590  -0.62096
 Alpha  occ. eigenvalues --   -0.61069  -0.60047  -0.58224  -0.57493  -0.55740
 Alpha  occ. eigenvalues --   -0.54567  -0.53706  -0.51150  -0.50140
 Alpha virt. eigenvalues --   -0.19623  -0.17774  -0.09881  -0.07447  -0.06260
 Alpha virt. eigenvalues --   -0.04772  -0.03551  -0.03366  -0.01984  -0.01467
 Alpha virt. eigenvalues --   -0.01024  -0.00167   0.00081   0.02120   0.02727
 Alpha virt. eigenvalues --    0.03892   0.04506   0.05629   0.06195   0.06626
 Alpha virt. eigenvalues --    0.07454   0.07899   0.08347   0.09612   0.09880
 Alpha virt. eigenvalues --    0.10421   0.11268   0.11645   0.12447   0.14060
 Alpha virt. eigenvalues --    0.14282   0.15720   0.15996   0.17264   0.19626
 Alpha virt. eigenvalues --    0.19785   0.20219   0.20516   0.21140   0.21482
 Alpha virt. eigenvalues --    0.23250   0.24385   0.24835   0.25326   0.26202
 Alpha virt. eigenvalues --    0.27145   0.28245   0.28966   0.29325   0.29998
 Alpha virt. eigenvalues --    0.30158   0.30920   0.31190   0.32123   0.32902
 Alpha virt. eigenvalues --    0.34566   0.34801   0.35402   0.35625   0.36748
 Alpha virt. eigenvalues --    0.37173   0.37633   0.38273   0.39125   0.40777
 Alpha virt. eigenvalues --    0.41448   0.42844   0.43637   0.44645   0.46057
 Alpha virt. eigenvalues --    0.47863   0.48470   0.49192   0.50047   0.51445
 Alpha virt. eigenvalues --    0.51844   0.53689   0.54167   0.55519   0.56554
 Alpha virt. eigenvalues --    0.56760   0.57670   0.59515   0.60627   0.62093
 Alpha virt. eigenvalues --    0.62874   0.64223   0.66114   0.66814   0.67752
 Alpha virt. eigenvalues --    0.68616   0.70152   0.72320   0.73362   0.75066
 Alpha virt. eigenvalues --    0.76287   0.77457   0.78598   0.79627   0.81012
 Alpha virt. eigenvalues --    0.82549   0.84505   0.85805   0.87229   0.88007
 Alpha virt. eigenvalues --    0.89129   0.91500   0.92815   0.93708   0.94350
 Alpha virt. eigenvalues --    0.95747   0.96696   0.97302   0.98538   0.99918
 Alpha virt. eigenvalues --    1.00835   1.04354   1.05420   1.06438   1.07589
 Alpha virt. eigenvalues --    1.09653   1.10864   1.11871   1.12936   1.13520
 Alpha virt. eigenvalues --    1.15683   1.18379   1.18807   1.21341   1.23573
 Alpha virt. eigenvalues --    1.24502   1.26067   1.27103   1.29193   1.30018
 Alpha virt. eigenvalues --    1.32789   1.34265   1.34916   1.36409   1.37198
 Alpha virt. eigenvalues --    1.38143   1.41446   1.42883   1.43596   1.44524
 Alpha virt. eigenvalues --    1.45680   1.46332   1.46830   1.48627   1.49167
 Alpha virt. eigenvalues --    1.50033   1.50739   1.51061   1.52825   1.53173
 Alpha virt. eigenvalues --    1.54152   1.55178   1.55713   1.56209   1.57142
 Alpha virt. eigenvalues --    1.59316   1.60579   1.61762   1.64195   1.65958
 Alpha virt. eigenvalues --    1.68642   1.70925   1.73492   1.76061   1.77191
 Alpha virt. eigenvalues --    1.78599   1.79165   1.82219   1.83179   1.84868
 Alpha virt. eigenvalues --    1.87028   1.87890   1.90140   1.90359   1.91790
 Alpha virt. eigenvalues --    1.94558   1.95553   1.96380   1.98716   2.00193
 Alpha virt. eigenvalues --    2.00996   2.01749   2.03208   2.03421   2.05347
 Alpha virt. eigenvalues --    2.06430   2.07914   2.10054   2.12615   2.15199
 Alpha virt. eigenvalues --    2.15630   2.19039   2.20627   2.21127   2.21477
 Alpha virt. eigenvalues --    2.24530   2.24883   2.26755   2.27966   2.28615
 Alpha virt. eigenvalues --    2.31219   2.32515   2.33581   2.36256   2.37336
 Alpha virt. eigenvalues --    2.37934   2.38909   2.40497   2.41295   2.42702
 Alpha virt. eigenvalues --    2.44072   2.45267   2.46362   2.46535   2.48170
 Alpha virt. eigenvalues --    2.48500   2.49642   2.50992   2.52044   2.53213
 Alpha virt. eigenvalues --    2.53840   2.55112   2.56126   2.57285   2.57811
 Alpha virt. eigenvalues --    2.58701   2.60924   2.62564   2.63176   2.64001
 Alpha virt. eigenvalues --    2.66664   2.67500   2.67641   2.68043   2.68802
 Alpha virt. eigenvalues --    2.70804   2.72689   2.73163   2.75590   2.77166
 Alpha virt. eigenvalues --    2.78269   2.80229   2.81023   2.82820   2.83531
 Alpha virt. eigenvalues --    2.87045   2.88588   2.89246   2.91959   2.92643
 Alpha virt. eigenvalues --    2.94554   2.95180   2.95875   2.96926   2.97642
 Alpha virt. eigenvalues --    2.98393   3.00701   3.01580   3.02211   3.03558
 Alpha virt. eigenvalues --    3.04396   3.05095   3.07137   3.08427   3.10113
 Alpha virt. eigenvalues --    3.10355   3.11507   3.12448   3.13741   3.14032
 Alpha virt. eigenvalues --    3.15138   3.15849   3.16995   3.19075   3.19932
 Alpha virt. eigenvalues --    3.20621   3.21134   3.22875   3.24131   3.25465
 Alpha virt. eigenvalues --    3.27072   3.27545   3.29098   3.29425   3.29957
 Alpha virt. eigenvalues --    3.31521   3.32409   3.34110   3.35067   3.36403
 Alpha virt. eigenvalues --    3.37002   3.40186   3.42613   3.43165   3.45139
 Alpha virt. eigenvalues --    3.47501   3.49066   3.49777   3.51161   3.54386
 Alpha virt. eigenvalues --    3.56721   3.59672   3.60544   3.65377   3.68571
 Alpha virt. eigenvalues --    3.70152   3.72577   3.73930   3.77921   3.80009
 Alpha virt. eigenvalues --    3.82556   3.85031   3.85183   3.85796   3.89978
 Alpha virt. eigenvalues --    3.91003   3.93114   3.94625   3.95633   3.96888
 Alpha virt. eigenvalues --    3.97805   4.00253   4.00773   4.02954   4.03369
 Alpha virt. eigenvalues --    4.05854   4.07401   4.09189   4.11876   4.13811
 Alpha virt. eigenvalues --    4.17809   4.19146   4.20633   4.23576   4.26405
 Alpha virt. eigenvalues --    4.28637   4.33665   4.36119   4.37973   4.41220
 Alpha virt. eigenvalues --    4.43131   4.43450   4.47655   4.48649   4.54332
 Alpha virt. eigenvalues --    4.56591   4.63238   4.66260   4.69837   4.70692
 Alpha virt. eigenvalues --    4.75981   4.84066   4.87183   4.98749   4.98955
 Alpha virt. eigenvalues --    5.03099   5.06656   5.08826   5.11401   5.14658
 Alpha virt. eigenvalues --    5.23752   5.27772   5.28036   5.39346   5.40912
 Alpha virt. eigenvalues --    5.48290   5.61872   5.74322   5.75662   6.06508
 Alpha virt. eigenvalues --    6.11918   6.21312   6.24391   6.33804   6.36462
 Alpha virt. eigenvalues --    6.54482   6.57579   6.64288   6.68531   6.77658
 Alpha virt. eigenvalues --    6.95931   6.99364   7.16731  22.02199  22.40728
 Alpha virt. eigenvalues --   22.45942  22.46957  22.54399  22.68399  22.73028
 Alpha virt. eigenvalues --   22.77800  23.10754  23.30691  43.88746  43.94135
  Beta  occ. eigenvalues --  -19.81875 -19.77193 -10.83039 -10.79030 -10.77697
  Beta  occ. eigenvalues --  -10.75157 -10.75046 -10.74746 -10.74466 -10.74289
  Beta  occ. eigenvalues --  -10.68463 -10.67307  -1.38796  -1.29114  -1.17931
  Beta  occ. eigenvalues --   -1.10260  -1.04960  -1.02757  -0.94032  -0.91101
  Beta  occ. eigenvalues --   -0.88907  -0.88193  -0.81587  -0.78675  -0.74065
  Beta  occ. eigenvalues --   -0.73247  -0.72475  -0.70833  -0.70110  -0.68536
  Beta  occ. eigenvalues --   -0.66578  -0.64409  -0.62729  -0.62130  -0.61336
  Beta  occ. eigenvalues --   -0.60734  -0.59843  -0.57873  -0.57084  -0.55503
  Beta  occ. eigenvalues --   -0.54393  -0.50935  -0.49834
  Beta virt. eigenvalues --   -0.35931  -0.16228  -0.15813  -0.09419  -0.07404
  Beta virt. eigenvalues --   -0.06209  -0.04758  -0.03443  -0.03345  -0.01918
  Beta virt. eigenvalues --   -0.01371  -0.00676   0.00099   0.00468   0.02220
  Beta virt. eigenvalues --    0.02795   0.03800   0.04458   0.05531   0.06225
  Beta virt. eigenvalues --    0.06391   0.07369   0.07983   0.08657   0.09402
  Beta virt. eigenvalues --    0.09483   0.10464   0.11276   0.11656   0.12593
  Beta virt. eigenvalues --    0.13911   0.14500   0.15855   0.15938   0.17165
  Beta virt. eigenvalues --    0.19381   0.19627   0.20241   0.20429   0.21349
  Beta virt. eigenvalues --    0.21481   0.23485   0.24609   0.25009   0.25512
  Beta virt. eigenvalues --    0.26386   0.26982   0.28482   0.29033   0.29461
  Beta virt. eigenvalues --    0.30009   0.30288   0.30911   0.31250   0.32075
  Beta virt. eigenvalues --    0.33174   0.34744   0.34929   0.35367   0.35750
  Beta virt. eigenvalues --    0.36686   0.37213   0.37813   0.38540   0.39211
  Beta virt. eigenvalues --    0.40876   0.41455   0.42802   0.43656   0.44579
  Beta virt. eigenvalues --    0.46292   0.47941   0.48488   0.49144   0.50230
  Beta virt. eigenvalues --    0.51677   0.52088   0.53660   0.54279   0.55855
  Beta virt. eigenvalues --    0.56506   0.56957   0.57962   0.59818   0.60579
  Beta virt. eigenvalues --    0.62047   0.62771   0.64167   0.66233   0.66916
  Beta virt. eigenvalues --    0.67872   0.69166   0.70168   0.72422   0.73580
  Beta virt. eigenvalues --    0.75240   0.76099   0.77570   0.78712   0.79781
  Beta virt. eigenvalues --    0.81092   0.82557   0.84617   0.85851   0.87361
  Beta virt. eigenvalues --    0.87979   0.89236   0.91615   0.92872   0.93856
  Beta virt. eigenvalues --    0.94352   0.95870   0.96803   0.97456   0.98699
  Beta virt. eigenvalues --    1.00165   1.01086   1.04551   1.05714   1.06774
  Beta virt. eigenvalues --    1.07970   1.10104   1.11161   1.11979   1.13204
  Beta virt. eigenvalues --    1.13862   1.15878   1.18558   1.19016   1.21588
  Beta virt. eigenvalues --    1.24358   1.25074   1.26729   1.27746   1.30216
  Beta virt. eigenvalues --    1.30709   1.32908   1.34733   1.35284   1.36674
  Beta virt. eigenvalues --    1.37501   1.38369   1.41679   1.43058   1.43689
  Beta virt. eigenvalues --    1.45411   1.45779   1.46775   1.46907   1.48882
  Beta virt. eigenvalues --    1.49628   1.50575   1.51234   1.51380   1.53109
  Beta virt. eigenvalues --    1.53691   1.54464   1.55489   1.56115   1.56564
  Beta virt. eigenvalues --    1.57599   1.59587   1.61106   1.62230   1.64344
  Beta virt. eigenvalues --    1.66372   1.68946   1.71711   1.73766   1.76348
  Beta virt. eigenvalues --    1.77454   1.78955   1.79427   1.82780   1.83617
  Beta virt. eigenvalues --    1.85404   1.87303   1.88139   1.90578   1.90702
  Beta virt. eigenvalues --    1.92231   1.95021   1.95920   1.96886   1.99285
  Beta virt. eigenvalues --    2.00471   2.01632   2.02189   2.03615   2.03994
  Beta virt. eigenvalues --    2.05843   2.06755   2.08589   2.10445   2.13077
  Beta virt. eigenvalues --    2.15570   2.16034   2.19569   2.20814   2.21722
  Beta virt. eigenvalues --    2.21994   2.24880   2.25141   2.26887   2.28290
  Beta virt. eigenvalues --    2.29161   2.31561   2.32865   2.33979   2.36520
  Beta virt. eigenvalues --    2.37632   2.38203   2.39570   2.40945   2.41818
  Beta virt. eigenvalues --    2.43411   2.44775   2.46692   2.47396   2.47887
  Beta virt. eigenvalues --    2.48723   2.50134   2.50829   2.51720   2.53010
  Beta virt. eigenvalues --    2.53544   2.54456   2.56082   2.56925   2.58421
  Beta virt. eigenvalues --    2.58602   2.60311   2.61519   2.62961   2.64417
  Beta virt. eigenvalues --    2.65925   2.67007   2.68158   2.68382   2.69071
  Beta virt. eigenvalues --    2.69305   2.71454   2.73138   2.73813   2.76055
  Beta virt. eigenvalues --    2.77701   2.78509   2.80827   2.81629   2.83402
  Beta virt. eigenvalues --    2.84687   2.87669   2.89348   2.89454   2.92451
  Beta virt. eigenvalues --    2.93111   2.94942   2.95509   2.96437   2.97605
  Beta virt. eigenvalues --    2.98178   2.99217   3.00916   3.02274   3.02961
  Beta virt. eigenvalues --    3.04488   3.05001   3.05924   3.07914   3.09076
  Beta virt. eigenvalues --    3.10919   3.11155   3.11929   3.13030   3.14286
  Beta virt. eigenvalues --    3.14944   3.15825   3.16541   3.17307   3.19767
  Beta virt. eigenvalues --    3.20767   3.21324   3.21719   3.23252   3.24672
  Beta virt. eigenvalues --    3.25910   3.27852   3.28486   3.30245   3.30378
  Beta virt. eigenvalues --    3.30730   3.32557   3.33206   3.34597   3.35850
  Beta virt. eigenvalues --    3.36904   3.37811   3.40656   3.43011   3.43628
  Beta virt. eigenvalues --    3.45868   3.48330   3.50195   3.51193   3.51696
  Beta virt. eigenvalues --    3.55134   3.56937   3.60576   3.61931   3.65723
  Beta virt. eigenvalues --    3.68929   3.70888   3.73511   3.74962   3.78041
  Beta virt. eigenvalues --    3.80707   3.83315   3.85679   3.86464   3.87387
  Beta virt. eigenvalues --    3.90779   3.91765   3.94173   3.96603   3.97263
  Beta virt. eigenvalues --    3.98241   3.99393   4.01171   4.02126   4.04045
  Beta virt. eigenvalues --    4.04794   4.06913   4.08457   4.10605   4.13166
  Beta virt. eigenvalues --    4.14456   4.19423   4.20253   4.21479   4.23892
  Beta virt. eigenvalues --    4.26928   4.28779   4.34963   4.36773   4.39272
  Beta virt. eigenvalues --    4.41888   4.44468   4.45746   4.49058   4.50436
  Beta virt. eigenvalues --    4.55214   4.58362   4.66488   4.67822   4.69700
  Beta virt. eigenvalues --    4.72312   4.75981   4.86045   4.89645   5.00891
  Beta virt. eigenvalues --    5.01290   5.03282   5.06925   5.08993   5.14744
  Beta virt. eigenvalues --    5.17822   5.25227   5.28051   5.29412   5.39429
  Beta virt. eigenvalues --    5.42331   5.48246   5.61853   5.74277   5.75666
  Beta virt. eigenvalues --    6.06502   6.11911   6.21539   6.24415   6.33951
  Beta virt. eigenvalues --    6.36768   6.54624   6.57636   6.64246   6.68572
  Beta virt. eigenvalues --    6.77751   6.95981   6.99433   7.16694  22.02502
  Beta virt. eigenvalues --   22.40760  22.45963  22.47519  22.54548  22.68799
  Beta virt. eigenvalues --   22.73526  22.77915  23.11568  23.30856  43.88741
  Beta virt. eigenvalues --   43.94124
          Condensed to atoms (all electrons):
               1          2          3          4          5          6
     1  C    5.321660   0.255785  -0.119413  -0.077167  -0.000579   0.002556
     2  C    0.255785   5.709293   0.304308   0.130184  -0.057396  -0.076937
     3  C   -0.119413   0.304308   5.167692  -0.063858   0.002648  -0.011135
     4  C   -0.077167   0.130184  -0.063858   4.747009   0.639774   0.353065
     5  O   -0.000579  -0.057396   0.002648   0.639774   7.746351  -0.084738
     6  O    0.002556  -0.076937  -0.011135   0.353065  -0.084738   7.935990
     7  C   -0.106991  -0.027704  -0.076886  -0.002563  -0.009827  -0.027707
     8  C    0.033384   0.025657  -0.027108  -0.036610  -0.001426   0.008378
     9  C   -0.001503   0.006848   0.006987  -0.000985   0.000335  -0.003707
    10  C    0.000902  -0.001960  -0.001292  -0.000047  -0.000066   0.000497
    11  C   -0.000242   0.009153   0.000955  -0.001367   0.000122  -0.000413
    12  C   -0.030671  -0.045056   0.009710   0.006063  -0.000343   0.001608
    13  H    0.401352  -0.000787   0.013315  -0.024968   0.003903   0.000235
    14  H    0.435057  -0.047778  -0.017092   0.018424   0.000835  -0.000106
    15  H    0.406112  -0.025056  -0.008650  -0.015168   0.000530   0.000133
    16  H    0.012147   0.035588   0.381927  -0.020603   0.000034  -0.001160
    17  H   -0.018838  -0.046793   0.421535   0.013668  -0.000339   0.000479
    18  H   -0.007849  -0.036120   0.414165  -0.008849   0.000340   0.000870
    19  H   -0.000724   0.007833  -0.000972  -0.015998   0.004932   0.299956
    20  H    0.000380   0.019119  -0.009491  -0.004545   0.000214   0.007800
    21  H   -0.000022  -0.000193   0.000039   0.000006   0.000002  -0.000086
    22  H   -0.000002  -0.000009  -0.000009   0.000004  -0.000000   0.000002
    23  H    0.000090  -0.000187  -0.000002  -0.000007  -0.000001  -0.000001
    24  H   -0.003675  -0.010205   0.000190  -0.001142  -0.000580   0.000007
               7          8          9         10         11         12
     1  C   -0.106991   0.033384  -0.001503   0.000902  -0.000242  -0.030671
     2  C   -0.027704   0.025657   0.006848  -0.001960   0.009153  -0.045056
     3  C   -0.076886  -0.027108   0.006987  -0.001292   0.000955   0.009710
     4  C   -0.002563  -0.036610  -0.000985  -0.000047  -0.001367   0.006063
     5  O   -0.009827  -0.001426   0.000335  -0.000066   0.000122  -0.000343
     6  O   -0.027707   0.008378  -0.003707   0.000497  -0.000413   0.001608
     7  C    5.646801   0.236408  -0.038090  -0.046059  -0.034860   0.398318
     8  C    0.236408   5.138583   0.505870  -0.003530  -0.054484  -0.079663
     9  C   -0.038090   0.505870   4.913124   0.428601  -0.031425  -0.044957
    10  C   -0.046059  -0.003530   0.428601   4.874046   0.424643  -0.025372
    11  C   -0.034860  -0.054484  -0.031425   0.424643   4.877038   0.538487
    12  C    0.398318  -0.079663  -0.044957  -0.025372   0.538487   5.012079
    13  H   -0.015082  -0.003046   0.000104  -0.000161   0.001370   0.001053
    14  H   -0.007076   0.001576  -0.000116   0.000069  -0.000610  -0.007804
    15  H    0.020817  -0.000621   0.000021  -0.000003  -0.000025   0.000114
    16  H   -0.058001   0.024847   0.002177   0.000202  -0.000107  -0.001258
    17  H    0.006128  -0.015558  -0.000010  -0.000180   0.000164   0.006689
    18  H    0.018045   0.000363  -0.000040   0.000004   0.000010  -0.000870
    19  H    0.002383  -0.000670  -0.000076  -0.000003  -0.000006   0.000034
    20  H   -0.041899   0.392599  -0.006151   0.002810  -0.000928   0.003568
    21  H    0.006502  -0.018912   0.403703  -0.027709   0.002858  -0.000243
    22  H   -0.000468   0.004398  -0.027591   0.409302  -0.027938   0.003489
    23  H    0.005829  -0.000605   0.003013  -0.028331   0.402078  -0.016723
    24  H   -0.018609   0.002063  -0.000445   0.002124  -0.012159   0.401513
              13         14         15         16         17         18
     1  C    0.401352   0.435057   0.406112   0.012147  -0.018838  -0.007849
     2  C   -0.000787  -0.047778  -0.025056   0.035588  -0.046793  -0.036120
     3  C    0.013315  -0.017092  -0.008650   0.381927   0.421535   0.414165
     4  C   -0.024968   0.018424  -0.015168  -0.020603   0.013668  -0.008849
     5  O    0.003903   0.000835   0.000530   0.000034  -0.000339   0.000340
     6  O    0.000235  -0.000106   0.000133  -0.001160   0.000479   0.000870
     7  C   -0.015082  -0.007076   0.020817  -0.058001   0.006128   0.018045
     8  C   -0.003046   0.001576  -0.000621   0.024847  -0.015558   0.000363
     9  C    0.000104  -0.000116   0.000021   0.002177  -0.000010  -0.000040
    10  C   -0.000161   0.000069  -0.000003   0.000202  -0.000180   0.000004
    11  C    0.001370  -0.000610  -0.000025  -0.000107   0.000164   0.000010
    12  C    0.001053  -0.007804   0.000114  -0.001258   0.006689  -0.000870
    13  H    0.467059  -0.030198  -0.009596  -0.000281  -0.000170   0.000073
    14  H   -0.030198   0.479439  -0.013132  -0.000084   0.001885   0.000138
    15  H   -0.009596  -0.013132   0.443213   0.000063  -0.000177   0.002218
    16  H   -0.000281  -0.000084   0.000063   0.482505  -0.020832  -0.014871
    17  H   -0.000170   0.001885  -0.000177  -0.020832   0.483535  -0.017452
    18  H    0.000073   0.000138   0.002218  -0.014871  -0.017452   0.452352
    19  H   -0.000073   0.000024  -0.000020  -0.000117   0.000072  -0.000186
    20  H   -0.000038  -0.000043  -0.000007  -0.000442   0.000429   0.000018
    21  H    0.000001  -0.000001   0.000000  -0.000027   0.000013  -0.000001
    22  H   -0.000001   0.000001   0.000000   0.000000  -0.000001   0.000000
    23  H    0.000009   0.000005  -0.000000  -0.000002   0.000003   0.000000
    24  H   -0.003024  -0.005741   0.000733   0.000003   0.000267  -0.000035
              19         20         21         22         23         24
     1  C   -0.000724   0.000380  -0.000022  -0.000002   0.000090  -0.003675
     2  C    0.007833   0.019119  -0.000193  -0.000009  -0.000187  -0.010205
     3  C   -0.000972  -0.009491   0.000039  -0.000009  -0.000002   0.000190
     4  C   -0.015998  -0.004545   0.000006   0.000004  -0.000007  -0.001142
     5  O    0.004932   0.000214   0.000002  -0.000000  -0.000001  -0.000580
     6  O    0.299956   0.007800  -0.000086   0.000002  -0.000001   0.000007
     7  C    0.002383  -0.041899   0.006502  -0.000468   0.005829  -0.018609
     8  C   -0.000670   0.392599  -0.018912   0.004398  -0.000605   0.002063
     9  C   -0.000076  -0.006151   0.403703  -0.027591   0.003013  -0.000445
    10  C   -0.000003   0.002810  -0.027709   0.409302  -0.028331   0.002124
    11  C   -0.000006  -0.000928   0.002858  -0.027938   0.402078  -0.012159
    12  C    0.000034   0.003568  -0.000243   0.003489  -0.016723   0.401513
    13  H   -0.000073  -0.000038   0.000001  -0.000001   0.000009  -0.003024
    14  H    0.000024  -0.000043  -0.000001   0.000001   0.000005  -0.005741
    15  H   -0.000020  -0.000007   0.000000   0.000000  -0.000000   0.000733
    16  H   -0.000117  -0.000442  -0.000027   0.000000  -0.000002   0.000003
    17  H    0.000072   0.000429   0.000013  -0.000001   0.000003   0.000267
    18  H   -0.000186   0.000018  -0.000001   0.000000   0.000000  -0.000035
    19  H    0.337270  -0.000195   0.000002  -0.000000   0.000000   0.000003
    20  H   -0.000195   0.405668  -0.002240  -0.000074   0.000017  -0.000002
    21  H    0.000002  -0.002240   0.432063  -0.002122  -0.000090   0.000029
    22  H   -0.000000  -0.000074  -0.002122   0.424190  -0.002035  -0.000087
    23  H    0.000000   0.000017  -0.000090  -0.002035   0.431908  -0.002129
    24  H    0.000003  -0.000002   0.000029  -0.000087  -0.002129   0.425541
          Atomic-Atomic Spin Densities.
               1          2          3          4          5          6
     1  C    0.003091   0.000751  -0.001331  -0.000380  -0.001227  -0.000148
     2  C    0.000751  -0.011650   0.018371   0.016318   0.003747   0.001345
     3  C   -0.001331   0.018371   0.039471  -0.009700   0.000767   0.000686
     4  C   -0.000380   0.016318  -0.009700   0.026406  -0.014920  -0.001107
     5  O   -0.001227   0.003747   0.000767  -0.014920   0.058491   0.000184
     6  O   -0.000148   0.001345   0.000686  -0.001107   0.000184   0.002659
     7  C    0.001296  -0.029495  -0.016665  -0.010244   0.000195   0.002219
     8  C   -0.000301  -0.006075  -0.002532   0.002838   0.000021  -0.001014
     9  C    0.000083   0.001935   0.000231  -0.000437  -0.000037   0.000072
    10  C   -0.000089  -0.000684   0.000127   0.000337   0.000002  -0.000023
    11  C    0.000298   0.000888  -0.000076  -0.000210  -0.000061   0.000004
    12  C   -0.001703   0.005526   0.000543  -0.000456   0.000640   0.000111
    13  H   -0.001418   0.002048   0.000469  -0.001247   0.000492   0.000030
    14  H    0.000699  -0.000497  -0.000566  -0.000075  -0.000064  -0.000004
    15  H   -0.000912   0.000522  -0.000188   0.000378  -0.000158  -0.000019
    16  H    0.000099   0.000604   0.000158  -0.000337   0.000017   0.000023
    17  H   -0.000561   0.002890  -0.002751   0.000158  -0.000004  -0.000010
    18  H   -0.000403   0.000167  -0.000884   0.000221  -0.000109  -0.000136
    19  H    0.000021  -0.000204  -0.000200   0.000306   0.000430   0.000134
    20  H   -0.000037  -0.000956  -0.000132   0.000471   0.000002   0.000009
    21  H    0.000000   0.000033  -0.000000  -0.000010  -0.000000   0.000003
    22  H   -0.000000  -0.000005  -0.000000   0.000001   0.000000  -0.000000
    23  H    0.000010  -0.000004  -0.000003  -0.000001  -0.000000   0.000000
    24  H   -0.000087   0.000329   0.000048   0.000093   0.000026   0.000000
               7          8          9         10         11         12
     1  C    0.001296  -0.000301   0.000083  -0.000089   0.000298  -0.001703
     2  C   -0.029495  -0.006075   0.001935  -0.000684   0.000888   0.005526
     3  C   -0.016665  -0.002532   0.000231   0.000127  -0.000076   0.000543
     4  C   -0.010244   0.002838  -0.000437   0.000337  -0.000210  -0.000456
     5  O    0.000195   0.000021  -0.000037   0.000002  -0.000061   0.000640
     6  O    0.002219  -0.001014   0.000072  -0.000023   0.000004   0.000111
     7  C    0.379579   0.071965  -0.010955  -0.013328  -0.008447   0.049796
     8  C    0.071965   0.047181  -0.018855  -0.011027  -0.000023   0.008279
     9  C   -0.010955  -0.018855  -0.072112   0.040322  -0.005041   0.000944
    10  C   -0.013328  -0.011027   0.040322   0.396327   0.053473  -0.008079
    11  C   -0.008447  -0.000023  -0.005041   0.053473  -0.002704  -0.028734
    12  C    0.049796   0.008279   0.000944  -0.008079  -0.028734  -0.005830
    13  H   -0.000135  -0.000035  -0.000004  -0.000006  -0.000036   0.000071
    14  H    0.000772   0.000071  -0.000003  -0.000005   0.000018  -0.000085
    15  H    0.000082  -0.000004  -0.000001   0.000000  -0.000001   0.000034
    16  H    0.000080  -0.001012   0.000105  -0.000011   0.000015  -0.000046
    17  H   -0.000547   0.001203  -0.000155   0.000022  -0.000088   0.000587
    18  H    0.001104   0.000030  -0.000005  -0.000002  -0.000000  -0.000035
    19  H   -0.000374  -0.000040   0.000016   0.000007   0.000003  -0.000032
    20  H    0.001285  -0.002641   0.000582   0.000228  -0.000111   0.000303
    21  H   -0.000007  -0.000862   0.000948  -0.000808  -0.000040  -0.000031
    22  H    0.000286  -0.000467   0.003482  -0.006861   0.003638  -0.000332
    23  H    0.000119   0.000036  -0.000086  -0.000338   0.001096  -0.001227
    24  H    0.000851   0.000120  -0.000073   0.000159   0.000105  -0.002500
              13         14         15         16         17         18
     1  C   -0.001418   0.000699  -0.000912   0.000099  -0.000561  -0.000403
     2  C    0.002048  -0.000497   0.000522   0.000604   0.002890   0.000167
     3  C    0.000469  -0.000566  -0.000188   0.000158  -0.002751  -0.000884
     4  C   -0.001247  -0.000075   0.000378  -0.000337   0.000158   0.000221
     5  O    0.000492  -0.000064  -0.000158   0.000017  -0.000004  -0.000109
     6  O    0.000030  -0.000004  -0.000019   0.000023  -0.000010  -0.000136
     7  C   -0.000135   0.000772   0.000082   0.000080  -0.000547   0.001104
     8  C   -0.000035   0.000071  -0.000004  -0.001012   0.001203   0.000030
     9  C   -0.000004  -0.000003  -0.000001   0.000105  -0.000155  -0.000005
    10  C   -0.000006  -0.000005   0.000000  -0.000011   0.000022  -0.000002
    11  C   -0.000036   0.000018  -0.000001   0.000015  -0.000088  -0.000000
    12  C    0.000071  -0.000085   0.000034  -0.000046   0.000587  -0.000035
    13  H   -0.000615  -0.000035   0.000103   0.000006  -0.000024  -0.000027
    14  H   -0.000035  -0.001389   0.000165  -0.000002   0.000050   0.000039
    15  H    0.000103   0.000165  -0.000430  -0.000001   0.000040  -0.000000
    16  H    0.000006  -0.000002  -0.000001  -0.000484  -0.000266  -0.000220
    17  H   -0.000024   0.000050   0.000040  -0.000266  -0.001806   0.000717
    18  H   -0.000027   0.000039  -0.000000  -0.000220   0.000717   0.003254
    19  H   -0.000008   0.000001   0.000004  -0.000030   0.000001   0.000046
    20  H   -0.000002   0.000004   0.000000  -0.000177   0.000074   0.000011
    21  H   -0.000000   0.000000  -0.000000   0.000002  -0.000001   0.000000
    22  H   -0.000000  -0.000000   0.000000  -0.000000   0.000000   0.000000
    23  H   -0.000002   0.000001  -0.000000   0.000000  -0.000000   0.000000
    24  H    0.000041  -0.000014  -0.000000  -0.000003   0.000024  -0.000000
              19         20         21         22         23         24
     1  C    0.000021  -0.000037   0.000000  -0.000000   0.000010  -0.000087
     2  C   -0.000204  -0.000956   0.000033  -0.000005  -0.000004   0.000329
     3  C   -0.000200  -0.000132  -0.000000  -0.000000  -0.000003   0.000048
     4  C    0.000306   0.000471  -0.000010   0.000001  -0.000001   0.000093
     5  O    0.000430   0.000002  -0.000000   0.000000  -0.000000   0.000026
     6  O    0.000134   0.000009   0.000003  -0.000000   0.000000   0.000000
     7  C   -0.000374   0.001285  -0.000007   0.000286   0.000119   0.000851
     8  C   -0.000040  -0.002641  -0.000862  -0.000467   0.000036   0.000120
     9  C    0.000016   0.000582   0.000948   0.003482  -0.000086  -0.000073
    10  C    0.000007   0.000228  -0.000808  -0.006861  -0.000338   0.000159
    11  C    0.000003  -0.000111  -0.000040   0.003638   0.001096   0.000105
    12  C   -0.000032   0.000303  -0.000031  -0.000332  -0.001227  -0.002500
    13  H   -0.000008  -0.000002  -0.000000  -0.000000  -0.000002   0.000041
    14  H    0.000001   0.000004   0.000000  -0.000000   0.000001  -0.000014
    15  H    0.000004   0.000000  -0.000000   0.000000  -0.000000  -0.000000
    16  H   -0.000030  -0.000177   0.000002  -0.000000   0.000000  -0.000003
    17  H    0.000001   0.000074  -0.000001   0.000000  -0.000000   0.000024
    18  H    0.000046   0.000011   0.000000   0.000000   0.000000  -0.000000
    19  H    0.000493   0.000020  -0.000000   0.000000   0.000000  -0.000000
    20  H    0.000020  -0.005931   0.000126  -0.000006   0.000000  -0.000002
    21  H   -0.000000   0.000126   0.000380  -0.000042  -0.000001   0.000000
    22  H    0.000000  -0.000006  -0.000042  -0.007530  -0.000120  -0.000007
    23  H    0.000000   0.000000  -0.000001  -0.000120  -0.000768   0.000134
    24  H   -0.000000  -0.000002   0.000000  -0.000007   0.000134  -0.003778
 Mulliken charges and spin densities:
               1          2
     1  C   -0.501751  -0.002247
     2  C   -0.127588   0.005901
     3  C   -0.387563   0.025844
     4  C    0.365679   0.008403
     5  O   -0.244724   0.048436
     6  O   -0.405587   0.005017
     7  C    0.170589   0.419430
     8  C   -0.131892   0.086854
     9  C   -0.115687  -0.059042
    10  C   -0.008490   0.449743
    11  C   -0.092311   0.013964
    12  C   -0.129767   0.017744
    13  H    0.198950  -0.000336
    14  H    0.192326  -0.000916
    15  H    0.198502  -0.000385
    16  H    0.178291  -0.001481
    17  H    0.185482  -0.000446
    18  H    0.197678   0.003765
    19  H    0.366533   0.000590
    20  H    0.233434  -0.006879
    21  H    0.206428  -0.000310
    22  H    0.218950  -0.007964
    23  H    0.207160  -0.001152
    24  H    0.225361  -0.004535
 Sum of Mulliken charges =   1.00000   1.00000
 Mulliken charges and spin densities with hydrogens summed into heavy atoms:
               1          2
     1  C    0.088027  -0.003884
     2  C   -0.127588   0.005901
     3  C    0.173887   0.027682
     4  C    0.365679   0.008403
     5  O   -0.244724   0.048436
     6  O   -0.039054   0.005608
     7  C    0.170589   0.419430
     8  C    0.101541   0.079975
     9  C    0.090741  -0.059352
    10  C    0.210460   0.441779
    11  C    0.114849   0.012813
    12  C    0.095594   0.013209
 Electronic spatial extent (au):  <R**2>=           1974.1594
 Charge=              1.0000 electrons
 Dipole moment (field-independent basis, Debye):
    X=              5.8602    Y=             -0.7018    Z=              1.3117  Tot=              6.0461
 Quadrupole moment (field-independent basis, Debye-Ang):
   XX=            -35.8983   YY=            -53.6090   ZZ=            -68.6579
   XY=              1.6166   XZ=             -6.0818   YZ=              1.7575
 Traceless Quadrupole moment (field-independent basis, Debye-Ang):
   XX=             16.8234   YY=             -0.8872   ZZ=            -15.9362
   XY=              1.6166   XZ=             -6.0818   YZ=              1.7575
 Octapole moment (field-independent basis, Debye-Ang**2):
  XXX=             70.6195  YYY=            -12.9131  ZZZ=              4.7413  XYY=              0.0392
  XXY=            -15.9069  XXZ=             -7.5774  XZZ=             -5.5370  YZZ=             -5.9409
  YYZ=             -9.7315  XYZ=            -15.3890
 Hexadecapole moment (field-independent basis, Debye-Ang**3):
 XXXX=          -1161.4570 YYYY=           -509.0883 ZZZZ=           -380.7235 XXXY=             19.6222
 XXXZ=            -48.3521 YYYX=             28.3283 YYYZ=              6.7338 ZZZX=             -8.0325
 ZZZY=             10.6434 XXYY=           -276.0733 XXZZ=           -332.0606 YYZZ=           -146.9533
 XXYZ=             14.5595 YYXZ=             20.7570 ZZXY=             19.1747
 N-N= 7.018619352578D+02 E-N=-2.643283495041D+03  KE= 5.360293827506D+02
 There are a total of      542652 grid points.
 ElSum from          density=       86.9999527280
 ElSum from atomic densities=       87.9998882492
 Hirshfeld populations at iteration   1 (CA, CB, DipXYZ):
               1          2          3          4          5
     1  C    3.038723   3.036726  -0.020198   0.022388   0.012788
     2  C    3.001702   2.975244   0.001932  -0.003047  -0.001733
     3  C    3.045491   3.020906  -0.021748   0.013818   0.022738
     4  C    2.897469   2.875842  -0.016708  -0.048027   0.070802
     5  O    4.130042   4.088476   0.015832  -0.016474   0.068118
     6  O    4.077197   4.072225  -0.045467   0.025953  -0.091754
     7  C    3.081921   2.797612  -0.032206   0.011890   0.012106
     8  C    3.038496   2.933695  -0.052491  -0.027759   0.025206
     9  C    3.001735   2.981591   0.067157  -0.065055   0.001625
    10  C    3.103193   2.789032   0.101038  -0.012047  -0.017396
    11  C    3.015143   2.953212   0.084400   0.038987  -0.027728
    12  C    3.022543   2.957171  -0.048201   0.053062  -0.006615
    13  H    0.477286   0.476743   0.019010   0.076796  -0.132278
    14  H    0.477417   0.476729   0.062659   0.101128   0.098111
    15  H    0.470068   0.470517  -0.158115   0.034436   0.028845
    16  H    0.479153   0.478024   0.024634  -0.139539   0.054157
    17  H    0.475594   0.473115   0.064379   0.081670   0.119020
    18  H    0.470335   0.466618  -0.159914   0.015430   0.042487
    19  H    0.398266   0.397644  -0.104107  -0.134742  -0.154945
    20  H    0.464922   0.462228  -0.060827  -0.136951   0.056163
    21  H    0.457198   0.457684   0.067906  -0.165087   0.025810
    22  H    0.457081   0.443072   0.174989  -0.029676  -0.026993
    23  H    0.456949   0.455317   0.106573   0.134989  -0.054434
    24  H    0.462052   0.460553  -0.034237   0.159937  -0.035266
       Tot  43.999976  42.999977   0.036289  -0.007921   0.088833

 Dip from Atomic Chgs              2.269325  -0.268193   0.427214
         Total Dipole              2.305613  -0.276114   0.516047

 Hirshfeld charges, spin densities, dipoles, and CM5 charges using IRadAn=      5:
              Q-H        S-H        Dx         Dy         Dz        Q-CM5   
     1  C   -0.075449   0.001996  -0.020198   0.022388   0.012788  -0.221578
     2  C    0.023054   0.026459   0.001932  -0.003047  -0.001733   0.004986
     3  C   -0.066397   0.024585  -0.021748   0.013818   0.022738  -0.211616
     4  C    0.226689   0.021627  -0.016708  -0.048027   0.070802   0.279283
     5  O   -0.218517   0.041566   0.015832  -0.016474   0.068118  -0.271190
     6  O   -0.149422   0.004972  -0.045467   0.025953  -0.091754  -0.351625
     7  C    0.120467   0.284309  -0.032206   0.011890   0.012106   0.110604
     8  C    0.027809   0.104801  -0.052491  -0.027759   0.025206  -0.025663
     9  C    0.016674   0.020143   0.067157  -0.065055   0.001625  -0.039353
    10  C    0.107775   0.314161   0.101038  -0.012047  -0.017396   0.051693
    11  C    0.031645   0.061931   0.084400   0.038987  -0.027728  -0.024461
    12  C    0.020287   0.065372  -0.048201   0.053062  -0.006615  -0.034020
    13  H    0.045971   0.000542   0.019010   0.076796  -0.132278   0.103048
    14  H    0.045854   0.000688   0.062659   0.101128   0.098111   0.099511
    15  H    0.059415  -0.000450  -0.158115   0.034436   0.028845   0.114173
    16  H    0.042823   0.001129   0.024634  -0.139539   0.054157   0.100389
    17  H    0.051290   0.002479   0.064379   0.081670   0.119020   0.104687
    18  H    0.063047   0.003716  -0.159914   0.015430   0.042487   0.117151
    19  H    0.204090   0.000622  -0.104107  -0.134742  -0.154945   0.381892
    20  H    0.072850   0.002695  -0.060827  -0.136951   0.056163   0.134734
    21  H    0.085118  -0.000486   0.067906  -0.165087   0.025810   0.141271
    22  H    0.099847   0.014009   0.174989  -0.029676  -0.026993   0.155923
    23  H    0.087734   0.001633   0.106573   0.134989  -0.054434   0.143884
    24  H    0.077396   0.001499  -0.034237   0.159937  -0.035266   0.136325
       Tot   1.000047   1.000000   0.036289  -0.007921   0.088833   1.000047
 Hirshfeld charges and spin densities with hydrogens summed into heavy atoms:
              Q-H        S-H       Q-CM5   
     1  C    0.075791   0.002778   0.095155
     2  C    0.023054   0.026459   0.004986
     3  C    0.090763   0.031910   0.110612
     4  C    0.226689   0.021627   0.279283
     5  O   -0.218517   0.041566  -0.271190
     6  O    0.054668   0.005594   0.030267
     7  C    0.120467   0.284309   0.110604
     8  C    0.100659   0.107496   0.109071
     9  C    0.101791   0.019657   0.101917
    10  C    0.207622   0.328170   0.207616
    11  C    0.119379   0.063564   0.119423
    12  C    0.097683   0.066871   0.102305
 
 EQQ= 0.911083755329E-01 EQD=-0.783270136794E-01 EDD= 0.140381112509E-01
 EQQ+QD+DD= 0.268194731043E-01
 
                          Isotropic Fermi Contact Couplings
        Atom                 a.u.       MegaHertz       Gauss      10(-4) cm-1
     1  C(13)             -0.00077      -0.86319      -0.30801      -0.28793
     2  C(13)             -0.01279     -14.38192      -5.13183      -4.79729
     3  C(13)              0.02024      22.75151       8.11830       7.58909
     4  C(13)              0.03138      35.27978      12.58870      11.76807
     5  O(17)              0.00670      -4.05890      -1.44832      -1.35390
     6  O(17)              0.00000      -0.00057      -0.00020      -0.00019
     7  C(13)              0.05035      56.59864      20.19580      18.87927
     8  C(13)              0.00091       1.02494       0.36572       0.34188
     9  C(13)             -0.01850     -20.80169      -7.42256      -6.93870
    10  C(13)              0.05868      65.96442      23.53775      22.00336
    11  C(13)             -0.01027     -11.53998      -4.11775      -3.84932
    12  C(13)             -0.00796      -8.95145      -3.19410      -2.98588
    13  H(1)              -0.00020      -0.90568      -0.32317      -0.30210
    14  H(1)              -0.00017      -0.77384      -0.27613      -0.25813
    15  H(1)              -0.00033      -1.45855      -0.52045      -0.48652
    16  H(1)              -0.00010      -0.45024      -0.16066      -0.15018
    17  H(1)              -0.00011      -0.48677      -0.17369      -0.16237
    18  H(1)               0.00199       8.88943       3.17197       2.96520
    19  H(1)               0.00016       0.69980       0.24970       0.23343
    20  H(1)              -0.00257     -11.46627      -4.09145      -3.82473
    21  H(1)              -0.00026      -1.14251      -0.40768      -0.38110
    22  H(1)              -0.00728     -32.55446     -11.61624     -10.85900
    23  H(1)              -0.00123      -5.51267      -1.96706      -1.83883
    24  H(1)              -0.00156      -6.97254      -2.48798      -2.32579
 --------------------------------------------------------
       Center         ----  Spin Dipole Couplings  ----
                      3XX-RR        3YY-RR        3ZZ-RR
 --------------------------------------------------------
     1   Atom        0.001302      0.002059     -0.003362
     2   Atom       -0.021692     -0.020387      0.042079
     3   Atom       -0.004423     -0.022372      0.026795
     4   Atom        0.002137     -0.012768      0.010631
     5   Atom       -0.108319      0.112633     -0.004314
     6   Atom       -0.014261      0.036201     -0.021940
     7   Atom       -0.185145     -0.179093      0.364238
     8   Atom       -0.063960     -0.045875      0.109835
     9   Atom        0.006847      0.011997     -0.018844
    10   Atom       -0.204500     -0.197830      0.402330
    11   Atom       -0.026245     -0.012327      0.038572
    12   Atom       -0.030697     -0.018773      0.049470
    13   Atom        0.000555      0.002156     -0.002712
    14   Atom       -0.000178      0.003037     -0.002859
    15   Atom        0.001481      0.000236     -0.001717
    16   Atom       -0.000650      0.000827     -0.000177
    17   Atom       -0.000073     -0.004334      0.004406
    18   Atom        0.005064     -0.004046     -0.001018
    19   Atom        0.000121      0.001002     -0.001123
    20   Atom       -0.007902      0.012495     -0.004593
    21   Atom       -0.003664      0.008092     -0.004427
    22   Atom        0.034057     -0.027027     -0.007030
    23   Atom       -0.006495      0.010910     -0.004416
    24   Atom       -0.007804      0.012435     -0.004631
 --------------------------------------------------------
                        XY            XZ            YZ
 --------------------------------------------------------
     1   Atom       -0.004974      0.000381     -0.001011
     2   Atom        0.002557      0.015786      0.018837
     3   Atom        0.003179     -0.029668     -0.006000
     4   Atom        0.020374      0.030933      0.019454
     5   Atom        0.010373      0.017453      0.156103
     6   Atom       -0.016372      0.012698     -0.007137
     7   Atom        0.028658      0.122742      0.139852
     8   Atom        0.006276      0.031700      0.038127
     9   Atom        0.002310     -0.008541     -0.008982
    10   Atom        0.028531      0.125412      0.154752
    11   Atom        0.000699      0.011151      0.014011
    12   Atom        0.008222      0.013112      0.016742
    13   Atom       -0.003591      0.001476     -0.001242
    14   Atom       -0.003773     -0.001179      0.001704
    15   Atom       -0.002791     -0.000296      0.000470
    16   Atom        0.001924     -0.003771     -0.005006
    17   Atom        0.000398     -0.003380      0.002764
    18   Atom       -0.000491     -0.002335     -0.000076
    19   Atom        0.002174      0.001694      0.000796
    20   Atom        0.008996     -0.001416     -0.005865
    21   Atom        0.002043     -0.000889     -0.003657
    22   Atom       -0.011151     -0.005313      0.007208
    23   Atom        0.004762     -0.001023     -0.004900
    24   Atom        0.000120      0.000538     -0.004556
 --------------------------------------------------------


 ---------------------------------------------------------------------------------
              Anisotropic Spin Dipole Couplings in Principal Axis System
 ---------------------------------------------------------------------------------

       Atom             a.u.   MegaHertz   Gauss  10(-4) cm-1        Axes

              Baa    -0.0038    -0.510    -0.182    -0.170  0.4187  0.4879  0.7660
     1 C(13)  Bbb    -0.0030    -0.399    -0.142    -0.133 -0.6092 -0.4747  0.6353
              Bcc     0.0068     0.908     0.324     0.303 -0.6735  0.7326 -0.0984
 
              Baa    -0.0271    -3.643    -1.300    -1.215  0.6449  0.6873 -0.3341
     2 C(13)  Bbb    -0.0237    -3.175    -1.133    -1.059  0.7336 -0.6793  0.0185
              Bcc     0.0508     6.818     2.433     2.274  0.2143  0.2570  0.9424
 
              Baa    -0.0232    -3.115    -1.112    -1.039  0.2926  0.9133  0.2832
     3 C(13)  Bbb    -0.0222    -2.975    -1.062    -0.993  0.8064 -0.3948  0.4402
              Bcc     0.0454     6.091     2.173     2.032 -0.5139 -0.0996  0.8521
 
              Baa    -0.0274    -3.680    -1.313    -1.227  0.7004 -0.6782 -0.2226
     4 C(13)  Bbb    -0.0227    -3.048    -1.088    -1.017 -0.3696 -0.6114  0.6996
              Bcc     0.0501     6.728     2.401     2.244  0.6106  0.4077  0.6789
 
              Baa    -0.1195     8.648     3.086     2.885 -0.6371 -0.4103  0.6525
     5 O(17)  Bbb    -0.1024     7.408     2.643     2.471  0.7687 -0.3996  0.4993
              Bcc     0.2219   -16.056    -5.729    -5.356  0.0559  0.8197  0.5700
 
              Baa    -0.0317     2.290     0.817     0.764 -0.6309 -0.0710  0.7726
     6 O(17)  Bbb    -0.0111     0.805     0.287     0.269  0.7132  0.3392  0.6135
              Bcc     0.0428    -3.095    -1.105    -1.033 -0.3056  0.9380 -0.1634
 
              Baa    -0.2135   -28.643   -10.221    -9.554  0.4095  0.8630 -0.2959
     7 C(13)  Bbb    -0.2107   -28.280   -10.091    -9.433  0.8896 -0.4497 -0.0805
              Bcc     0.4242    56.923    20.311    18.987  0.2026  0.2303  0.9518
 
              Baa    -0.0696    -9.336    -3.331    -3.114  0.9833  0.0290 -0.1799
     8 C(13)  Bbb    -0.0546    -7.332    -2.616    -2.446 -0.0677  0.9747 -0.2129
              Bcc     0.1242    16.668     5.948     5.560  0.1692  0.2215  0.9604
 
              Baa    -0.0232    -3.119    -1.113    -1.040  0.2502  0.2237  0.9420
     9 C(13)  Bbb     0.0065     0.867     0.309     0.289  0.8484 -0.5194 -0.1020
              Bcc     0.0168     2.252     0.804     0.751  0.4664  0.8247 -0.3197
 
              Baa    -0.2359   -31.653   -11.294   -10.558  0.2583  0.9260 -0.2753
    10 C(13)  Bbb    -0.2287   -30.693   -10.952   -10.238  0.9474 -0.2985 -0.1151
              Bcc     0.4646    62.345    22.246    20.796  0.1887  0.2311  0.9544
 
              Baa    -0.0283    -3.799    -1.356    -1.267  0.9745  0.1222 -0.1881
    11 C(13)  Bbb    -0.0156    -2.091    -0.746    -0.698 -0.1624  0.9629 -0.2157
              Bcc     0.0439     5.890     2.102     1.965  0.1547  0.2407  0.9582
 
              Baa    -0.0352    -4.717    -1.683    -1.573  0.9166 -0.3947 -0.0639
    12 C(13)  Bbb    -0.0207    -2.776    -0.991    -0.926  0.3632  0.8887 -0.2799
              Bcc     0.0558     7.493     2.674     2.499  0.1673  0.2334  0.9579
 
              Baa    -0.0033    -1.754    -0.626    -0.585 -0.4062 -0.0599  0.9118
    13 H(1)   Bbb    -0.0022    -1.166    -0.416    -0.389  0.6734  0.6550  0.3429
              Bcc     0.0055     2.920     1.042     0.974 -0.6177  0.7533 -0.2257
 
              Baa    -0.0033    -1.785    -0.637    -0.595  0.1779 -0.1543  0.9719
    14 H(1)   Bbb    -0.0027    -1.424    -0.508    -0.475  0.8240  0.5632 -0.0615
              Bcc     0.0060     3.209     1.145     1.070 -0.5379  0.8118  0.2273
 
              Baa    -0.0021    -1.120    -0.400    -0.374  0.5158  0.7122 -0.4761
    15 H(1)   Bbb    -0.0017    -0.890    -0.318    -0.297  0.3655  0.3197  0.8742
              Bcc     0.0038     2.011     0.717     0.671  0.7748 -0.6249 -0.0954
 
              Baa    -0.0054    -2.879    -1.027    -0.960  0.4115  0.4906  0.7681
    16 H(1)   Bbb    -0.0020    -1.047    -0.374    -0.349  0.7921 -0.6094 -0.0352
              Bcc     0.0074     3.926     1.401     1.310 -0.4508 -0.6229  0.6394
 
              Baa    -0.0055    -2.946    -1.051    -0.983 -0.2793  0.8962 -0.3446
    17 H(1)   Bbb    -0.0012    -0.626    -0.223    -0.209  0.8597  0.3933  0.3260
              Bcc     0.0067     3.571     1.274     1.191 -0.4277  0.2052  0.8803
 
              Baa    -0.0041    -2.181    -0.778    -0.728  0.0739  0.9940  0.0808
    18 H(1)   Bbb    -0.0018    -0.954    -0.340    -0.318  0.3144 -0.1001  0.9440
              Bcc     0.0059     3.135     1.119     1.046  0.9464 -0.0444 -0.3200
 
              Baa    -0.0025    -1.317    -0.470    -0.439 -0.6728  0.2628  0.6915
    19 H(1)   Bbb    -0.0010    -0.510    -0.182    -0.170 -0.3809  0.6783 -0.6284
              Bcc     0.0034     1.827     0.652     0.609  0.6342  0.6862  0.3563
 
              Baa    -0.0114    -6.085    -2.171    -2.030  0.9160 -0.3779 -0.1349
    20 H(1)   Bbb    -0.0061    -3.262    -1.164    -1.088  0.2209  0.1944  0.9557
              Bcc     0.0175     9.347     3.335     3.118  0.3349  0.9052 -0.2616
 
              Baa    -0.0055    -2.928    -1.045    -0.977  0.2126  0.2241  0.9511
    21 H(1)   Bbb    -0.0040    -2.115    -0.755    -0.706  0.9630 -0.2132 -0.1650
              Bcc     0.0095     5.043     1.800     1.682  0.1658  0.9509 -0.2612
 
              Baa    -0.0307   -16.357    -5.836    -5.456  0.1433  0.9551 -0.2592
    22 H(1)   Bbb    -0.0063    -3.384    -1.207    -1.129  0.1892  0.2306  0.9545
              Bcc     0.0370    19.740     7.044     6.585  0.9714 -0.1858 -0.1477
 
              Baa    -0.0077    -4.128    -1.473    -1.377  0.9561 -0.2724 -0.1076
    23 H(1)   Bbb    -0.0058    -3.087    -1.102    -1.030  0.1736  0.2314  0.9572
              Bcc     0.0135     7.215     2.574     2.407  0.2359  0.9339 -0.2686
 
              Baa    -0.0079    -4.239    -1.512    -1.414  0.9693 -0.0590 -0.2386
    24 H(1)   Bbb    -0.0056    -3.005    -1.072    -1.002  0.2458  0.2355  0.9403
              Bcc     0.0136     7.243     2.585     2.416 -0.0007  0.9701 -0.2428
 

 ---------------------------------------------------------------------------------

 Running external command "gaunbo6 R"
         input file       "/tmp/Gau-3413864.EIn"
         output file      "/tmp/Gau-3413864.EOu"
         message file     "/tmp/Gau-3413864.EMs"
         fchk file        "/tmp/Gau-3413864.EFC"
         mat. el file     "/tmp/Gau-3413864.EUF"

 Writing WrtUnf unformatted file "/tmp/Gau-3413864.EUF"
 Gaussian matrix elements                                         Version   2 NLab=11 Len12L=8 Len4L=8
 Write SHELL TO ATOM MAP                   from file      0 offset           0 length                 180 to matrix element file.
 Write SHELL TYPES                         from file      0 offset           0 length                 180 to matrix element file.
 Write NUMBER OF PRIMITIVES PER SHELL      from file      0 offset           0 length                 180 to matrix element file.
 Write PRIMITIVE EXPONENTS                 from file      0 offset           0 length                 312 to matrix element file.
 Write CONTRACTION COEFFICIENTS            from file      0 offset           0 length                 312 to matrix element file.
 Write P(S=P) CONTRACTION COEFFICIENTS     from file      0 offset           0 length                 312 to matrix element file.
 Write COORDINATES OF EACH SHELL           from file      0 offset           0 length                 540 to matrix element file.
 Write BONDS PER ATOM                      from file      0 offset           0 length                  24 to matrix element file.
 Write BONDED ATOMS                        from file      0 offset           0 length                  48 to matrix element file.
 Write BOND TYPES                          from file      0 offset           0 length                  48 to matrix element file.
 Write ONIOM CHARGE/MULT                   from file      0 offset           0 length                  32 to matrix element file.
 Write ONIOM ATOM LAYERS                   from file      0 offset           0 length                  24 to matrix element file.
 Write ONIOM ATOM MODIFIERS                from file      0 offset           0 length                  24 to matrix element file.
 Write ONIOM ATOM TYPES                    from file      0 offset           0 length                  24 to matrix element file.
 Write ONIOM LINK ATOMS                    from file      0 offset           0 length                  24 to matrix element file.
 Write ONIOM LINK CHARGES                  from file      0 offset           0 length                  24 to matrix element file.
 Write ONIOM LINK DISTANCES                from file      0 offset           0 length                  96 to matrix element file.
 Write SYMINF INTS                         from file      0 offset           0 length                  26 to matrix element file.
 Write ROTTR TO SO                         from file      0 offset           0 length                  12 to matrix element file.
 Write GAUSSIAN SCALARS                    from file    501 offset           0 to matrix element file.
 Write OPTIMIZATION FLAGS                  from file      0 offset           0 length                  24 to matrix element file.
 Write INTEGER ISO                         from file      0 offset           0 length                  24 to matrix element file.
 Write INTEGER SPIN                        from file      0 offset           0 length                  24 to matrix element file.
 Write REAL ZEFFECTIVE                     from file      0 offset           0 length                  24 to matrix element file.
 Write REAL GFACTOR                        from file      0 offset           0 length                  24 to matrix element file.
 Write REAL ZNUCLEAR                       from file      0 offset           0 length                  24 to matrix element file.
 Write MULLIKEN CHARGES                    from file      0 offset           0 length                  24 to matrix element file.
 Write TYPE 6 CHARGES                      from file      0 offset           0 length                  24 to matrix element file.
 Write TYPE 7 CHARGES                      from file      0 offset           0 length                  24 to matrix element file.
 Write NUCLEAR GRADIENT                    from file  10584 offset           0 length                  72 to matrix element file.
 Array NUCLEAR FORCE CONSTANTS              on  file  10585 does not exist.
 Write ELECTRIC DIPOLE MOMENT              from file      0 offset           0 length                   3 to matrix element file.
 Write NON-ADIABATIC COUPLING              from file  10810 offset           0 length                  72 to matrix element file.
 Write FINITE EM FIELD                     from file  10521 offset           0 length                  35 to matrix element file.
 Write OVERLAP                             from file  10514 offset           0 length               98790 to matrix element file.
 Write CORE HAMILTONIAN ALPHA              from file  10515 offset           0 length               98790 to matrix element file.
 Write CORE HAMILTONIAN BETA               from file  10515 offset       98790 length               98790 to matrix element file.
 Write KINETIC ENERGY                      from file  10516 offset           0 length               98790 to matrix element file.
 Write ORTHOGONAL BASIS                    from file  10685 offset           0 length              197136 to matrix element file.
 Write DIPOLE INTEGRALS                    from file  10518 offset           0 length              296370 to matrix element file.
 Array DIP VEL INTEGRALS                    on  file  10572 does not exist.
 Array R X DEL INTEGRALS                    on  file  10572 does not exist.
 Write ALPHA ORBITAL ENERGIES              from file      0 offset           0 length                 444 to matrix element file.
 Write BETA ORBITAL ENERGIES               from file      0 offset           0 length                 444 to matrix element file.
 Write ALPHA MO COEFFICIENTS               from file  10524 offset           0 length              197136 to matrix element file.
 Write BETA MO COEFFICIENTS                from file  10526 offset           0 length              197136 to matrix element file.
 Write ALPHA DENSITY MATRIX                from file      0 offset           0 length               98790 to matrix element file.
 Write BETA DENSITY MATRIX                 from file      0 offset           0 length               98790 to matrix element file.
 Write ALPHA FOCK MATRIX                   from file  10536 offset           0 length               98790 to matrix element file.
 Write BETA FOCK MATRIX                    from file  10538 offset           0 length               98790 to matrix element file.
 Write ENERGY-WEIGHTED DENSITY             from file  10571 offset           0 length               98790 to matrix element file.
 Write ALPHA SCF DENSITY MATRIX            from file      0 offset           0 length               98790 to matrix element file.
 Write BETA SCF DENSITY MATRIX             from file      0 offset           0 length               98790 to matrix element file.
 No 2e integrals to process.
 Perform NBO analysis...

 *********************************** NBO 7.0 ***********************************
             N A T U R A L   A T O M I C   O R B I T A L   A N D
          N A T U R A L   B O N D   O R B I T A L   A N A L Y S I S
 **************************** Robert Paton (I101709) ***************************
  (c) Copyright 1996-2019 Board of Regents of the University of Wisconsin System
      on behalf of the Theoretical Chemistry Institute.  All rights reserved.

          Cite this program [NBO 7.0.5 (4-Jun-2019)] as:

          NBO 7.0.  E. D. Glendening, J. K. Badenhoop, A. E. Reed,
          J. E. Carpenter, J. A. Bohmann, C. M. Morales, P. Karafiloglou,
          C. R. Landis, and F. Weinhold, Theoretical Chemistry Institute,
          University of Wisconsin, Madison, WI (2018)

 Filename set to /tmp/Gau-3413864

 Job title:  Ac5_rdkit_conf_3_SP_charge_p


 NATURAL POPULATIONS:  Natural atomic orbital occupancies

  NAO Atom No lang   Type(AO)    Occupancy     Spin
 -----------------------------------------------------
   1    C  1  s      Cor( 1s)     1.99999     0.00000
   2    C  1  s      Val( 2s)     1.10640    -0.00007
   3    C  1  s      Ryd( 3s)     0.00042     0.00001
   4    C  1  s      Ryd( 4s)     0.00008     0.00000
   5    C  1  s      Ryd( 5s)     0.00000     0.00000
   6    C  1  px     Val( 2p)     1.23371     0.00024
   7    C  1  px     Ryd( 3p)     0.00156    -0.00001
   8    C  1  px     Ryd( 4p)     0.00010     0.00000
   9    C  1  py     Val( 2p)     1.02366     0.00035
  10    C  1  py     Ryd( 3p)     0.00085    -0.00001
  11    C  1  py     Ryd( 4p)     0.00018     0.00000
  12    C  1  pz     Val( 2p)     1.23057     0.00008
  13    C  1  pz     Ryd( 3p)     0.00159    -0.00002
[...]
  125. RY ( 1) C  3             0.00072     1.00782
  126. RY ( 2) C  3             0.00051     1.03528
  127. RY ( 3) C  3             0.00026     1.55050
  128. RY ( 4) C  3             0.00010     1.46905
  129. RY ( 5) C  3             0.00006     1.28975
  130. RY ( 6) C  3             0.00005     1.22759
  131. RY ( 7) C  3             0.00003     1.34529
  132. RY ( 8) C  3             0.00003     2.45457
  133. RY ( 9) C  3             0.00001     2.34305
  134. RY (10) C  3             0.00001     2.14404
  135. RY (11) C  3             0.00001     2.14698
  136. RY (12) C  3             0.00001     2.00883
  137. RY (13) C  3             0.00000     2.69275
  138. RY (14) C  3             0.00000     2.27294
  139. RY (15) C  3             0.00000     2.15023
  140. RY (16) C  3             0.00000     5.10979
  141. RY (17) C  3             0.00000     3.42175
  142. RY (18) C  3             0.00000     2.88579
  143. RY (19) C  3             0.00000     3.87776
  144. RY (20) C  3             0.00000     2.82643
  145. RY (21) C  3             0.00000     3.15194
  146. RY (22) C  3             0.00000    15.24849
  147. RY (23) C  3             0.00000     4.31349
  148. RY (24) C  3             0.00000     3.54733
  149. RY (25) C  3             0.00000     3.66782
  150. RY (26) C  3             0.00000     2.95160
  151. RY ( 1) C  4             0.00829     1.17851
  152. RY ( 2) C  4             0.00314     1.63672
  153. RY ( 3) C  4             0.00184     1.88325
  154. RY ( 4) C  4             0.00116     2.56260
  155. RY ( 5) C  4             0.00065     1.16594
  156. RY ( 6) C  4             0.00034     3.27812
  157. RY ( 7) C  4             0.00029     1.93855
  158. RY ( 8) C  4             0.00009     1.75171
  159. RY ( 9) C  4             0.00005     1.98364
  160. RY (10) C  4             0.00003     1.50400
  161. RY (11) C  4             0.00003     1.94285
  162. RY (12) C  4             0.00002     2.52369
  163. RY (13) C  4             0.00002     2.43046
  164. RY (14) C  4             0.00001     2.14155
  165. RY (15) C  4             0.00000     2.50298
  166. RY (16) C  4             0.00000     2.98391
  167. RY (17) C  4             0.00000     2.81902
  168. RY (18) C  4             0.00000     3.20479
  169. RY (19) C  4             0.00000     6.93447
  170. RY (20) C  4             0.00000     2.69897
  171. RY (21) C  4             0.00000     5.23358
  172. RY (22) C  4             0.00000     7.90737
  173. RY (23) C  4             0.00000     6.31857
  174. RY (24) C  4             0.00000     5.16835
  175. RY (25) C  4             0.00000     3.52603
  176. RY (26) C  4             0.00000     3.57136
  177. RY ( 1) O  5             0.00115     0.87307
  178. RY ( 2) O  5             0.00044     0.87891
  179. RY ( 3) O  5             0.00012     1.35033
  180. RY ( 4) O  5             0.00008     2.48242
  181. RY ( 5) O  5             0.00003     2.22106
  182. RY ( 6) O  5             0.00002     2.86570
  183. RY ( 7) O  5             0.00002     2.22930
  184. RY ( 8) O  5             0.00001     4.95800
  185. RY ( 9) O  5             0.00000     2.04553
  186. RY (10) O  5             0.00000     3.63412
  187. RY (11) O  5             0.00000     2.08819
  188. RY (12) O  5             0.00000    10.92978
  189. RY (13) O  5             0.00000     4.60706
  190. RY (14) O  5             0.00000     3.61135
  191. RY (15) O  5             0.00000    17.89248
  192. RY (16) O  5             0.00000    10.62246
  193. RY (17) O  5             0.00000     6.62320
  194. RY (18) O  5             0.00000     3.50372
  195. RY (19) O  5             0.00000     8.70347
  196. RY (20) O  5             0.00000     5.52391
  197. RY (21) O  5             0.00000     7.47301
  198. RY (22) O  5             0.00000     5.50398
  199. RY (23) O  5             0.00000     5.62089
  200. RY (24) O  5             0.00000    11.24023
  201. RY (25) O  5             0.00000     6.32593
  202. RY (26) O  5             0.00000     5.42098
  203. RY ( 1) O  6             0.00062     0.69320
  204. RY ( 2) O  6             0.00046     1.06904
  205. RY ( 3) O  6             0.00033     2.75059
  206. RY ( 4) O  6             0.00009     1.45696
  207. RY ( 5) O  6             0.00004     1.75127
  208. RY ( 6) O  6             0.00002     1.84632
  209. RY ( 7) O  6             0.00002     2.10627
  210. RY ( 8) O  6             0.00001     3.52517
  211. RY ( 9) O  6             0.00001     2.49478
  212. RY (10) O  6             0.00000     2.33939
  213. RY (11) O  6             0.00000     3.39436
  214. RY (12) O  6             0.00000     3.57705
  215. RY (13) O  6             0.00000     5.90317
  216. RY (14) O  6             0.00000    12.66363
  217. RY (15) O  6             0.00000    12.08213
  218. RY (16) O  6             0.00000     3.51696
  219. RY (17) O  6             0.00000     5.36781
  220. RY (18) O  6             0.00000     5.90245
  221. RY (19) O  6             0.00000     5.89201
  222. RY (20) O  6             0.00000     5.75978
  223. RY (21) O  6             0.00000    15.34347
  224. RY (22) O  6             0.00000     5.18686
  225. RY (23) O  6             0.00000     6.86928
  226. RY (24) O  6             0.00000     6.35012
  227. RY (25) O  6             0.00000     8.63831
  228. RY (26) O  6             0.00000    11.96107
  229. RY ( 1) C  7             0.00313     1.18523
  230. RY ( 2) C  7             0.00136     0.96995
  231. RY ( 3) C  7             0.00062     1.04077
  232. RY ( 4) C  7             0.00026     2.27565
  233. RY ( 5) C  7             0.00019     3.48197
  234. RY ( 6) C  7             0.00015     2.53837
  235. RY ( 7) C  7             0.00014     3.16837
  236. RY ( 8) C  7             0.00011     1.99327
  237. RY ( 9) C  7             0.00009     1.87886
  238. RY (10) C  7             0.00007     1.98132
  239. RY (11) C  7             0.00005     2.03036
  240. RY (12) C  7             0.00004     2.33300
  241. RY (13) C  7             0.00003     2.91841
  242. RY (14) C  7             0.00002     2.60975
  243. RY (15) C  7             0.00002     2.88014
  244. RY (16) C  7             0.00001     3.18137
  245. RY (17) C  7             0.00001     2.43846
  246. RY (18) C  7             0.00000     2.69963
  247. RY (19) C  7             0.00000     2.79905
  248. RY (20) C  7             0.00000     3.28563
  249. RY (21) C  7             0.00000     3.35158
  250. RY (22) C  7             0.00000     3.39811
  251. RY (23) C  7             0.00000     6.82997
  252. RY (24) C  7             0.00000     3.28823
  253. RY (25) C  7             0.00000     3.37983
  254. RY (26) C  7             0.00000    15.90059
  255. RY ( 1) C  8             0.00240     1.33778
  256. RY ( 2) C  8             0.00058     0.80914
  257. RY ( 3) C  8             0.00051     0.85388
  258. RY ( 4) C  8             0.00032     1.14507
  259. RY ( 5) C  8             0.00019     2.53788
  260. RY ( 6) C  8             0.00012     1.82569
  261. RY ( 7) C  8             0.00007     1.74876
  262. RY ( 8) C  8             0.00004     2.23639
  263. RY ( 9) C  8             0.00003     1.79889
  264. RY (10) C  8             0.00002     2.00166
  265. RY (11) C  8             0.00001     1.79625
  266. RY (12) C  8             0.00001     2.27538
  267. RY (13) C  8             0.00001     3.23714
  268. RY (14) C  8             0.00000     2.68526
  269. RY (15) C  8             0.00000     2.62748
  270. RY (16) C  8             0.00000     2.92160
  271. RY (17) C  8             0.00000     2.51276
  272. RY (18) C  8             0.00000     3.88766
  273. RY (19) C  8             0.00000     5.77657
  274. RY (20) C  8             0.00000     4.63636
  275. RY (21) C  8             0.00000     2.97424
  276. RY (22) C  8             0.00000    12.75560
  277. RY (23) C  8             0.00000     3.94311
  278. RY (24) C  8             0.00000     3.72090
  279. RY (25) C  8             0.00000     2.81975
  280. RY (26) C  8             0.00000     4.39043
  281. RY ( 1) C  9             0.00241     1.39023
  282. RY ( 2) C  9             0.00066     1.22006
  283. RY ( 3) C  9             0.00036     0.47000
  284. RY ( 4) C  9             0.00025     1.20197
  285. RY ( 5) C  9             0.00017     3.06838
  286. RY ( 6) C  9             0.00004     2.35093
  287. RY ( 7) C  9             0.00003     1.61697
  288. RY ( 8) C  9             0.00001     2.20838
  289. RY ( 9) C  9             0.00001     1.57770
  290. RY (10) C  9             0.00001     2.18395
  291. RY (11) C  9             0.00000     3.21644
  292. RY (12) C  9             0.00000     2.69837
  293. RY (13) C  9             0.00000     2.80961
  294. RY (14) C  9             0.00000     2.50868
  295. RY (15) C  9             0.00000     1.99258
  296. RY (16) C  9             0.00000     9.53635
  297. RY (17) C  9             0.00000     1.98562
  298. RY (18) C  9             0.00000     3.11769
  299. RY (19) C  9             0.00000     2.63603
  300. RY (20) C  9             0.00000     3.73826
  301. RY (21) C  9             0.00000     3.70235
  302. RY (22) C  9             0.00000     3.02504
  303. RY (23) C  9             0.00000    10.74626
  304. RY (24) C  9             0.00000     3.00546
  305. RY (25) C  9             0.00000     3.24170
  306. RY (26) C  9             0.00000     2.96186
  307. RY ( 1) C 10             0.00191     1.39699
  308. RY ( 2) C 10             0.00054     1.21599
  309. RY ( 3) C 10             0.00025     1.03433
  310. RY ( 4) C 10             0.00014     3.15563
  311. RY ( 5) C 10             0.00014     2.42775
  312. RY ( 6) C 10             0.00006     0.64532
  313. RY ( 7) C 10             0.00004     2.21746
  314. RY ( 8) C 10             0.00001     1.40737
  315. RY ( 9) C 10             0.00001     2.90536
  316. RY (10) C 10             0.00001     3.12404
  317. RY (11) C 10             0.00000     2.09457
  318. RY (12) C 10             0.00000     5.11614
  319. RY (13) C 10             0.00000     2.87424
  320. RY (14) C 10             0.00000     2.88808
  321. RY (15) C 10             0.00000     4.24054
  322. RY (16) C 10             0.00000     1.81518
  323. RY (17) C 10             0.00000     2.92205
  324. RY (18) C 10             0.00000     1.74775
  325. RY (19) C 10             0.00000     1.75334
  326. RY (20) C 10             0.00000     2.04815
  327. RY (21) C 10             0.00000    12.24943
  328. RY (22) C 10             0.00000     3.69047
  329. RY (23) C 10             0.00000     3.26052
  330. RY (24) C 10             0.00000     3.57105
  331. RY (25) C 10             0.00000     3.02130
  332. RY (26) C 10             0.00000     4.92270
  333. RY ( 1) C 11             0.00234     1.38931
  334. RY ( 2) C 11             0.00065     1.21498
  335. RY ( 3) C 11             0.00034     0.52435
  336. RY ( 4) C 11             0.00025     1.20198
  337. RY ( 5) C 11             0.00017     3.05809
  338. RY ( 6) C 11             0.00004     2.40961
  339. RY ( 7) C 11             0.00002     1.48409
  340. RY ( 8) C 11             0.00001     2.16209
  341. RY ( 9) C 11             0.00001     1.87562
  342. RY (10) C 11             0.00001     2.14501
  343. RY (11) C 11             0.00000     2.67112
  344. RY (12) C 11             0.00000     3.09853
  345. RY (13) C 11             0.00000     2.62192
  346. RY (14) C 11             0.00000     3.03157
  347. RY (15) C 11             0.00000    14.38250
  348. RY (16) C 11             0.00000     5.13454
  349. RY (17) C 11             0.00000     2.26648
  350. RY (18) C 11             0.00000     2.35945
  351. RY (19) C 11             0.00000     3.06869
  352. RY (20) C 11             0.00000     2.67812
  353. RY (21) C 11             0.00000     3.14957
  354. RY (22) C 11             0.00000     3.43269
  355. RY (23) C 11             0.00000     4.49147
  356. RY (24) C 11             0.00000     3.16460
  357. RY (25) C 11             0.00000     3.09499
  358. RY (26) C 11             0.00000     2.12261
  359. RY ( 1) C 12             0.00241     1.35987
  360. RY ( 2) C 12             0.00066     0.47371
  361. RY ( 3) C 12             0.00052     1.18790
  362. RY ( 4) C 12             0.00032     1.45911
  363. RY ( 5) C 12             0.00016     3.06245
  364. RY ( 6) C 12             0.00011     1.25313
  365. RY ( 7) C 12             0.00007     1.88995
  366. RY ( 8) C 12             0.00004     1.61958
  367. RY ( 9) C 12             0.00002     1.44406
  368. RY (10) C 12             0.00002     2.83492
  369. RY (11) C 12             0.00001     1.66711
  370. RY (12) C 12             0.00001     3.08742
  371. RY (13) C 12             0.00000     3.34058
  372. RY (14) C 12             0.00000     3.40400
  373. RY (15) C 12             0.00000     3.32720
  374. RY (16) C 12             0.00000     2.64768
  375. RY (17) C 12             0.00000     2.36841
  376. RY (18) C 12             0.00000     3.88856
  377. RY (19) C 12             0.00000     5.16413
  378. RY (20) C 12             0.00000     2.74136
  379. RY (21) C 12             0.00000     3.13524
  380. RY (22) C 12             0.00000     9.19445
  381. RY (23) C 12             0.00000     8.39140
  382. RY (24) C 12             0.00000     2.88707
  383. RY (25) C 12             0.00000     3.28454
  384. RY (26) C 12             0.00000     3.86213
  385. RY ( 1) H 13             0.00014     0.75608
  386. RY ( 2) H 13             0.00003     1.94171
  387. RY ( 3) H 13             0.00002     2.21598
  388. RY ( 4) H 13             0.00001     2.09569
  389. RY ( 5) H 13             0.00000     2.41729
  390. RY ( 1) H 14             0.00016     0.77965
  391. RY ( 2) H 14             0.00004     1.96078
  392. RY ( 3) H 14             0.00002     2.16991
  393. RY ( 4) H 14             0.00001     2.09171
  394. RY ( 5) H 14             0.00000     2.34839
  395. RY ( 1) H 15             0.00012     1.10376
  396. RY ( 2) H 15             0.00002     1.89901
  397. RY ( 3) H 15             0.00001     2.06084
  398. RY ( 4) H 15             0.00001     2.06784
  399. RY ( 5) H 15             0.00000     2.16803
  400. RY ( 1) H 16             0.00015     0.79101
  401. RY ( 2) H 16             0.00003     2.16259
  402. RY ( 3) H 16             0.00002     2.13098
  403. RY ( 4) H 16             0.00001     2.04372
  404. RY ( 5) H 16             0.00000     2.20408
  405. RY ( 1) H 17             0.00023     0.75679
  406. RY ( 2) H 17             0.00003     2.05232
  407. RY ( 3) H 17             0.00002     2.07076
  408. RY ( 4) H 17             0.00001     2.05319
  409. RY ( 5) H 17             0.00000     2.29410
  410. RY ( 1) H 18             0.00012     0.99820
  411. RY ( 2) H 18             0.00002     2.07381
  412. RY ( 3) H 18             0.00002     1.82556
  413. RY ( 4) H 18             0.00001     2.06735
  414. RY ( 5) H 18             0.00000     2.24286
  415. RY ( 1) H 19             0.00061     0.81839
  416. RY ( 2) H 19             0.00029     1.84184
  417. RY ( 3) H 19             0.00023     1.52714
  418. RY ( 4) H 19             0.00005     2.05470
  419. RY ( 5) H 19             0.00000     3.18118
  420. RY ( 1) H 20             0.00020     1.05155
  421. RY ( 2) H 20             0.00005     1.45082
  422. RY ( 3) H 20             0.00003     2.08105
  423. RY ( 4) H 20             0.00002     2.25298
  424. RY ( 5) H 20             0.00001     2.75967
  425. RY ( 1) H 21             0.00010     0.47565
  426. RY ( 2) H 21             0.00005     1.83649
  427. RY ( 3) H 21             0.00002     1.97026
  428. RY ( 4) H 21             0.00001     2.32942
  429. RY ( 5) H 21             0.00000     2.76101
  430. RY ( 1) H 22             0.00009     0.83519
  431. RY ( 2) H 22             0.00004     1.49987
  432. RY ( 3) H 22             0.00001     2.29531
  433. RY ( 4) H 22             0.00000     1.95084
  434. RY ( 5) H 22             0.00000     2.73867
  435. RY ( 1) H 23             0.00009     0.55012
  436. RY ( 2) H 23             0.00005     1.76978
  437. RY ( 3) H 23             0.00002     1.96669
  438. RY ( 4) H 23             0.00001     2.32413
  439. RY ( 5) H 23             0.00000     2.75980
  440. RY ( 1) H 24             0.00018     0.88353
  441. RY ( 2) H 24             0.00004     1.62397
  442. RY ( 3) H 24             0.00003     2.28781
  443. RY ( 4) H 24             0.00003     2.02495
  444. RY ( 5) H 24             0.00000     2.78310
          -------------------------------
                 Total Lewis   42.22138  ( 98.1893%)
           Valence non-Lewis    0.71917  (  1.6725%)
           Rydberg non-Lewis    0.05945  (  0.1382%)
          -------------------------------
               Total unit  1   43.00000  (100.0000%)
              Charge unit  1    1.00000

 $CHOOSE
  ALPHA
   LONE 5 2 6 2 END
   BOND S 1 2 S 1 13 S 1 14 S 1 15 S 2 3 S 2 4 S 2 7 S 3 16 S 3 17 S 3 18 D 4 5
        S 4 6 S 6 19 S 7 8 D 7 12 D 8 9 S 8 20 S 9 10 S 9 21 D 10 11 S 10 22
        S 11 12 S 11 23 S 12 24 END
  END
  BETA
   LONE 5 2 6 2 END
   BOND S 1 2 S 1 13 S 1 14 S 1 15 S 2 3 S 2 4 S 2 7 S 3 16 S 3 17 S 3 18 D 4 5
        S 4 6 S 6 19 S 7 8 S 7 12 D 8 9 S 8 20 S 9 10 S 9 21 S 10 11 S 10 22
        D 11 12 S 11 23 S 12 24 END
  END
 $END

 NBO analysis completed in 6.45 CPU seconds (6 wall seconds)
 Maximum scratch memory used by NBO was 2120969 words (16.18 MB)
 Maximum scratch memory used by G16NBO was 405152 words (3.09 MB)

 Opening RunExU unformatted file "/tmp/Gau-3413864.EUF"
 Read unf file /tmp/Gau-3413864.EUF:
 Label Gaussian matrix elements                                         IVers= 2 NLab= 2 Version=AS64L-G16RevC.01
 Title Ac5_rdkit_conf_3_SP_charge_p                                    
 NAtoms=    24 NBasis=   444 NBsUse=   444 ICharg=     1 Multip=     2 NE=    87 Len12L=8 Len4L=8 IOpCl= 1 ICGU=112
 GAUSSIAN SCALARS                    NI= 1 NR= 1 NTot=       1 LenBuf=    2 NRI=1 N=    1000
 NPA CHARGES                         NI= 0 NR= 1 NTot=      24 LenBuf= 2048 NRI=1 N=      24
 Recovered energy= -538.404705968     dipole=      2.305579166207     -0.276115097217      0.516065071532
 Unable to Open any file for archive entry.
 1\1\GINC-NODE19\SP\UM062X\def2TZVP\C10H12O2(1+,2)\SVSS\29-Jan-2024\0\\
 # pop=(nbo6, hirshfeld) m062x/def2tzvp\\Ac5_rdkit_conf_3_SP_charge_p\\
 1,2\C,0,-1.426577,1.885298,0.262769\C,0,-1.022308,0.422408,0.427874\C,
 0,-1.404101,-0.04817,1.838882\C,0,-1.774268,-0.382772,-0.630252\O,0,-2
 .202813,0.059444,-1.658005\O,0,-1.907135,-1.684903,-0.307582\C,0,0.474
 354,0.187226,0.178509\C,0,1.025446,-1.08098,0.374013\C,0,2.375212,-1.3
 12843,0.164418\C,0,3.207689,-0.279962,-0.245304\C,0,2.672761,0.981402,
 -0.447134\C,0,1.317919,1.211669,-0.24073\H,0,-1.241906,2.241416,-0.748
 35\H,0,-0.879808,2.505598,0.973389\H,0,-2.492915,1.993456,0.460885\H,0
 ,-1.153888,-1.092471,2.005731\H,0,-0.869472,0.558692,2.570218\H,0,-2.4
 75857,0.075009,2.002742\H,0,-2.350617,-2.113507,-1.053886\H,0,0.390287
 ,-1.900657,0.682412\H,0,2.777964,-2.305129,0.322043\H,0,4.262403,-0.45
 95,-0.407611\H,0,3.308054,1.79606,-0.770145\H,0,0.928575,2.205049,-0.4
 11005\\Version=AS64L-G16RevC.01\State=2-A\HF=-538.404706\S2=0.767132\S
 2-1=0.\S2A=0.750098\RMSD=5.619e-09\Dipole=2.3055792,-0.276115,0.516065
 1\Quadrupole=12.5077978,-0.6596332,-11.8481646,1.2019304,-4.5216985,1.
 3066293\PG=C01 [X(C10H12O2)]\\@
 The archive entry for this job was punched.


 ONLY THE DAY DAWNS TO WHICH YOU ARE AWAKE.

                                 -- THOREAU
 Job cpu time:       0 days  0 hours 51 minutes 23.5 seconds.
 Elapsed time:       0 days  0 hours  6 minutes 41.9 seconds.
 File lengths (MBytes):  RWF=    191 Int=      0 D2E=      0 Chk=     15 Scr=      1
 Normal termination of Gaussian 16 at Mon Jan 29 15:37:34 2024.
