Job Start Time: Mon Jan 29 15:11:05 MST 2024
SLURM Job ID: 229833
SLURM Job Name: Ac5_rdkit_conf_1_SP_charge
 Entering Gaussian System, Link 0=/opt/apps/Gaussian/G16C/g16/g16
 Initial command:
 /opt/apps/Gaussian/G16C/g16/l1.exe "/tmp/Gau-1602386.inp" -scrdir="/tmp/"
 Entering Link 1 = /opt/apps/Gaussian/G16C/g16/l1.exe PID=   1602388.
  
 Copyright (c) 1988-2019, Gaussian, Inc.  All Rights Reserved.
  
 This is part of the Gaussian(R) 16 program.  It is based on
 the Gaussian(R) 09 system (copyright 2009, Gaussian, Inc.),
 the Gaussian(R) 03 system (copyright 2003, Gaussian, Inc.),
 the Gaussian(R) 98 system (copyright 1998, Gaussian, Inc.),
 the Gaussian(R) 94 system (copyright 1995, Gaussian, Inc.),
 the Gaussian 92(TM) system (copyright 1992, Gaussian, Inc.),
 the Gaussian 90(TM) system (copyright 1990, Gaussian, Inc.),
 the Gaussian 88(TM) system (copyright 1988, Gaussian, Inc.),
 the Gaussian 86(TM) system (copyright 1986, Carnegie Mellon
 University), and the Gaussian 82(TM) system (copyright 1983,
 Carnegie Mellon University). Gaussian is a federally registered
 trademark of Gaussian, Inc.
  
 This software contains proprietary and confidential information,
 including trade secrets, belonging to Gaussian, Inc.
  
 This software is provided under written license and may be
 used, copied, transmitted, or stored only in accord with that
 written license.
  
 The following legend is applicable only to US Government
 contracts under FAR:
  
                    RESTRICTED RIGHTS LEGEND
  
 Use, reproduction and disclosure by the US Government is
 subject to restrictions as set forth in subparagraphs (a)
 and (c) of the Commercial Computer Software - Restricted
 Rights clause in FAR 52.227-19.
  
 Gaussian, Inc.
 340 Quinnipiac St., Bldg. 40, Wallingford CT 06492
  
  
 ---------------------------------------------------------------
 Warning -- This program may not be used in any manner that
 competes with the business of Gaussian, Inc. or will provide
 assistance to any competitor of Gaussian, Inc.  The licensee
 of this program is prohibited from giving any competitor of
 Gaussian, Inc. access to this program.  By using this program,
 the user acknowledges that Gaussian, Inc. is engaged in the
 business of creating and licensing software in the field of
 computational chemistry and represents and warrants to the
 licensee that it is not a competitor of Gaussian, Inc. and that
 it will not use this program in any manner prohibited above.
 ---------------------------------------------------------------
  

 Cite this work as:
 Gaussian 16, Revision C.01,
 M. J. Frisch, G. W. Trucks, H. B. Schlegel, G. E. Scuseria, 
 M. A. Robb, J. R. Cheeseman, G. Scalmani, V. Barone, 
 G. A. Petersson, H. Nakatsuji, X. Li, M. Caricato, A. V. Marenich, 
 J. Bloino, B. G. Janesko, R. Gomperts, B. Mennucci, H. P. Hratchian, 
 J. V. Ortiz, A. F. Izmaylov, J. L. Sonnenberg, D. Williams-Young, 
 F. Ding, F. Lipparini, F. Egidi, J. Goings, B. Peng, A. Petrone, 
 T. Henderson, D. Ranasinghe, V. G. Zakrzewski, J. Gao, N. Rega, 
 G. Zheng, W. Liang, M. Hada, M. Ehara, K. Toyota, R. Fukuda, 
 J. Hasegawa, M. Ishida, T. Nakajima, Y. Honda, O. Kitao, H. Nakai, 
 T. Vreven, K. Throssell, J. A. Montgomery, Jr., J. E. Peralta, 
 F. Ogliaro, M. J. Bearpark, J. J. Heyd, E. N. Brothers, K. N. Kudin, 
 V. N. Staroverov, T. A. Keith, R. Kobayashi, J. Normand, 
 K. Raghavachari, A. P. Rendell, J. C. Burant, S. S. Iyengar, 
 J. Tomasi, M. Cossi, J. M. Millam, M. Klene, C. Adamo, R. Cammi, 
 J. W. Ochterski, R. L. Martin, K. Morokuma, O. Farkas, 
 J. B. Foresman, and D. J. Fox, Gaussian, Inc., Wallingford CT, 2019.
 
 ******************************************
 Gaussian 16:  AS64L-G16RevC.01  3-Jul-2019
                29-Jan-2024 
 ******************************************
 %nprocshared=8
 Will use up to    8 processors via shared memory.
 %mem=16GB
 --------------------------------------
 # pop=(nbo6, hirshfeld) m062x/def2tzvp
 --------------------------------------
 1/38=1,172=1/1;
 2/12=2,17=6,18=5,40=1/2;
 3/5=44,7=101,11=2,25=1,30=1,74=-55/1,2,3;
 4//1;
 5/5=2,38=5/2;
 6/7=2,8=2,9=2,10=2,28=1,40=1,79=1,113=1,114=1,124=3103,126=1/1,12;
 99/5=1,9=1/99;
 --------------------------
 Ac5_rdkit_conf_1_SP_charge
 --------------------------
 Symbolic Z-matrix:
 Charge =  0 Multiplicity = 1
 C                     1.44577   1.86835  -0.14733 
 C                     1.01804   0.48837   0.35935 
 C                     1.35911   0.35756   1.84603 
 C                     1.7872   -0.57543  -0.41473 
 O                     2.39344  -1.49      0.07018 
 O                     1.7083   -0.39503  -1.74525 
 C                    -0.47101   0.20573   0.14911 
 C                    -0.95773  -1.07598   0.40982 
 C                    -2.30327  -1.37015   0.26486 
 C                    -3.19266  -0.38278  -0.14013 
 C                    -2.72014   0.89257  -0.4024 
 C                    -1.3679    1.18411  -0.26285 
 H                     1.18144   2.01493  -1.19293 
 H                     2.52631   1.97882  -0.04686 
 H                     0.97419   2.64689   0.45304 
 H                     0.78429   1.09181   2.41097 
 H                     1.12207  -0.63655   2.21916 
 H                     2.42255   0.53426   2.01012 
 H                     2.19099  -1.12389  -2.1604 
 H                    -0.27023  -1.85343   0.7251 
 H                    -2.65906  -2.372     0.46798 
 H                    -4.24485  -0.60912  -0.25254 
 H                    -3.40311   1.66923  -0.72188 
 H                    -1.023     2.18523  -0.48152 
 
                          Input orientation:                          
 ---------------------------------------------------------------------
 Center     Atomic      Atomic             Coordinates (Angstroms)
 Number     Number       Type             X           Y           Z
 ---------------------------------------------------------------------
      1          6           0        1.445774    1.868346   -0.147332
      2          6           0        1.018036    0.488372    0.359351
      3          6           0        1.359114    0.357563    1.846028
      4          6           0        1.787200   -0.575430   -0.414733
      5          8           0        2.393442   -1.490001    0.070178
      6          8           0        1.708298   -0.395033   -1.745249
      7          6           0       -0.471014    0.205730    0.149105
      8          6           0       -0.957725   -1.075979    0.409820
      9          6           0       -2.303265   -1.370148    0.264857
     10          6           0       -3.192664   -0.382782   -0.140127
     11          6           0       -2.720142    0.892569   -0.402395
     12          6           0       -1.367900    1.184106   -0.262850
     13          1           0        1.181444    2.014928   -1.192931
     14          1           0        2.526307    1.978824   -0.046864
     15          1           0        0.974189    2.646890    0.453035
     16          1           0        0.784292    1.091806    2.410968
     17          1           0        1.122069   -0.636552    2.219158
     18          1           0        2.422554    0.534260    2.010116
     19          1           0        2.190992   -1.123889   -2.160395
     20          1           0       -0.270226   -1.853425    0.725102
     21          1           0       -2.659058   -2.371998    0.467975
     22          1           0       -4.244851   -0.609119   -0.252538
     23          1           0       -3.403114    1.669227   -0.721878
     24          1           0       -1.023002    2.185234   -0.481523
 ---------------------------------------------------------------------
                    Distance matrix (angstroms):
                    1          2          3          4          5
     1  C    0.000000
     2  C    1.531018   0.000000
     3  C    2.502690   1.530900   0.000000
     4  C    2.481958   1.523973   2.482896   0.000000
     5  O    3.496267   2.426793   2.763507   1.199628   0.000000
     6  O    2.783010   2.384577   3.685865   1.345006   2.228038
     7  C    2.554651   1.530150   2.500394   2.455128   3.329691
     8  C    3.841390   2.520590   3.079850   2.909476   3.393684
     9  C    4.971221   3.807107   4.347195   4.222005   4.702268
    10  C    5.155845   4.328785   5.021116   4.991149   5.698661
    11  C    4.286263   3.836353   4.688493   4.740391   5.661158
    12  C    2.897980   2.562005   3.545017   3.615756   4.627035
    13  H    1.088409   2.183267   3.466078   2.771730   3.917769
    14  H    1.090803   2.159013   2.752066   2.684366   3.473341
    15  H    1.090396   2.160995   2.707326   3.434728   4.390299
    16  H    2.754174   2.151256   1.090271   3.430756   3.838540
    17  H    3.461152   2.176042   1.087971   2.717263   2.638727
    18  H    2.718173   2.167903   1.090436   2.741346   2.803897
    19  H    3.682559   3.213150   4.351798   1.873817   2.269467
    20  H    4.190152   2.697667   2.966427   2.676845   2.766971
    21  H    5.933697   4.659886   5.049281   4.876068   5.144309
    22  H    6.207424   5.410811   6.061590   6.034325   6.704255
    23  H    4.886867   4.702132   5.567173   5.663231   6.648920
    24  H    2.511365   2.784286   3.798993   3.939919   5.048150
                    6          7          8          9         10
     6  O    0.000000
     7  C    2.949389   0.000000
     8  C    3.495095   1.395578   0.000000
     9  C    4.591733   2.419490   1.384929   0.000000
    10  C    5.157131   2.799532   2.403730   1.389221   0.000000
    11  C    4.803359   2.415466   2.764234   2.395600   1.385129
    12  C    3.762204   1.389723   2.393473   2.770847   2.408311
    13  H    2.527952   2.793721   4.086387   5.072187   5.098061
    14  H    3.031311   3.488008   4.656056   5.885367   6.188094
    15  H    3.824221   2.853112   4.194510   5.187843   5.185886
    16  H    4.509836   2.734401   3.426151   4.494443   4.949614
    17  H    4.014788   2.744535   2.791477   4.011280   4.924180
    18  H    3.934020   3.456014   4.071867   5.385728   6.082367
    19  H    0.967766   3.766690   4.064815   5.112811   5.797799
    20  H    3.484838   2.147605   1.084657   2.139773   3.384089
    21  H    5.280204   3.396159   2.139528   1.082381   2.147441
    22  H    6.141173   3.881642   3.385539   2.148632   1.082110
    23  H    5.606692   3.390818   3.846664   3.379514   2.143237
    24  H    3.964187   2.149609   3.381459   3.851869   3.379155
                   11         12         13         14         15
    11  C    0.000000
    12  C    1.390333   0.000000
    13  H    4.136062   2.838040   0.000000
    14  H    5.369505   3.980336   1.767323   0.000000
    15  H    4.178215   2.852650   1.775256   1.762181   0.000000
    16  H    4.498418   3.433621   3.741386   3.140439   2.507558
    17  H    4.896257   3.959180   4.321600   3.734559   3.731226
    18  H    5.691741   4.467238   3.740621   2.515690   2.997577
    19  H    5.592486   4.646852   3.436182   3.769122   4.746515
    20  H    3.848873   3.377504   4.555255   4.806523   4.677117
    21  H    3.379153   3.853190   6.062440   6.788426   6.195962
    22  H    2.145288   3.390075   6.100380   7.251781   6.191753
    23  H    1.082459   2.141996   4.621642   5.975745   4.636489
    24  H    2.134837   1.081217   2.322647   3.581777   2.252842
                   16         17         18         19         20
    16  H    0.000000
    17  H    1.771470   0.000000
    18  H    1.776356   1.762317   0.000000
    19  H    5.271192   4.534377   4.494023   0.000000
    20  H    3.553665   2.377282   3.821435   3.862112   0.000000
    21  H    5.256407   4.513905   6.053703   5.655890   2.457957
    22  H    5.939671   5.908795   7.133106   6.732383   4.278051
    23  H    5.261417   5.868866   6.533785   6.415984   4.931310
    24  H    3.581676   4.456174   4.561341   4.909039   4.281750
                   21         22         23         24
    21  H    0.000000
    22  H    2.478229   0.000000
    23  H    4.277951   2.473795   0.000000
    24  H    4.934226   4.270966   2.447237   0.000000
 Stoichiometry    C10H12O2
 Framework group  C1[X(C10H12O2)]
 Deg. of freedom    66
 Full point group                 C1      NOp   1
 Largest Abelian subgroup         C1      NOp   1
 Largest concise Abelian subgroup C1      NOp   1
                         Standard orientation:                         
 ---------------------------------------------------------------------
 Center     Atomic      Atomic             Coordinates (Angstroms)
 Number     Number       Type             X           Y           Z
 ---------------------------------------------------------------------
      1          6           0        1.445774    1.868346   -0.147332
      2          6           0        1.018036    0.488372    0.359351
      3          6           0        1.359114    0.357563    1.846028
      4          6           0        1.787200   -0.575430   -0.414733
      5          8           0        2.393442   -1.490001    0.070178
      6          8           0        1.708298   -0.395033   -1.745249
      7          6           0       -0.471014    0.205730    0.149105
      8          6           0       -0.957725   -1.075979    0.409820
      9          6           0       -2.303265   -1.370148    0.264857
     10          6           0       -3.192664   -0.382782   -0.140127
     11          6           0       -2.720142    0.892569   -0.402395
     12          6           0       -1.367900    1.184106   -0.262850
     13          1           0        1.181444    2.014928   -1.192931
     14          1           0        2.526307    1.978824   -0.046864
     15          1           0        0.974189    2.646890    0.453035
     16          1           0        0.784292    1.091806    2.410968
     17          1           0        1.122069   -0.636552    2.219158
     18          1           0        2.422554    0.534260    2.010116
     19          1           0        2.190992   -1.123889   -2.160395
     20          1           0       -0.270226   -1.853425    0.725102
     21          1           0       -2.659058   -2.371998    0.467975
     22          1           0       -4.244851   -0.609119   -0.252538
     23          1           0       -3.403114    1.669227   -0.721878
     24          1           0       -1.023002    2.185234   -0.481523
 ---------------------------------------------------------------------
 Rotational constants (GHZ):           1.6267624           0.6928536           0.6354023
 Standard basis: def2TZVP (5D, 7F)
 There are   504 symmetry adapted cartesian basis functions of A   symmetry.
 There are   444 symmetry adapted basis functions of A   symmetry.
   444 basis functions,   708 primitive gaussians,   504 cartesian basis functions
    44 alpha electrons       44 beta electrons
       nuclear repulsion energy       702.7708860726 Hartrees.
 NAtoms=   24 NActive=   24 NUniq=   24 SFac= 1.00D+00 NAtFMM=   60 NAOKFM=F Big=F
 Integral buffers will be    131072 words long.
 Raffenetti 2 integral format.
 Two-electron integral symmetry is turned on.
 One-electron integrals computed using PRISM.
   1 Symmetry operations used in ECPInt.
 ECPInt:  NShTT=   16290 NPrTT=   49128 LenC2=   15667 LenP2D=   36387.
 LDataN:  DoStor=T MaxTD1= 6 Len=  172
 NBasis=   444 RedAO= T EigKep=  7.60D-06  NBF=   444
 NBsUse=   444 1.00D-06 EigRej= -1.00D+00 NBFU=   444
 ExpMin= 9.52D-02 ExpMax= 2.70D+04 ExpMxC= 9.22D+02 IAcc=3 IRadAn=         5 AccDes= 0.00D+00
 Harris functional with IExCor= 1009 and IRadAn=       5 diagonalized for initial guess.
 HarFok:  IExCor= 1009 AccDes= 0.00D+00 IRadAn=         5 IDoV= 1 UseB2=F ITyADJ=14
 ICtDFT=  3500011 ScaDFX=  1.000000  1.000000  1.000000  1.000000
 FoFCou: FMM=F IPFlag=           0 FMFlag=      100000 FMFlg1=           0
         NFxFlg=           0 DoJE=T BraDBF=F KetDBF=T FulRan=T
         wScrn=  0.000000 ICntrl=       500 IOpCl=  0 I1Cent=   200000004 NGrid=           0
         NMat0=    1 NMatS0=      1 NMatT0=    0 NMatD0=    1 NMtDS0=    0 NMtDT0=    0
 Petite list used in FoFCou.
 Requested convergence on RMS density matrix=1.00D-08 within 128 cycles.
 Requested convergence on MAX density matrix=1.00D-06.
 Requested convergence on             energy=1.00D-06.
 No special actions if energy rises.
 Integral accuracy reduced to 1.0D-05 until final iterations.
 Initial convergence to 1.0D-05 achieved.  Increase integral accuracy.
 SCF Done:  E(RM062X) =  -538.740269123     A.U. after   15 cycles
            NFock= 15  Conv=0.52D-08     -V/T= 2.0047

 **********************************************************************

            Population analysis using the SCF Density.

 **********************************************************************

 Orbital symmetries:
       Occupied  (A) (A) (A) (A) (A) (A) (A) (A) (A) (A) (A) (A)
                 (A) (A) (A) (A) (A) (A) (A) (A) (A) (A) (A) (A)
                 (A) (A) (A) (A) (A) (A) (A) (A) (A) (A) (A) (A)
                 (A) (A) (A) (A) (A) (A) (A) (A)
       Virtual   (A) (A) (A) (A) (A) (A) (A) (A) (A) (A) (A) (A)
                 (A) (A) (A) (A) (A) (A) (A) (A) (A) (A) (A) (A)
                 (A) (A) (A) (A) (A) (A) (A) (A) (A) (A) (A) (A)
                 (A) (A) (A) (A) (A) (A) (A) (A) (A) (A) (A) (A)
                 (A) (A) (A) (A) (A) (A) (A) (A) (A) (A) (A) (A)
                 (A) (A) (A) (A) (A) (A) (A) (A) (A) (A) (A) (A)
                 (A) (A) (A) (A) (A) (A) (A) (A) (A) (A) (A) (A)
                 (A) (A) (A) (A) (A) (A) (A) (A) (A) (A) (A) (A)
                 (A) (A) (A) (A) (A) (A) (A) (A) (A) (A) (A) (A)
                 (A) (A) (A) (A) (A) (A) (A) (A) (A) (A) (A) (A)
                 (A) (A) (A) (A) (A) (A) (A) (A) (A) (A) (A) (A)
                 (A) (A) (A) (A) (A) (A) (A) (A) (A) (A) (A) (A)
                 (A) (A) (A) (A) (A) (A) (A) (A) (A) (A) (A) (A)
                 (A) (A) (A) (A) (A) (A) (A) (A) (A) (A) (A) (A)
                 (A) (A) (A) (A) (A) (A) (A) (A) (A) (A) (A) (A)
                 (A) (A) (A) (A) (A) (A) (A) (A) (A) (A) (A) (A)
                 (A) (A) (A) (A) (A) (A) (A) (A) (A) (A) (A) (A)
                 (A) (A) (A) (A) (A) (A) (A) (A) (A) (A) (A) (A)
                 (A) (A) (A) (A) (A) (A) (A) (A) (A) (A) (A) (A)
                 (A) (A) (A) (A) (A) (A) (A) (A) (A) (A) (A) (A)
                 (A) (A) (A) (A) (A) (A) (A) (A) (A) (A) (A) (A)
                 (A) (A) (A) (A) (A) (A) (A) (A) (A) (A) (A) (A)
                 (A) (A) (A) (A) (A) (A) (A) (A) (A) (A) (A) (A)
                 (A) (A) (A) (A) (A) (A) (A) (A) (A) (A) (A) (A)
                 (A) (A) (A) (A) (A) (A) (A) (A) (A) (A) (A) (A)
                 (A) (A) (A) (A) (A) (A) (A) (A) (A) (A) (A) (A)
                 (A) (A) (A) (A) (A) (A) (A) (A) (A) (A) (A) (A)
                 (A) (A) (A) (A) (A) (A) (A) (A) (A) (A) (A) (A)
                 (A) (A) (A) (A) (A) (A) (A) (A) (A) (A) (A) (A)
                 (A) (A) (A) (A) (A) (A) (A) (A) (A) (A) (A) (A)
                 (A) (A) (A) (A) (A) (A) (A) (A) (A) (A) (A) (A)
                 (A) (A) (A) (A) (A) (A) (A) (A) (A) (A) (A) (A)
                 (A) (A) (A) (A) (A) (A) (A) (A) (A) (A) (A) (A)
                 (A) (A) (A) (A)
 The electronic state is 1-A.
 Alpha  occ. eigenvalues --  -19.67450 -19.62172 -10.67596 -10.57216 -10.55657
 Alpha  occ. eigenvalues --  -10.54414 -10.54386 -10.54323 -10.54220 -10.54196
 Alpha  occ. eigenvalues --  -10.53635 -10.52858  -1.24316  -1.14628  -0.97634
 Alpha  occ. eigenvalues --   -0.92615  -0.84831  -0.83610  -0.78922  -0.75939
 Alpha  occ. eigenvalues --   -0.69773  -0.69041  -0.64610  -0.60679  -0.58430
 Alpha  occ. eigenvalues --   -0.56974  -0.54832  -0.52444  -0.52145  -0.50875
 Alpha  occ. eigenvalues --   -0.49860  -0.49125  -0.47430  -0.45941  -0.44350
 Alpha  occ. eigenvalues --   -0.44043  -0.43104  -0.41935  -0.40473  -0.39732
 Alpha  occ. eigenvalues --   -0.39207  -0.35610  -0.31233  -0.30419
 Alpha virt. eigenvalues --    0.01544   0.01668   0.05270   0.06414   0.07843
 Alpha virt. eigenvalues --    0.09085   0.10151   0.11699   0.11873   0.12490
 Alpha virt. eigenvalues --    0.13900   0.14686   0.15237   0.16044   0.17069
 Alpha virt. eigenvalues --    0.17913   0.18847   0.19554   0.21089   0.21686
 Alpha virt. eigenvalues --    0.22522   0.23079   0.23855   0.24598   0.25374
 Alpha virt. eigenvalues --    0.26260   0.27333   0.27746   0.28404   0.29540
 Alpha virt. eigenvalues --    0.30683   0.30897   0.31767   0.33190   0.33919
 Alpha virt. eigenvalues --    0.34294   0.36777   0.37363   0.37621   0.38202
 Alpha virt. eigenvalues --    0.39038   0.39390   0.40750   0.40929   0.41951
 Alpha virt. eigenvalues --    0.42284   0.43620   0.44122   0.44325   0.45058
 Alpha virt. eigenvalues --    0.45613   0.46094   0.46929   0.47477   0.48178
 Alpha virt. eigenvalues --    0.49492   0.49770   0.50269   0.51601   0.52076
 Alpha virt. eigenvalues --    0.52453   0.53119   0.53268   0.53722   0.55102
 Alpha virt. eigenvalues --    0.55896   0.57341   0.58505   0.59106   0.61349
 Alpha virt. eigenvalues --    0.63127   0.64095   0.65523   0.66298   0.68470
 Alpha virt. eigenvalues --    0.69355   0.69627   0.70759   0.71554   0.72966
 Alpha virt. eigenvalues --    0.74600   0.75136   0.76288   0.77454   0.78426
 Alpha virt. eigenvalues --    0.79140   0.81383   0.83305   0.83603   0.84444
 Alpha virt. eigenvalues --    0.86803   0.88843   0.89451   0.90271   0.91182
 Alpha virt. eigenvalues --    0.92617   0.93206   0.94656   0.95947   0.96920
 Alpha virt. eigenvalues --    0.97818   1.00653   1.02670   1.04559   1.05625
 Alpha virt. eigenvalues --    1.06666   1.07934   1.08420   1.08794   1.10959
 Alpha virt. eigenvalues --    1.13017   1.13563   1.15591   1.16239   1.16770
 Alpha virt. eigenvalues --    1.18914   1.21982   1.23620   1.25417   1.25602
 Alpha virt. eigenvalues --    1.26818   1.27929   1.28867   1.29946   1.30773
 Alpha virt. eigenvalues --    1.31823   1.34062   1.35392   1.36847   1.40405
 Alpha virt. eigenvalues --    1.42289   1.43498   1.45043   1.46215   1.48081
 Alpha virt. eigenvalues --    1.49422   1.50531   1.52064   1.53825   1.54967
 Alpha virt. eigenvalues --    1.55465   1.56245   1.58950   1.59148   1.60180
 Alpha virt. eigenvalues --    1.60989   1.62831   1.63847   1.64776   1.65326
 Alpha virt. eigenvalues --    1.65841   1.67469   1.67926   1.69404   1.69617
 Alpha virt. eigenvalues --    1.71863   1.72726   1.73451   1.74557   1.75071
 Alpha virt. eigenvalues --    1.75436   1.76672   1.79059   1.82143   1.83537
 Alpha virt. eigenvalues --    1.86429   1.89815   1.90815   1.92796   1.93849
 Alpha virt. eigenvalues --    1.94822   1.95935   1.97187   1.98146   2.01580
 Alpha virt. eigenvalues --    2.02423   2.03603   2.07047   2.07826   2.08688
 Alpha virt. eigenvalues --    2.11209   2.12107   2.13500   2.15339   2.17797
 Alpha virt. eigenvalues --    2.18442   2.19214   2.21357   2.22089   2.23400
 Alpha virt. eigenvalues --    2.25390   2.26901   2.27202   2.30610   2.32340
 Alpha virt. eigenvalues --    2.32601   2.34501   2.35307   2.36918   2.37068
 Alpha virt. eigenvalues --    2.38883   2.40314   2.41632   2.45306   2.45906
 Alpha virt. eigenvalues --    2.47174   2.48404   2.50672   2.52357   2.52946
 Alpha virt. eigenvalues --    2.55068   2.56335   2.56745   2.58352   2.60207
 Alpha virt. eigenvalues --    2.62371   2.62504   2.64155   2.65171   2.66149
 Alpha virt. eigenvalues --    2.66834   2.67914   2.68305   2.69972   2.70511
 Alpha virt. eigenvalues --    2.70870   2.72773   2.74083   2.75589   2.77616
 Alpha virt. eigenvalues --    2.78916   2.79422   2.80042   2.81110   2.81780
 Alpha virt. eigenvalues --    2.82270   2.83069   2.85202   2.86129   2.86714
 Alpha virt. eigenvalues --    2.89288   2.90853   2.91847   2.92698   2.93919
 Alpha virt. eigenvalues --    2.96143   2.99836   3.00334   3.02611   3.03213
 Alpha virt. eigenvalues --    3.04742   3.05450   3.07177   3.08412   3.09923
 Alpha virt. eigenvalues --    3.11737   3.13505   3.14872   3.16146   3.16933
 Alpha virt. eigenvalues --    3.17408   3.18713   3.19905   3.20338   3.21794
 Alpha virt. eigenvalues --    3.22497   3.23960   3.25352   3.26020   3.26631
 Alpha virt. eigenvalues --    3.27152   3.29159   3.29663   3.30483   3.31348
 Alpha virt. eigenvalues --    3.32315   3.34028   3.35757   3.36624   3.37018
 Alpha virt. eigenvalues --    3.38254   3.38415   3.40439   3.42076   3.43397
 Alpha virt. eigenvalues --    3.45457   3.46662   3.47853   3.48130   3.48873
 Alpha virt. eigenvalues --    3.49633   3.51316   3.52100   3.53168   3.54266
 Alpha virt. eigenvalues --    3.56570   3.56948   3.59735   3.61472   3.63617
 Alpha virt. eigenvalues --    3.64635   3.67912   3.69009   3.69525   3.71495
 Alpha virt. eigenvalues --    3.73025   3.78455   3.79486   3.81488   3.84276
 Alpha virt. eigenvalues --    3.90807   3.91740   3.93055   3.94078   3.95715
 Alpha virt. eigenvalues --    4.01686   4.03364   4.03996   4.04597   4.06516
 Alpha virt. eigenvalues --    4.09769   4.11345   4.13445   4.14308   4.17219
 Alpha virt. eigenvalues --    4.18047   4.18391   4.19183   4.20125   4.22158
 Alpha virt. eigenvalues --    4.24287   4.27261   4.28818   4.30736   4.32207
 Alpha virt. eigenvalues --    4.35351   4.37835   4.39151   4.40358   4.41862
 Alpha virt. eigenvalues --    4.47079   4.49847   4.52605   4.53686   4.58599
 Alpha virt. eigenvalues --    4.62376   4.65513   4.67371   4.71185   4.73057
 Alpha virt. eigenvalues --    4.77687   4.85015   4.86759   4.87974   4.88733
 Alpha virt. eigenvalues --    4.94081   5.02363   5.07409   5.17416   5.19135
 Alpha virt. eigenvalues --    5.19248   5.22767   5.24301   5.31962   5.35980
 Alpha virt. eigenvalues --    5.40435   5.42465   5.46801   5.53880   5.61053
 Alpha virt. eigenvalues --    5.63314   5.76876   5.89524   5.91494   6.21266
 Alpha virt. eigenvalues --    6.24921   6.35839   6.39229   6.48333   6.51149
 Alpha virt. eigenvalues --    6.69004   6.71279   6.78453   6.85518   6.92252
 Alpha virt. eigenvalues --    7.10524   7.14394   7.31851  22.24004  22.56188
 Alpha virt. eigenvalues --   22.60046  22.69179  22.74346  22.90060  22.93309
 Alpha virt. eigenvalues --   22.96015  23.32683  23.46234  44.07984  44.10512
          Condensed to atoms (all electrons):
               1          2          3          4          5          6
     1  C    5.294464   0.225498  -0.083361  -0.054299   0.001604  -0.004822
     2  C    0.225498   5.635722   0.287363   0.191262  -0.095344  -0.103952
     3  C   -0.083361   0.287363   5.157986  -0.085851   0.016412   0.007543
     4  C   -0.054299   0.191262  -0.085851   4.669947   0.668998   0.383294
     5  O    0.001604  -0.095344   0.016412   0.668998   7.811507  -0.091798
     6  O   -0.004822  -0.103952   0.007543   0.383294  -0.091798   7.932919
     7  C   -0.083680   0.153582  -0.094924  -0.032718  -0.016809  -0.028982
     8  C    0.019373  -0.043654  -0.011311  -0.015348  -0.002502   0.012368
     9  C   -0.000286   0.009662   0.000950   0.001562   0.001156  -0.003180
    10  C    0.000123  -0.003717   0.000797  -0.000221  -0.000075   0.001063
    11  C   -0.001227   0.011091  -0.002014  -0.001060   0.000088  -0.001723
    12  C   -0.027257  -0.034238  -0.003288   0.000619  -0.001628   0.005744
    13  H    0.426600  -0.041727   0.012233  -0.016238   0.000261   0.004146
    14  H    0.412367  -0.040526  -0.009089  -0.008195   0.000968   0.000433
    15  H    0.416726  -0.034936  -0.015505   0.013172  -0.000481   0.000327
    16  H   -0.013668  -0.047009   0.424142   0.019136   0.000654  -0.000119
    17  H    0.010583   0.017238   0.401618  -0.022029   0.001651   0.000052
    18  H   -0.010316  -0.026370   0.400776  -0.015686   0.000826  -0.000082
    19  H   -0.000729   0.014690  -0.001431  -0.026715   0.005445   0.295767
    20  H    0.001058   0.018780  -0.006296  -0.001559   0.009044  -0.000382
    21  H    0.000010  -0.000114  -0.000039  -0.000004  -0.000001  -0.000023
    22  H   -0.000010   0.000064   0.000004  -0.000003  -0.000000   0.000002
    23  H    0.000134  -0.000335  -0.000010  -0.000010  -0.000000  -0.000014
    24  H   -0.000628  -0.009771  -0.000474  -0.000138  -0.000023   0.000136
               7          8          9         10         11         12
     1  C   -0.083680   0.019373  -0.000286   0.000123  -0.001227  -0.027257
     2  C    0.153582  -0.043654   0.009662  -0.003717   0.011091  -0.034238
     3  C   -0.094924  -0.011311   0.000950   0.000797  -0.002014  -0.003288
     4  C   -0.032718  -0.015348   0.001562  -0.000221  -0.001060   0.000619
     5  O   -0.016809  -0.002502   0.001156  -0.000075   0.000088  -0.001628
     6  O   -0.028982   0.012368  -0.003180   0.001063  -0.001723   0.005744
     7  C    5.375266   0.408038  -0.037059  -0.067073  -0.032839   0.393611
     8  C    0.408038   5.113524   0.477522  -0.016274  -0.076194  -0.007077
     9  C   -0.037059   0.477522   4.944188   0.487063  -0.011861  -0.085387
    10  C   -0.067073  -0.016274   0.487063   4.916781   0.499976  -0.012388
    11  C   -0.032839  -0.076194  -0.011861   0.499976   4.912877   0.485769
    12  C    0.393611  -0.007077  -0.085387  -0.012388   0.485769   5.097304
    13  H    0.007168   0.000079  -0.000112  -0.000007  -0.000653  -0.007723
    14  H    0.017699  -0.000702   0.000047  -0.000011   0.000067   0.000033
    15  H   -0.012024  -0.001436  -0.000057  -0.000003   0.000197   0.002395
    16  H   -0.005831  -0.007056  -0.000099  -0.000135  -0.000046   0.002953
    17  H   -0.041122   0.009490   0.001226   0.000093  -0.000032   0.000894
    18  H    0.021908   0.001129  -0.000052   0.000003   0.000017  -0.000669
    19  H    0.001503  -0.001344  -0.000018  -0.000000  -0.000003   0.000337
    20  H   -0.053497   0.393049  -0.010024   0.002445   0.000045   0.002143
    21  H    0.006435  -0.030678   0.407625  -0.034464   0.004152  -0.000115
    22  H    0.000776   0.004608  -0.034124   0.410162  -0.034075   0.004603
    23  H    0.007229  -0.000102   0.004238  -0.033718   0.406865  -0.032339
    24  H   -0.031132   0.003450  -0.000010   0.002278  -0.013607   0.398321
              13         14         15         16         17         18
     1  C    0.426600   0.412367   0.416726  -0.013668   0.010583  -0.010316
     2  C   -0.041727  -0.040526  -0.034936  -0.047009   0.017238  -0.026370
     3  C    0.012233  -0.009089  -0.015505   0.424142   0.401618   0.400776
     4  C   -0.016238  -0.008195   0.013172   0.019136  -0.022029  -0.015686
     5  O    0.000261   0.000968  -0.000481   0.000654   0.001651   0.000826
     6  O    0.004146   0.000433   0.000327  -0.000119   0.000052  -0.000082
     7  C    0.007168   0.017699  -0.012024  -0.005831  -0.041122   0.021908
     8  C    0.000079  -0.000702  -0.001436  -0.007056   0.009490   0.001129
     9  C   -0.000112   0.000047  -0.000057  -0.000099   0.001226  -0.000052
    10  C   -0.000007  -0.000011  -0.000003  -0.000135   0.000093   0.000003
    11  C   -0.000653   0.000067   0.000197  -0.000046  -0.000032   0.000017
    12  C   -0.007723   0.000033   0.002395   0.002953   0.000894  -0.000669
    13  H    0.478006  -0.016267  -0.028257  -0.000214  -0.000313  -0.000120
    14  H   -0.016267   0.495528  -0.020610   0.000296  -0.000065   0.002681
    15  H   -0.028257  -0.020610   0.516566   0.001734  -0.000064   0.000179
    16  H   -0.000214   0.000296   0.001734   0.516112  -0.021914  -0.025752
    17  H   -0.000313  -0.000065  -0.000064  -0.021914   0.498314  -0.018627
    18  H   -0.000120   0.002681   0.000179  -0.025752  -0.018627   0.515975
    19  H   -0.000364  -0.000277   0.000114   0.000034  -0.000023  -0.000028
    20  H   -0.000021  -0.000026  -0.000029  -0.000010  -0.000178  -0.000010
    21  H   -0.000000  -0.000000  -0.000000   0.000008  -0.000008  -0.000002
    22  H    0.000001   0.000000   0.000001  -0.000002  -0.000001   0.000000
    23  H    0.000014  -0.000001   0.000014   0.000003  -0.000002  -0.000000
    24  H   -0.004779   0.000687  -0.003716   0.000301  -0.000008  -0.000051
              19         20         21         22         23         24
     1  C   -0.000729   0.001058   0.000010  -0.000010   0.000134  -0.000628
     2  C    0.014690   0.018780  -0.000114   0.000064  -0.000335  -0.009771
     3  C   -0.001431  -0.006296  -0.000039   0.000004  -0.000010  -0.000474
     4  C   -0.026715  -0.001559  -0.000004  -0.000003  -0.000010  -0.000138
     5  O    0.005445   0.009044  -0.000001  -0.000000  -0.000000  -0.000023
     6  O    0.295767  -0.000382  -0.000023   0.000002  -0.000014   0.000136
     7  C    0.001503  -0.053497   0.006435   0.000776   0.007229  -0.031132
     8  C   -0.001344   0.393049  -0.030678   0.004608  -0.000102   0.003450
     9  C   -0.000018  -0.010024   0.407625  -0.034124   0.004238  -0.000010
    10  C   -0.000000   0.002445  -0.034464   0.410162  -0.033718   0.002278
    11  C   -0.000003   0.000045   0.004152  -0.034075   0.406865  -0.013607
    12  C    0.000337   0.002143  -0.000115   0.004603  -0.032339   0.398321
    13  H   -0.000364  -0.000021  -0.000000   0.000001   0.000014  -0.004779
    14  H   -0.000277  -0.000026  -0.000000   0.000000  -0.000001   0.000687
    15  H    0.000114  -0.000029  -0.000000   0.000001   0.000014  -0.003716
    16  H    0.000034  -0.000010   0.000008  -0.000002   0.000003   0.000301
    17  H   -0.000023  -0.000178  -0.000008  -0.000001  -0.000002  -0.000008
    18  H   -0.000028  -0.000010  -0.000002   0.000000  -0.000000  -0.000051
    19  H    0.378070  -0.000150   0.000002  -0.000000   0.000001   0.000013
    20  H   -0.000150   0.459204  -0.003185  -0.000263   0.000064  -0.000186
    21  H    0.000002  -0.003185   0.509520  -0.003940  -0.000277   0.000074
    22  H   -0.000000  -0.000263  -0.003940   0.513638  -0.004052  -0.000292
    23  H    0.000001   0.000064  -0.000277  -0.004052   0.513887  -0.003433
    24  H    0.000013  -0.000186   0.000074  -0.000292  -0.003433   0.497858
 Mulliken charges:
               1
     1  C   -0.528258
     2  C   -0.083258
     3  C   -0.396230
     4  C    0.332084
     5  O   -0.309953
     6  O   -0.408717
     7  C    0.144472
     8  C   -0.228953
     9  C   -0.152971
    10  C   -0.152697
    11  C   -0.145809
    12  C   -0.182618
    13  H    0.188286
    14  H    0.164963
    15  H    0.165694
    16  H    0.156479
    17  H    0.163226
    18  H    0.154272
    19  H    0.335104
    20  H    0.189984
    21  H    0.145025
    22  H    0.142902
    23  H    0.141844
    24  H    0.165129
 Sum of Mulliken charges =  -0.00000
 Mulliken charges with hydrogens summed into heavy atoms:
               1
     1  C   -0.009316
     2  C   -0.083258
     3  C    0.077748
     4  C    0.332084
     5  O   -0.309953
     6  O   -0.073614
     7  C    0.144472
     8  C   -0.038969
     9  C   -0.007946
    10  C   -0.009795
    11  C   -0.003965
    12  C   -0.017489
 Electronic spatial extent (au):  <R**2>=           2002.5701
 Charge=             -0.0000 electrons
 Dipole moment (field-independent basis, Debye):
    X=             -0.8052    Y=              1.1497    Z=             -0.7436  Tot=              1.5884
 Quadrupole moment (field-independent basis, Debye-Ang):
   XX=            -69.7037   YY=            -69.0531   ZZ=            -71.6174
   XY=              3.7135   XZ=             -2.4714   YZ=              1.9254
 Traceless Quadrupole moment (field-independent basis, Debye-Ang):
   XX=              0.4210   YY=              1.0717   ZZ=             -1.4927
   XY=              3.7135   XZ=             -2.4714   YZ=              1.9254
 Octapole moment (field-independent basis, Debye-Ang**2):
  XXX=             -7.0147  YYY=             -3.2598  ZZZ=            -14.2540  XYY=             -6.2486
  XXY=              5.3544  XXZ=            -18.0924  XZZ=             21.8808  YZZ=             -9.4285
  YYZ=             -6.8059  XYZ=             12.8578
 Hexadecapole moment (field-independent basis, Debye-Ang**3):
 XXXX=          -1581.7830 YYYY=           -593.3772 ZZZZ=           -392.0965 XXXY=             20.3904
 XXXZ=            -20.2598 YYYX=             -0.9118 YYYZ=              0.1721 ZZZX=            -38.5160
 ZZZY=             24.0207 XXYY=           -377.3482 XXZZ=           -339.1833 YYZZ=           -157.4788
 XXYZ=             13.2900 YYXZ=            -15.8663 ZZXY=            -27.7538
 N-N= 7.027708860726D+02 E-N=-2.660787671313D+03  KE= 5.361952435339D+02
 There are a total of      542048 grid points.
 ElSum from          density=       87.9999859570
 ElSum from atomic densities=       87.9999707594
 Hirshfeld populations at iteration   1 (CA, CB, DipXYZ):
               1          2          3          4          5
     1  C    3.042554   3.042554  -0.000707   0.001994   0.012388
     2  C    2.993669   2.993669  -0.000517   0.003861   0.001420
     3  C    3.042990   3.042990   0.000731   0.010713   0.002952
     4  C    2.892835   2.892835  -0.014786   0.048902  -0.058708
     5  O    4.137338   4.137338  -0.068732   0.092943  -0.021813
     6  O    4.085799   4.085799   0.060646  -0.085179   0.053568
     7  C    2.999656   2.999656   0.063760   0.019609   0.017131
     8  C    3.021637   3.021637   0.030524  -0.036482   0.022300
     9  C    3.019711   3.019711  -0.022951  -0.058003   0.010847
    10  C    3.021691   3.021691  -0.060532  -0.016325  -0.006312
    11  C    3.020380   3.020380  -0.036382   0.044862  -0.019712
    12  C    3.021537   3.021537   0.014674   0.048415  -0.011963
    13  H    0.483434   0.483434  -0.031459   0.039443  -0.132205
    14  H    0.482085   0.482085   0.144932   0.022140   0.012218
    15  H    0.482222   0.482222  -0.055494   0.107994   0.076621
    16  H    0.483400   0.483400  -0.069236   0.094517   0.082463
    17  H    0.483320   0.483320  -0.027999  -0.122067   0.067552
    18  H    0.482998   0.482998   0.138286   0.026099   0.032460
    19  H    0.408977   0.408977   0.099683  -0.149776  -0.127756
    20  H    0.479403   0.479403   0.073025  -0.115948   0.048762
    21  H    0.477746   0.477746  -0.051586  -0.146664   0.029656
    22  H    0.478227   0.478227  -0.153590  -0.033310  -0.016473
    23  H    0.478329   0.478329  -0.099429   0.113040  -0.046986
    24  H    0.480056   0.480056   0.029844   0.141883  -0.034900
       Tot  43.999993  43.999993  -0.037296   0.052661  -0.006490

 Dip from Atomic Chgs             -0.279530   0.399699  -0.285990
         Total Dipole             -0.316826   0.452360  -0.292480

 Hirshfeld charges, spin densities, dipoles, and CM5 charges using IRadAn=      5:
              Q-H        S-H        Dx         Dy         Dz        Q-CM5   
     1  C   -0.085107   0.000000  -0.000707   0.001994   0.012388  -0.230899
     2  C    0.012661   0.000000  -0.000517   0.003861   0.001420  -0.005420
     3  C   -0.085980   0.000000   0.000731   0.010713   0.002952  -0.230931
     4  C    0.214330   0.000000  -0.014786   0.048902  -0.058708   0.266485
     5  O   -0.274675   0.000000  -0.068732   0.092943  -0.021813  -0.328690
     6  O   -0.171597   0.000000   0.060646  -0.085179   0.053568  -0.370436
     7  C    0.000688   0.000000   0.063760   0.019609   0.017131  -0.009214
     8  C   -0.043274   0.000000   0.030524  -0.036482   0.022300  -0.096311
     9  C   -0.039421   0.000000  -0.022951  -0.058003   0.010847  -0.095403
    10  C   -0.043382   0.000000  -0.060532  -0.016325  -0.006312  -0.099460
    11  C   -0.040761   0.000000  -0.036382   0.044862  -0.019712  -0.096827
    12  C   -0.043073   0.000000   0.014674   0.048415  -0.011963  -0.097227
    13  H    0.033131   0.000000  -0.031459   0.039443  -0.132205   0.090133
    14  H    0.035830   0.000000   0.144932   0.022140   0.012218   0.090113
    15  H    0.035556   0.000000  -0.055494   0.107994   0.076621   0.089124
    16  H    0.033200   0.000000  -0.069236   0.094517   0.082463   0.086623
    17  H    0.033360   0.000000  -0.027999  -0.122067   0.067552   0.089920
    18  H    0.034004   0.000000   0.138286   0.026099   0.032460   0.088734
    19  H    0.182046   0.000000   0.099683  -0.149776  -0.127756   0.359832
    20  H    0.041193   0.000000   0.073025  -0.115948   0.048762   0.101593
    21  H    0.044508   0.000000  -0.051586  -0.146664   0.029656   0.100645
    22  H    0.043545   0.000000  -0.153590  -0.033310  -0.016473   0.099630
    23  H    0.043343   0.000000  -0.099429   0.113040  -0.046986   0.099479
    24  H    0.039888   0.000000   0.029844   0.141883  -0.034900   0.098519
       Tot   0.000014   0.000000  -0.037296   0.052661  -0.006490   0.000014
 Hirshfeld charges with hydrogens summed into heavy atoms:
              Q-H       Q-CM5   
     1  C    0.019411   0.038471
     2  C    0.012661  -0.005420
     3  C    0.014585   0.034346
     4  C    0.214330   0.266485
     5  O   -0.274675  -0.328690
     6  O    0.010449  -0.010604
     7  C    0.000688  -0.009214
     8  C   -0.002081   0.005282
     9  C    0.005086   0.005242
    10  C    0.000163   0.000171
    11  C    0.002582   0.002652
    12  C   -0.003185   0.001293
 
 EQQ=  0.00000000000     EQD=  0.00000000000     EDD= 0.786320004003E-02
 EQQ+QD+DD= 0.786320004003E-02
 
 Running external command "gaunbo6 R"
         input file       "/tmp/Gau-1602388.EIn"
         output file      "/tmp/Gau-1602388.EOu"
         message file     "/tmp/Gau-1602388.EMs"
         fchk file        "/tmp/Gau-1602388.EFC"
         mat. el file     "/tmp/Gau-1602388.EUF"

 Writing WrtUnf unformatted file "/tmp/Gau-1602388.EUF"
 Gaussian matrix elements                                         Version   2 NLab=11 Len12L=8 Len4L=8
 Write SHELL TO ATOM MAP                   from file      0 offset           0 length                 180 to matrix element file.
 Write SHELL TYPES                         from file      0 offset           0 length                 180 to matrix element file.
 Write NUMBER OF PRIMITIVES PER SHELL      from file      0 offset           0 length                 180 to matrix element file.
 Write PRIMITIVE EXPONENTS                 from file      0 offset           0 length                 312 to matrix element file.
 Write CONTRACTION COEFFICIENTS            from file      0 offset           0 length                 312 to matrix element file.
 Write P(S=P) CONTRACTION COEFFICIENTS     from file      0 offset           0 length                 312 to matrix element file.
 Write COORDINATES OF EACH SHELL           from file      0 offset           0 length                 540 to matrix element file.
 Write BONDS PER ATOM                      from file      0 offset           0 length                  24 to matrix element file.
 Write BONDED ATOMS                        from file      0 offset           0 length                  48 to matrix element file.
 Write BOND TYPES                          from file      0 offset           0 length                  48 to matrix element file.
 Write ONIOM CHARGE/MULT                   from file      0 offset           0 length                  32 to matrix element file.
 Write ONIOM ATOM LAYERS                   from file      0 offset           0 length                  24 to matrix element file.
 Write ONIOM ATOM MODIFIERS                from file      0 offset           0 length                  24 to matrix element file.
 Write ONIOM ATOM TYPES                    from file      0 offset           0 length                  24 to matrix element file.
 Write ONIOM LINK ATOMS                    from file      0 offset           0 length                  24 to matrix element file.
 Write ONIOM LINK CHARGES                  from file      0 offset           0 length                  24 to matrix element file.
 Write ONIOM LINK DISTANCES                from file      0 offset           0 length                  96 to matrix element file.
 Write SYMINF INTS                         from file      0 offset           0 length                  26 to matrix element file.
 Write ROTTR TO SO                         from file      0 offset           0 length                  12 to matrix element file.
 Write GAUSSIAN SCALARS                    from file    501 offset           0 to matrix element file.
 Write OPTIMIZATION FLAGS                  from file      0 offset           0 length                  24 to matrix element file.
 Write INTEGER ISO                         from file      0 offset           0 length                  24 to matrix element file.
 Write INTEGER SPIN                        from file      0 offset           0 length                  24 to matrix element file.
 Write REAL ZEFFECTIVE                     from file      0 offset           0 length                  24 to matrix element file.
 Write REAL GFACTOR                        from file      0 offset           0 length                  24 to matrix element file.
 Write REAL ZNUCLEAR                       from file      0 offset           0 length                  24 to matrix element file.
 Write MULLIKEN CHARGES                    from file      0 offset           0 length                  24 to matrix element file.
 Write TYPE 6 CHARGES                      from file      0 offset           0 length                  24 to matrix element file.
 Write TYPE 7 CHARGES                      from file      0 offset           0 length                  24 to matrix element file.
 Write NUCLEAR GRADIENT                    from file  10584 offset           0 length                  72 to matrix element file.
 Array NUCLEAR FORCE CONSTANTS              on  file  10585 does not exist.
 Write ELECTRIC DIPOLE MOMENT              from file      0 offset           0 length                   3 to matrix element file.
 Write NON-ADIABATIC COUPLING              from file  10810 offset           0 length                  72 to matrix element file.
 Write FINITE EM FIELD                     from file  10521 offset           0 length                  35 to matrix element file.
 Write OVERLAP                             from file  10514 offset           0 length               98790 to matrix element file.
 Write CORE HAMILTONIAN ALPHA              from file  10515 offset           0 length               98790 to matrix element file.
 Write CORE HAMILTONIAN BETA               from file  10515 offset       98790 length               98790 to matrix element file.
 Write KINETIC ENERGY                      from file  10516 offset           0 length               98790 to matrix element file.
 Write ORTHOGONAL BASIS                    from file  10685 offset           0 length              197136 to matrix element file.
 Write DIPOLE INTEGRALS                    from file  10518 offset           0 length              296370 to matrix element file.
 Array DIP VEL INTEGRALS                    on  file  10572 does not exist.
 Array R X DEL INTEGRALS                    on  file  10572 does not exist.
 Write ALPHA ORBITAL ENERGIES              from file      0 offset           0 length                 444 to matrix element file.
 Write ALPHA MO COEFFICIENTS               from file  10524 offset           0 length              197136 to matrix element file.
 Write ALPHA DENSITY MATRIX                from file      0 offset           0 length               98790 to matrix element file.
 Write ALPHA FOCK MATRIX                   from file  10536 offset           0 length               98790 to matrix element file.
 Write ENERGY-WEIGHTED DENSITY             from file  10571 offset           0 length               98790 to matrix element file.
 Write ALPHA SCF DENSITY MATRIX            from file      0 offset           0 length               98790 to matrix element file.
 No 2e integrals to process.
 Perform NBO analysis...

 *********************************** NBO 7.0 ***********************************
             N A T U R A L   A T O M I C   O R B I T A L   A N D
          N A T U R A L   B O N D   O R B I T A L   A N A L Y S I S
 **************************** Robert Paton (I101709) ***************************
  (c) Copyright 1996-2019 Board of Regents of the University of Wisconsin System
      on behalf of the Theoretical Chemistry Institute.  All rights reserved.

          Cite this program [NBO 7.0.5 (4-Jun-2019)] as:

          NBO 7.0.  E. D. Glendening, J. K. Badenhoop, A. E. Reed,
          J. E. Carpenter, J. A. Bohmann, C. M. Morales, P. Karafiloglou,
          C. R. Landis, and F. Weinhold, Theoretical Chemistry Institute,
          University of Wisconsin, Madison, WI (2018)

 Filename set to /tmp/Gau-1602388

 Job title:  Ac5_rdkit_conf_1_SP_charge


 NATURAL POPULATIONS:  Natural atomic orbital occupancies

  NAO Atom No lang   Type(AO)    Occupancy      Energy
 -------------------------------------------------------
   1    C  1  s      Cor( 1s)     1.99999     -10.53622
   2    C  1  s      Val( 2s)     1.10278      -0.23754
   3    C  1  s      Ryd( 3s)     0.00034       1.65233
   4    C  1  s      Ryd( 4s)     0.00008       2.13483
   5    C  1  s      Ryd( 5s)     0.00000      21.36303
   6    C  1  px     Val( 2p)     1.20921      -0.11987
   7    C  1  px     Ryd( 3p)     0.00113       0.92814
   8    C  1  px     Ryd( 4p)     0.00010       1.72145
   9    C  1  py     Val( 2p)     1.06918      -0.09631
  10    C  1  py     Ryd( 3p)     0.00050       0.77865
  11    C  1  py     Ryd( 4p)     0.00020       1.93659
  12    C  1  pz     Val( 2p)     1.20774      -0.11863
  13    C  1  pz     Ryd( 3p)     0.00124       0.81705
  14    C  1  pz     Ryd( 4p)     0.00005       1.62972
  15    C  1  dxy    Ryd( 3d)     0.00068       1.87224
  16    C  1  dxy    Ryd( 4d)     0.00005       3.05749
  17    C  1  dxz    Ryd( 3d)     0.00098       1.70276
  18    C  1  dxz    Ryd( 4d)     0.00006       2.93919
  19    C  1  dyz    Ryd( 3d)     0.00087       1.90282
  20    C  1  dyz    Ryd( 4d)     0.00006       3.13631
  21    C  1  dx2y2  Ryd( 3d)     0.00148       2.04158
  22    C  1  dx2y2  Ryd( 4d)     0.00006       3.26189
  23    C  1  dz2    Ryd( 3d)     0.00152       1.90101
  24    C  1  dz2    Ryd( 4d)     0.00005       3.22097
  25    C  1  f(0)   Ryd( 4f)     0.00023       3.52766
  26    C  1  f(c1)  Ryd( 4f)     0.00015       3.44055
  27    C  1  f(s1)  Ryd( 4f)     0.00008       3.41777
  28    C  1  f(c2)  Ryd( 4f)     0.00007       3.32532
  29    C  1  f(s2)  Ryd( 4f)     0.00004       3.42569
  30    C  1  f(c3)  Ryd( 4f)     0.00024       3.61727
  31    C  1  f(s3)  Ryd( 4f)     0.00009       3.38111

  32    C  2  s      Cor( 1s)     1.99999     -10.57194
  33    C  2  s      Val( 2s)     0.97486      -0.19909
  34    C  2  s      Ryd( 3s)     0.00131       1.44835
  35    C  2  s      Ryd( 4s)     0.00012       4.72671
  36    C  2  s      Ryd( 5s)     0.00000      16.29646
  37    C  2  px     Val( 2p)     1.05982      -0.09534
  38    C  2  px     Ryd( 3p)     0.00225       0.79877
  39    C  2  px     Ryd( 4p)     0.00045       1.83740
  40    C  2  py     Val( 2p)     1.05780      -0.09935
  41    C  2  py     Ryd( 3p)     0.00442       1.04471
  42    C  2  py     Ryd( 4p)     0.00058       1.92570
  43    C  2  pz     Val( 2p)     1.06386      -0.10053
  44    C  2  pz     Ryd( 3p)     0.00334       0.98090
  45    C  2  pz     Ryd( 4p)     0.00053       1.86356
  46    C  2  dxy    Ryd( 3d)     0.00053       2.33399
  47    C  2  dxy    Ryd( 4d)     0.00035       3.95047
  48    C  2  dxz    Ryd( 3d)     0.00066       1.97388
  49    C  2  dxz    Ryd( 4d)     0.00037       3.71382
  50    C  2  dyz    Ryd( 3d)     0.00103       2.07567
  51    C  2  dyz    Ryd( 4d)     0.00035       3.86807
  52    C  2  dx2y2  Ryd( 3d)     0.00035       2.31154
  53    C  2  dx2y2  Ryd( 4d)     0.00021       4.36148
  54    C  2  dz2    Ryd( 3d)     0.00033       2.42227
  55    C  2  dz2    Ryd( 4d)     0.00022       4.26041
  56    C  2  f(0)   Ryd( 4f)     0.00026       3.86557
  57    C  2  f(c1)  Ryd( 4f)     0.00009       3.70168
  58    C  2  f(s1)  Ryd( 4f)     0.00004       3.70125
  59    C  2  f(c2)  Ryd( 4f)     0.00004       3.59409
  60    C  2  f(s2)  Ryd( 4f)     0.00004       3.55288
  61    C  2  f(c3)  Ryd( 4f)     0.00016       3.82079
  62    C  2  f(s3)  Ryd( 4f)     0.00008       3.76732

  63    C  3  s      Cor( 1s)     1.99999     -10.52845
  64    C  3  s      Val( 2s)     1.10418      -0.22964
  65    C  3  s      Ryd( 3s)     0.00035       1.49035
  66    C  3  s      Ryd( 4s)     0.00007       2.16417
  67    C  3  s      Ryd( 5s)     0.00000      21.60437
  68    C  3  px     Val( 2p)     1.20842      -0.11117
  69    C  3  px     Ryd( 3p)     0.00112       0.90519
  70    C  3  px     Ryd( 4p)     0.00005       1.55813
  71    C  3  py     Val( 2p)     1.22220      -0.11345
  72    C  3  py     Ryd( 3p)     0.00153       0.87729
  73    C  3  py     Ryd( 4p)     0.00003       1.53876
  74    C  3  pz     Val( 2p)     1.03849      -0.08254
  75    C  3  pz     Ryd( 3p)     0.00055       0.78911
  76    C  3  pz     Ryd( 4p)     0.00024       1.82456
  77    C  3  dxy    Ryd( 3d)     0.00134       1.69159
  78    C  3  dxy    Ryd( 4d)     0.00004       3.04794
  79    C  3  dxz    Ryd( 3d)     0.00040       1.76085
  80    C  3  dxz    Ryd( 4d)     0.00011       3.07838
  81    C  3  dyz    Ryd( 3d)     0.00050       1.75545
  82    C  3  dyz    Ryd( 4d)     0.00013       3.18363
  83    C  3  dx2y2  Ryd( 3d)     0.00160       1.79255
  84    C  3  dx2y2  Ryd( 4d)     0.00003       3.21968
  85    C  3  dz2    Ryd( 3d)     0.00168       2.19935
  86    C  3  dz2    Ryd( 4d)     0.00004       3.34274
  87    C  3  f(0)   Ryd( 4f)     0.00032       3.46649
  88    C  3  f(c1)  Ryd( 4f)     0.00011       3.48142
  89    C  3  f(s1)  Ryd( 4f)     0.00004       3.46472
  90    C  3  f(c2)  Ryd( 4f)     0.00006       3.46288
  91    C  3  f(s2)  Ryd( 4f)     0.00003       3.51140
  92    C  3  f(c3)  Ryd( 4f)     0.00022       3.49110
  93    C  3  f(s3)  Ryd( 4f)     0.00011       3.32237

  94    C  4  s      Cor( 1s)     1.99999     -10.67587
  95    C  4  s      Val( 2s)     0.82222      -0.13010
  96    C  4  s      Ryd( 4s)     0.00815       1.78645
  97    C  4  s      Ryd( 3s)     0.00086       1.66761
  98    C  4  s      Ryd( 5s)     0.00001      20.85592
  99    C  4  px     Val( 2p)     0.76243      -0.07974
 100    C  4  px     Ryd( 3p)     0.00523       1.12234
 101    C  4  px     Ryd( 4p)     0.00030       1.19107
 102    C  4  py     Val( 2p)     0.80890      -0.02935
 103    C  4  py     Ryd( 3p)     0.00979       1.19513
 104    C  4  py     Ryd( 4p)     0.00022       1.33147
 105    C  4  pz     Val( 2p)     0.75084      -0.00513
 106    C  4  pz     Ryd( 3p)     0.00720       1.31998
 107    C  4  pz     Ryd( 4p)     0.00015       1.37360
 108    C  4  dxy    Ryd( 4d)     0.00061       3.04235
 109    C  4  dxy    Ryd( 3d)     0.00032       2.79107
 110    C  4  dxz    Ryd( 4d)     0.00179       2.78709
 111    C  4  dxz    Ryd( 3d)     0.00030       2.44168
 112    C  4  dyz    Ryd( 4d)     0.00161       3.07877
 113    C  4  dyz    Ryd( 3d)     0.00037       2.71459
 114    C  4  dx2y2  Ryd( 4d)     0.00147       2.77645
 115    C  4  dx2y2  Ryd( 3d)     0.00014       2.39534
 116    C  4  dz2    Ryd( 4d)     0.00129       3.33346
 117    C  4  dz2    Ryd( 3d)     0.00033       2.82570
 118    C  4  f(0)   Ryd( 4f)     0.00018       3.71213
 119    C  4  f(c1)  Ryd( 4f)     0.00006       3.55996
 120    C  4  f(s1)  Ryd( 4f)     0.00007       3.80263
 121    C  4  f(c2)  Ryd( 4f)     0.00004       3.36734
 122    C  4  f(s2)  Ryd( 4f)     0.00026       3.45117
 123    C  4  f(c3)  Ryd( 4f)     0.00023       3.47699
 124    C  4  f(s3)  Ryd( 4f)     0.00013       3.52742

 125    O  5  s      Cor( 1s)     2.00000     -19.62148
 126    O  5  s      Val( 2s)     1.69812      -0.76794
 127    O  5  s      Ryd( 3s)     0.00061       1.60743
 128    O  5  s      Ryd( 4s)     0.00004       5.85338
 129    O  5  s      Ryd( 5s)     0.00000      40.78876
 130    O  5  px     Val( 2p)     1.50455      -0.30854
 131    O  5  px     Ryd( 3p)     0.00080       0.73178
 132    O  5  px     Ryd( 4p)     0.00005       3.25196
 133    O  5  py     Val( 2p)     1.56053      -0.32347
 134    O  5  py     Ryd( 3p)     0.00087       0.72763
 135    O  5  py     Ryd( 4p)     0.00010       3.50235
 136    O  5  pz     Val( 2p)     1.80713      -0.34441
 137    O  5  pz     Ryd( 3p)     0.00245       0.80419
 138    O  5  pz     Ryd( 4p)     0.00006       3.33322
 139    O  5  dxy    Ryd( 3d)     0.00573       2.05378
 140    O  5  dxy    Ryd( 4d)     0.00001       6.68424
 141    O  5  dxz    Ryd( 3d)     0.00273       1.83016
 142    O  5  dxz    Ryd( 4d)     0.00001       6.46776
 143    O  5  dyz    Ryd( 3d)     0.00480       2.00175
 144    O  5  dyz    Ryd( 4d)     0.00001       6.62276
 145    O  5  dx2y2  Ryd( 3d)     0.00543       1.89728
 146    O  5  dx2y2  Ryd( 4d)     0.00001       6.54963
 147    O  5  dz2    Ryd( 3d)     0.00285       1.86247
 148    O  5  dz2    Ryd( 4d)     0.00001       6.55699
 149    O  5  f(0)   Ryd( 4f)     0.00006       5.57022
 150    O  5  f(c1)  Ryd( 4f)     0.00006       5.49368
 151    O  5  f(s1)  Ryd( 4f)     0.00014       5.74599
 152    O  5  f(c2)  Ryd( 4f)     0.00009       5.62616
 153    O  5  f(s2)  Ryd( 4f)     0.00010       5.77846
 154    O  5  f(c3)  Ryd( 4f)     0.00007       5.83939
 155    O  5  f(s3)  Ryd( 4f)     0.00012       5.75546

 156    O  6  s      Cor( 1s)     2.00000     -19.67443
 157    O  6  s      Val( 2s)     1.67742      -0.85925
 158    O  6  s      Ryd( 3s)     0.00050       1.97730
 159    O  6  s      Ryd( 4s)     0.00015       5.78242
 160    O  6  s      Ryd( 5s)     0.00000      40.02394
 161    O  6  px     Val( 2p)     1.78655      -0.40747
 162    O  6  px     Ryd( 3p)     0.00152       0.70416
 163    O  6  px     Ryd( 4p)     0.00004       3.01940
 164    O  6  py     Val( 2p)     1.72654      -0.40181
 165    O  6  py     Ryd( 3p)     0.00115       0.81754
 166    O  6  py     Ryd( 4p)     0.00007       3.22773
 167    O  6  pz     Val( 2p)     1.47532      -0.35968
 168    O  6  pz     Ryd( 3p)     0.00147       0.63115
 169    O  6  pz     Ryd( 4p)     0.00017       3.95429
 170    O  6  dxy    Ryd( 3d)     0.00409       1.88998
 171    O  6  dxy    Ryd( 4d)     0.00000       6.42194
 172    O  6  dxz    Ryd( 3d)     0.00209       1.95198
 173    O  6  dxz    Ryd( 4d)     0.00003       6.52903
 174    O  6  dyz    Ryd( 3d)     0.00283       2.05973
 175    O  6  dyz    Ryd( 4d)     0.00003       6.59251
 176    O  6  dx2y2  Ryd( 3d)     0.00260       1.67734
 177    O  6  dx2y2  Ryd( 4d)     0.00000       6.34199
 178    O  6  dz2    Ryd( 3d)     0.00493       2.13426
 179    O  6  dz2    Ryd( 4d)     0.00001       6.67767
 180    O  6  f(0)   Ryd( 4f)     0.00012       5.96925
 181    O  6  f(c1)  Ryd( 4f)     0.00008       5.77958
 182    O  6  f(s1)  Ryd( 4f)     0.00005       5.87228
 183    O  6  f(c2)  Ryd( 4f)     0.00002       5.42208
 184    O  6  f(s2)  Ryd( 4f)     0.00007       5.70564
 185    O  6  f(c3)  Ryd( 4f)     0.00008       5.53669
 186    O  6  f(s3)  Ryd( 4f)     0.00005       5.30300

 187    C  7  s      Cor( 1s)     1.99999     -10.55642
 188    C  7  s      Val( 2s)     0.91476      -0.11676
 189    C  7  s      Ryd( 3s)     0.00161       1.31938
 190    C  7  s      Ryd( 4s)     0.00021       1.97675
 191    C  7  s      Ryd( 5s)     0.00000      20.47541
 192    C  7  px     Val( 2p)     1.00238      -0.01870
 193    C  7  px     Ryd( 3p)     0.00616       1.21029
 194    C  7  px     Ryd( 4p)     0.00026       2.59340
 195    C  7  py     Val( 2p)     1.05559      -0.02576
 196    C  7  py     Ryd( 3p)     0.00249       1.02468
 197    C  7  py     Ryd( 4p)     0.00021       2.17813
 198    C  7  pz     Val( 2p)     1.00729      -0.10532
 199    C  7  pz     Ryd( 3p)     0.00269       0.73584
 200    C  7  pz     Ryd( 4p)     0.00010       1.58068
 201    C  7  dxy    Ryd( 3d)     0.00056       3.13102
 202    C  7  dxy    Ryd( 4d)     0.00049       4.01506
 203    C  7  dxz    Ryd( 3d)     0.00035       2.18561
 204    C  7  dxz    Ryd( 4d)     0.00021       3.30577
 205    C  7  dyz    Ryd( 3d)     0.00041       2.15180
 206    C  7  dyz    Ryd( 4d)     0.00023       3.28103
 207    C  7  dx2y2  Ryd( 3d)     0.00067       2.92591
 208    C  7  dx2y2  Ryd( 4d)     0.00060       3.93981
 209    C  7  dz2    Ryd( 3d)     0.00071       2.98238
 210    C  7  dz2    Ryd( 4d)     0.00011       3.47858
 211    C  7  f(0)   Ryd( 4f)     0.00042       3.33068
 212    C  7  f(c1)  Ryd( 4f)     0.00041       3.32802
 213    C  7  f(s1)  Ryd( 4f)     0.00037       3.34007
 214    C  7  f(c2)  Ryd( 4f)     0.00015       3.41848
 215    C  7  f(s2)  Ryd( 4f)     0.00019       3.41553
 216    C  7  f(c3)  Ryd( 4f)     0.00039       3.79067
 217    C  7  f(s3)  Ryd( 4f)     0.00019       3.77614

 218    C  8  s      Cor( 1s)     1.99999     -10.54217
 219    C  8  s      Val( 2s)     0.97179      -0.13552
 220    C  8  s      Ryd( 3s)     0.00100       1.36488
 221    C  8  s      Ryd( 4s)     0.00010       1.77326
 222    C  8  s      Ryd( 5s)     0.00000      20.87374
 223    C  8  px     Val( 2p)     1.10437      -0.03992
 224    C  8  px     Ryd( 3p)     0.00299       1.20229
 225    C  8  px     Ryd( 4p)     0.00015       2.06188
 226    C  8  py     Val( 2p)     1.11255      -0.04709
 227    C  8  py     Ryd( 3p)     0.00368       1.00331
 228    C  8  py     Ryd( 4p)     0.00013       1.85741
 229    C  8  pz     Val( 2p)     1.01273      -0.11162
 230    C  8  pz     Ryd( 3p)     0.00167       0.72232
 231    C  8  pz     Ryd( 4p)     0.00015       1.43322
 232    C  8  dxy    Ryd( 3d)     0.00066       2.46807
 233    C  8  dxy    Ryd( 4d)     0.00048       3.83748
 234    C  8  dxz    Ryd( 3d)     0.00041       1.81679
 235    C  8  dxz    Ryd( 4d)     0.00015       3.06052
 236    C  8  dyz    Ryd( 3d)     0.00048       1.87196
 237    C  8  dyz    Ryd( 4d)     0.00007       3.04675
 238    C  8  dx2y2  Ryd( 3d)     0.00139       2.43481
 239    C  8  dx2y2  Ryd( 4d)     0.00019       3.69785
 240    C  8  dz2    Ryd( 3d)     0.00100       1.98534
 241    C  8  dz2    Ryd( 4d)     0.00002       3.31557
 242    C  8  f(0)   Ryd( 4f)     0.00045       3.26500
 243    C  8  f(c1)  Ryd( 4f)     0.00037       3.32570
 244    C  8  f(s1)  Ryd( 4f)     0.00035       3.27493
 245    C  8  f(c2)  Ryd( 4f)     0.00006       3.32022
 246    C  8  f(s2)  Ryd( 4f)     0.00019       3.40062
 247    C  8  f(c3)  Ryd( 4f)     0.00038       3.81844
 248    C  8  f(s3)  Ryd( 4f)     0.00027       3.76188

 249    C  9  s      Cor( 1s)     1.99999     -10.54358
 250    C  9  s      Val( 2s)     0.97688      -0.14264
 251    C  9  s      Ryd( 3s)     0.00080       1.46296
 252    C  9  s      Ryd( 4s)     0.00003       1.62330
 253    C  9  s      Ryd( 5s)     0.00000      20.76747
 254    C  9  px     Val( 2p)     1.05797      -0.02544
 255    C  9  px     Ryd( 3p)     0.00326       0.99411
 256    C  9  px     Ryd( 4p)     0.00012       1.93662
 257    C  9  py     Val( 2p)     1.15022      -0.05690
 258    C  9  py     Ryd( 3p)     0.00439       1.16032
 259    C  9  py     Ryd( 4p)     0.00009       1.90817
 260    C  9  pz     Val( 2p)     0.99867      -0.10815
 261    C  9  pz     Ryd( 3p)     0.00159       0.73961
 262    C  9  pz     Ryd( 4p)     0.00014       1.33963
 263    C  9  dxy    Ryd( 3d)     0.00102       2.56835
 264    C  9  dxy    Ryd( 4d)     0.00024       3.55359
 265    C  9  dxz    Ryd( 3d)     0.00035       1.98362
 266    C  9  dxz    Ryd( 4d)     0.00009       2.93387
 267    C  9  dyz    Ryd( 3d)     0.00053       1.87324
 268    C  9  dyz    Ryd( 4d)     0.00006       2.81821
 269    C  9  dx2y2  Ryd( 3d)     0.00086       2.52674
 270    C  9  dx2y2  Ryd( 4d)     0.00034       3.61759
 271    C  9  dz2    Ryd( 3d)     0.00079       2.07223
 272    C  9  dz2    Ryd( 4d)     0.00003       3.14382
 273    C  9  f(0)   Ryd( 4f)     0.00038       3.26905
 274    C  9  f(c1)  Ryd( 4f)     0.00035       3.38759
 275    C  9  f(s1)  Ryd( 4f)     0.00036       3.26294
 276    C  9  f(c2)  Ryd( 4f)     0.00015       3.35474
 277    C  9  f(s2)  Ryd( 4f)     0.00014       3.35621
 278    C  9  f(c3)  Ryd( 4f)     0.00033       3.82267
 279    C  9  f(s3)  Ryd( 4f)     0.00022       3.71289

 280    C 10  s      Cor( 1s)     1.99999     -10.54210
 281    C 10  s      Val( 2s)     0.97975      -0.14492
 282    C 10  s      Ryd( 3s)     0.00075       1.39449
 283    C 10  s      Ryd( 4s)     0.00002       1.60186
 284    C 10  s      Ryd( 5s)     0.00000      20.89262
 285    C 10  px     Val( 2p)     1.16386      -0.05608
 286    C 10  px     Ryd( 3p)     0.00428       1.18365
 287    C 10  px     Ryd( 4p)     0.00011       1.94185
 288    C 10  py     Val( 2p)     1.04878      -0.02853
 289    C 10  py     Ryd( 3p)     0.00309       0.95618
 290    C 10  py     Ryd( 4p)     0.00013       1.86990
 291    C 10  pz     Val( 2p)     1.00626      -0.10837
 292    C 10  pz     Ryd( 3p)     0.00171       0.72497
 293    C 10  pz     Ryd( 4p)     0.00016       1.32660
 294    C 10  dxy    Ryd( 3d)     0.00126       2.47487
 295    C 10  dxy    Ryd( 4d)     0.00022       3.50563
 296    C 10  dxz    Ryd( 3d)     0.00049       1.80498
 297    C 10  dxz    Ryd( 4d)     0.00004       2.76867
 298    C 10  dyz    Ryd( 3d)     0.00039       1.96890
 299    C 10  dyz    Ryd( 4d)     0.00008       2.99830
 300    C 10  dx2y2  Ryd( 3d)     0.00065       2.48963
 301    C 10  dx2y2  Ryd( 4d)     0.00038       3.61994
 302    C 10  dz2    Ryd( 3d)     0.00081       2.04601
 303    C 10  dz2    Ryd( 4d)     0.00005       3.14160
 304    C 10  f(0)   Ryd( 4f)     0.00035       3.25315
 305    C 10  f(c1)  Ryd( 4f)     0.00040       3.30423
 306    C 10  f(s1)  Ryd( 4f)     0.00035       3.34906
 307    C 10  f(c2)  Ryd( 4f)     0.00015       3.32963
 308    C 10  f(s2)  Ryd( 4f)     0.00016       3.34759
 309    C 10  f(c3)  Ryd( 4f)     0.00033       3.79376
 310    C 10  f(s3)  Ryd( 4f)     0.00021       3.71073

 311    C 11  s      Cor( 1s)     1.99999     -10.54372
 312    C 11  s      Val( 2s)     0.97667      -0.14347
 313    C 11  s      Ryd( 3s)     0.00081       1.45879
 314    C 11  s      Ryd( 4s)     0.00003       1.51273
 315    C 11  s      Ryd( 5s)     0.00000      20.74602
 316    C 11  px     Val( 2p)     1.09167      -0.03551
 317    C 11  px     Ryd( 3p)     0.00367       1.05229
 318    C 11  px     Ryd( 4p)     0.00012       1.96651
 319    C 11  py     Val( 2p)     1.10811      -0.04542
 320    C 11  py     Ryd( 3p)     0.00387       1.07977
 321    C 11  py     Ryd( 4p)     0.00009       1.89117
 322    C 11  pz     Val( 2p)     1.00765      -0.11048
 323    C 11  pz     Ryd( 3p)     0.00174       0.74287
 324    C 11  pz     Ryd( 4p)     0.00015       1.34329
 325    C 11  dxy    Ryd( 3d)     0.00057       2.51734
 326    C 11  dxy    Ryd( 4d)     0.00039       3.69286
 327    C 11  dxz    Ryd( 3d)     0.00034       1.96523
 328    C 11  dxz    Ryd( 4d)     0.00009       2.82838
 329    C 11  dyz    Ryd( 3d)     0.00046       1.94925
 330    C 11  dyz    Ryd( 4d)     0.00008       2.85447
 331    C 11  dx2y2  Ryd( 3d)     0.00131       2.57370
 332    C 11  dx2y2  Ryd( 4d)     0.00018       3.49258
 333    C 11  dz2    Ryd( 3d)     0.00082       2.05154
 334    C 11  dz2    Ryd( 4d)     0.00002       3.14157
 335    C 11  f(0)   Ryd( 4f)     0.00042       3.27851
 336    C 11  f(c1)  Ryd( 4f)     0.00033       3.33071
 337    C 11  f(s1)  Ryd( 4f)     0.00034       3.27195
 338    C 11  f(c2)  Ryd( 4f)     0.00007       3.33633
 339    C 11  f(s2)  Ryd( 4f)     0.00018       3.39256
 340    C 11  f(c3)  Ryd( 4f)     0.00036       3.80726
 341    C 11  f(s3)  Ryd( 4f)     0.00022       3.73278

 342    C 12  s      Cor( 1s)     1.99999     -10.54337
 343    C 12  s      Val( 2s)     0.96962      -0.13425
 344    C 12  s      Ryd( 4s)     0.00097       1.56955
 345    C 12  s      Ryd( 3s)     0.00009       1.36449
 346    C 12  s      Ryd( 5s)     0.00000      21.08200
 347    C 12  px     Val( 2p)     1.06489      -0.02848
 348    C 12  px     Ryd( 3p)     0.00215       1.10987
 349    C 12  px     Ryd( 4p)     0.00012       2.04900
 350    C 12  py     Val( 2p)     1.15467      -0.05812
 351    C 12  py     Ryd( 3p)     0.00428       1.09426
 352    C 12  py     Ryd( 4p)     0.00014       1.92224
 353    C 12  pz     Val( 2p)     1.01268      -0.10950
 354    C 12  pz     Ryd( 3p)     0.00173       0.70425
 355    C 12  pz     Ryd( 4p)     0.00017       1.41686
 356    C 12  dxy    Ryd( 3d)     0.00128       2.40264
 357    C 12  dxy    Ryd( 4d)     0.00030       3.65468
 358    C 12  dxz    Ryd( 3d)     0.00035       1.90618
 359    C 12  dxz    Ryd( 4d)     0.00013       3.07341
 360    C 12  dyz    Ryd( 3d)     0.00054       1.84772
 361    C 12  dyz    Ryd( 4d)     0.00004       2.96010
 362    C 12  dx2y2  Ryd( 3d)     0.00074       2.59517
 363    C 12  dx2y2  Ryd( 4d)     0.00036       3.77212
 364    C 12  dz2    Ryd( 3d)     0.00092       2.09067
 365    C 12  dz2    Ryd( 4d)     0.00003       3.27789
 366    C 12  f(0)   Ryd( 4f)     0.00040       3.26411
 367    C 12  f(c1)  Ryd( 4f)     0.00039       3.37135
 368    C 12  f(s1)  Ryd( 4f)     0.00038       3.25048
 369    C 12  f(c2)  Ryd( 4f)     0.00017       3.36662
 370    C 12  f(s2)  Ryd( 4f)     0.00014       3.34881
 371    C 12  f(c3)  Ryd( 4f)     0.00036       3.82704
 372    C 12  f(s3)  Ryd( 4f)     0.00023       3.73768

 373    H 13  s      Val( 1s)     0.77218       0.06152
 374    H 13  s      Ryd( 2s)     0.00035       0.73531
 375    H 13  s      Ryd( 3s)     0.00005       1.94193
 376    H 13  px     Ryd( 2p)     0.00006       2.23888
 377    H 13  py     Ryd( 2p)     0.00005       2.31811
 378    H 13  pz     Ryd( 2p)     0.00060       2.80581

 379    H 14  s      Val( 1s)     0.78146       0.05243
 380    H 14  s      Ryd( 2s)     0.00032       0.86024
 381    H 14  s      Ryd( 3s)     0.00003       1.72886
 382    H 14  px     Ryd( 2p)     0.00060       2.81972
 383    H 14  py     Ryd( 2p)     0.00006       2.30750
 384    H 14  pz     Ryd( 2p)     0.00004       2.18558

 385    H 15  s      Val( 1s)     0.78650       0.04673
 386    H 15  s      Ryd( 2s)     0.00055       0.80618
 387    H 15  s      Ryd( 3s)     0.00005       1.84489
 388    H 15  px     Ryd( 2p)     0.00013       2.30478
 389    H 15  py     Ryd( 2p)     0.00034       2.70287
 390    H 15  pz     Ryd( 2p)     0.00022       2.36190

 391    H 16  s      Val( 1s)     0.78811       0.05529
 392    H 16  s      Ryd( 2s)     0.00037       0.90545
 393    H 16  s      Ryd( 3s)     0.00003       1.70814
 394    H 16  px     Ryd( 2p)     0.00021       2.33811
 395    H 16  py     Ryd( 2p)     0.00030       2.44609
 396    H 16  pz     Ryd( 2p)     0.00023       2.52228

 397    H 17  s      Val( 1s)     0.77493       0.06807
 398    H 17  s      Ryd( 2s)     0.00031       0.86930
 399    H 17  s      Ryd( 3s)     0.00004       1.81934
 400    H 17  px     Ryd( 2p)     0.00005       2.21284
 401    H 17  py     Ryd( 2p)     0.00057       2.70128
 402    H 17  pz     Ryd( 2p)     0.00014       2.44594

 403    H 18  s      Val( 1s)     0.78316       0.05894
 404    H 18  s      Ryd( 2s)     0.00044       0.76727
 405    H 18  s      Ryd( 3s)     0.00004       1.84396
 406    H 18  px     Ryd( 2p)     0.00063       2.78528
 407    H 18  py     Ryd( 2p)     0.00003       2.20656
 408    H 18  pz     Ryd( 2p)     0.00007       2.34501

 409    H 19  s      Val( 1s)     0.50086       0.13079
 410    H 19  s      Ryd( 2s)     0.00202       0.60411
 411    H 19  s      Ryd( 3s)     0.00035       1.97248
 412    H 19  px     Ryd( 2p)     0.00052       2.33133
 413    H 19  py     Ryd( 2p)     0.00035       2.79495
 414    H 19  pz     Ryd( 2p)     0.00022       2.38327

 415    H 20  s      Val( 1s)     0.77731       0.06739
 416    H 20  s      Ryd( 2s)     0.00064       0.84156
 417    H 20  s      Ryd( 3s)     0.00012       1.94212
 418    H 20  px     Ryd( 2p)     0.00028       2.67633
 419    H 20  py     Ryd( 2p)     0.00035       2.75122
 420    H 20  pz     Ryd( 2p)     0.00013       2.23026

 421    H 21  s      Val( 1s)     0.78393       0.06388
 422    H 21  s      Ryd( 2s)     0.00036       0.58449
 423    H 21  s      Ryd( 3s)     0.00009       2.06003
 424    H 21  px     Ryd( 2p)     0.00010       2.54005
 425    H 21  py     Ryd( 2p)     0.00054       2.82454
 426    H 21  pz     Ryd( 2p)     0.00009       2.19011

 427    H 22  s      Val( 1s)     0.78435       0.06396
 428    H 22  s      Ryd( 2s)     0.00030       0.60898
 429    H 22  s      Ryd( 3s)     0.00009       2.03517
 430    H 22  px     Ryd( 2p)     0.00059       2.87242
 431    H 22  py     Ryd( 2p)     0.00006       2.48799
 432    H 22  pz     Ryd( 2p)     0.00007       2.18036

 433    H 23  s      Val( 1s)     0.78534       0.06238
 434    H 23  s      Ryd( 2s)     0.00036       0.59025
 435    H 23  s      Ryd( 3s)     0.00009       2.05839
 436    H 23  px     Ryd( 2p)     0.00027       2.65537
 437    H 23  py     Ryd( 2p)     0.00034       2.68235
 438    H 23  pz     Ryd( 2p)     0.00012       2.21008

 439    H 24  s      Val( 1s)     0.78340       0.06446
 440    H 24  s      Ryd( 2s)     0.00054       0.78942
 441    H 24  s      Ryd( 3s)     0.00009       1.96825
 442    H 24  px     Ryd( 2p)     0.00011       2.56587
 443    H 24  py     Ryd( 2p)     0.00055       2.87784
 444    H 24  pz     Ryd( 2p)     0.00011       2.21082


 Summary of Natural Population Analysis:

                                     Natural Population
             Natural    ---------------------------------------------
  Atom No    Charge        Core      Valence    Rydberg      Total
 --------------------------------------------------------------------
    C  1   -0.59926      1.99999     4.58892    0.01035     6.59926
    C  2   -0.17443      1.99999     4.15634    0.01810     6.17443
    C  3   -0.58397      1.99999     4.57329    0.01069     6.58397
    C  4    0.81452      1.99999     3.14439    0.04111     5.18548
    O  5   -0.59755      2.00000     6.57033    0.02722     8.59755
    O  6   -0.68799      2.00000     6.66583    0.02216     8.68799
    C  7   -0.00022      1.99999     3.98003    0.02019     6.00022
    C  8   -0.21821      1.99999     4.20143    0.01679     6.21821
    C  9   -0.20038      1.99999     4.18374    0.01665     6.20038
    C 10   -0.21524      1.99999     4.19866    0.01658     6.21524
    C 11   -0.20074      1.99999     4.18410    0.01665     6.20074
    C 12   -0.21827      1.99999     4.20187    0.01641     6.21827
    H 13    0.22671      0.00000     0.77218    0.00110     0.77329
    H 14    0.21750      0.00000     0.78146    0.00104     0.78250
    H 15    0.21220      0.00000     0.78650    0.00129     0.78780
    H 16    0.21075      0.00000     0.78811    0.00114     0.78925
    H 17    0.22397      0.00000     0.77493    0.00110     0.77603
    H 18    0.21564      0.00000     0.78316    0.00120     0.78436
    H 19    0.49569      0.00000     0.50086    0.00346     0.50431
    H 20    0.22118      0.00000     0.77731    0.00152     0.77882
    H 21    0.21489      0.00000     0.78393    0.00118     0.78511
    H 22    0.21454      0.00000     0.78435    0.00111     0.78546
    H 23    0.21348      0.00000     0.78534    0.00118     0.78652
    H 24    0.21519      0.00000     0.78340    0.00141     0.78481
 ====================================================================
 * Total *  0.00000     23.99991    63.75045    0.24964    88.00000

                                 Natural Population
 ---------------------------------------------------------
   Core                      23.99991 ( 99.9996% of   24)
   Valence                   63.75045 ( 99.6101% of   64)
   Natural Minimal Basis     87.75036 ( 99.7163% of   88)
   Natural Rydberg Basis      0.24964 (  0.2837% of   88)
 ---------------------------------------------------------

    Atom No         Natural Electron Configuration
 ----------------------------------------------------------------------------
      C  1      [core]2s( 1.10)2p( 3.49)3d( 0.01)
      C  2      [core]2s( 0.97)2p( 3.18)3p( 0.01)
      C  3      [core]2s( 1.10)2p( 3.47)3d( 0.01)
      C  4      [core]2s( 0.82)2p( 2.32)3p( 0.02)4s( 0.01)4d( 0.01)
      O  5      [core]2s( 1.70)2p( 4.87)3d( 0.02)
      O  6      [core]2s( 1.68)2p( 4.99)3d( 0.02)
      C  7      [core]2s( 0.91)2p( 3.07)3p( 0.01)
      C  8      [core]2s( 0.97)2p( 3.23)3p( 0.01)
      C  9      [core]2s( 0.98)2p( 3.21)3p( 0.01)
      C 10      [core]2s( 0.98)2p( 3.22)3p( 0.01)
      C 11      [core]2s( 0.98)2p( 3.21)3p( 0.01)
      C 12      [core]2s( 0.97)2p( 3.23)3p( 0.01)
      H 13            1s( 0.77)
      H 14            1s( 0.78)
      H 15            1s( 0.79)
      H 16            1s( 0.79)
      H 17            1s( 0.77)
      H 18            1s( 0.78)
      H 19            1s( 0.50)
      H 20            1s( 0.78)
      H 21            1s( 0.78)
      H 22            1s( 0.78)
      H 23            1s( 0.79)
      H 24            1s( 0.78)


 NATURAL BOND ORBITAL ANALYSIS:

                            Occupancies       Lewis Structure    Low   High
         Max    Occ     -------------------  -----------------   occ   occ
  Cycle  Ctr   Thresh    Lewis   non-Lewis     CR  BD  nC  LP    (L)   (NL)
 ============================================================================
    1     2     1.90    82.89502   5.10498     12  25   0   7     5      7
    2     2     1.85    83.77344   4.22656     12  25   0   7     4      5
    3     2     1.83    84.20807   3.79193     12  25   0   7     3      4
    4     2     1.67    85.54434   2.45566     12  27   0   5     1      4
    5     2     1.66    86.20708   1.79292     12  28   0   4     0      4
    6     2     1.65    86.20708   1.79292     12  28   0   4     0      4
    7     2     1.64    86.20708   1.79292     12  28   0   4     0      4
    8     2     1.52    86.20708   1.79292     12  28   0   4     0      4
    9     2     1.66    86.20708   1.79292     12  28   0   4     0      4
 ----------------------------------------------------------------------------

 Structure accepted: No low occupancy Lewis orbitals

 -------------------------------------------------------
   Core                     23.99991 (100.000% of  24)
   Valence Lewis            62.20717 ( 97.199% of  64)
  ==================      =============================
   Total Lewis              86.20708 ( 97.963% of  88)
  -----------------------------------------------------
   Valence non-Lewis         1.66124 (  1.888% of  88)
   Rydberg non-Lewis         0.13168 (  0.150% of  88)
  ==================      =============================
   Total non-Lewis           1.79292 (  2.037% of  88)
 -------------------------------------------------------


     (Occupancy)   Bond orbital / Coefficients / Hybrids
 ------------------ Lewis ------------------------------------------------------
   1. (1.99999) CR ( 1) C  1            s(100.00%)
                                         1.0000  0.0000  0.0000  0.0000  0.0000
                                         0.0000  0.0000  0.0000  0.0000  0.0000
                                         0.0000  0.0000  0.0000  0.0000  0.0000
                                         0.0000  0.0000  0.0000  0.0000  0.0000
                                         0.0000  0.0000  0.0000  0.0000  0.0000
                                         0.0000  0.0000  0.0000  0.0000  0.0000
                                         0.0000
   2. (1.99999) CR ( 1) C  2            s(100.00%)
                                         1.0000  0.0000  0.0000  0.0000  0.0000
[...]
  121. RY (23) C  2             0.00000     4.38760
  122. RY (24) C  2             0.00000     4.76440
  123. RY (25) C  2             0.00000     3.65715
  124. RY (26) C  2             0.00000     3.48464
  125. RY ( 1) C  3             0.00164     1.04978
  126. RY ( 2) C  3             0.00126     1.13907
  127. RY ( 3) C  3             0.00043     1.80589
  128. RY ( 4) C  3             0.00023     1.72762
  129. RY ( 5) C  3             0.00014     1.62818
  130. RY ( 6) C  3             0.00012     1.53905
  131. RY ( 7) C  3             0.00008     1.37741
  132. RY ( 8) C  3             0.00006     1.89026
  133. RY ( 9) C  3             0.00004     2.79535
  134. RY (10) C  3             0.00002     2.64575
  135. RY (11) C  3             0.00002     2.67600
  136. RY (12) C  3             0.00001     2.19544
  137. RY (13) C  3             0.00001     2.34176
  138. RY (14) C  3             0.00000     2.75222
  139. RY (15) C  3             0.00000     2.52109
  140. RY (16) C  3             0.00000     1.97092
  141. RY (17) C  3             0.00000     3.18307
  142. RY (18) C  3             0.00000     8.42887
  143. RY (19) C  3             0.00000     4.46153
  144. RY (20) C  3             0.00000     4.02088
  145. RY (21) C  3             0.00000     4.59275
  146. RY (22) C  3             0.00000     3.94310
  147. RY (23) C  3             0.00000    11.00953
  148. RY (24) C  3             0.00000     2.97886
  149. RY (25) C  3             0.00000     3.60693
  150. RY (26) C  3             0.00000     3.73715
  151. RY ( 1) C  4             0.01737     1.30191
  152. RY ( 2) C  4             0.00664     1.77682
  153. RY ( 3) C  4             0.00334     2.13103
  154. RY ( 4) C  4             0.00225     2.76654
  155. RY ( 5) C  4             0.00150     1.19112
  156. RY ( 6) C  4             0.00071     3.14375
  157. RY ( 7) C  4             0.00060     2.52058
  158. RY ( 8) C  4             0.00020     1.87186
  159. RY ( 9) C  4             0.00018     1.88672
  160. RY (10) C  4             0.00009     2.35878
  161. RY (11) C  4             0.00005     1.62676
  162. RY (12) C  4             0.00004     3.04425
  163. RY (13) C  4             0.00004     2.05124
  164. RY (14) C  4             0.00003     2.67093
  165. RY (15) C  4             0.00002     2.15178
  166. RY (16) C  4             0.00001     4.41282
  167. RY (17) C  4             0.00001     2.94326
  168. RY (18) C  4             0.00000     2.59237
  169. RY (19) C  4             0.00000     5.72811
  170. RY (20) C  4             0.00000     4.19539
  171. RY (21) C  4             0.00000     6.62795
  172. RY (22) C  4             0.00000     3.13143
  173. RY (23) C  4             0.00000     6.11110
  174. RY (24) C  4             0.00000     3.77854
  175. RY (25) C  4             0.00000     8.12319
  176. RY (26) C  4             0.00000     4.75963
  177. RY ( 1) O  5             0.00264     1.03046
  178. RY ( 2) O  5             0.00080     1.03215
  179. RY ( 3) O  5             0.00032     1.47056
  180. RY ( 4) O  5             0.00017     2.61946
  181. RY ( 5) O  5             0.00006     2.08102
  182. RY ( 6) O  5             0.00005     3.17973
  183. RY ( 7) O  5             0.00004     2.36039
  184. RY ( 8) O  5             0.00001     3.49174
  185. RY ( 9) O  5             0.00001     3.36146
  186. RY (10) O  5             0.00001     2.26458
  187. RY (11) O  5             0.00000     5.05329
  188. RY (12) O  5             0.00000     8.63471
  189. RY (13) O  5             0.00000    21.38665
  190. RY (14) O  5             0.00000     6.39674
  191. RY (15) O  5             0.00000     7.63684
  192. RY (16) O  5             0.00000     3.72100
  193. RY (17) O  5             0.00000     3.11095
  194. RY (18) O  5             0.00000    15.27878
  195. RY (19) O  5             0.00000     6.12739
  196. RY (20) O  5             0.00000     5.32087
  197. RY (21) O  5             0.00000     5.54961
  198. RY (22) O  5             0.00000     9.55240
  199. RY (23) O  5             0.00000     5.28937
  200. RY (24) O  5             0.00000     5.57121
  201. RY (25) O  5             0.00000     5.90291
  202. RY (26) O  5             0.00000     5.51440
  203. RY ( 1) O  6             0.00129     0.77392
  204. RY ( 2) O  6             0.00096     1.22672
  205. RY ( 3) O  6             0.00070     2.78455
  206. RY ( 4) O  6             0.00016     1.52308
  207. RY ( 5) O  6             0.00011     1.90973
  208. RY ( 6) O  6             0.00005     1.88881
  209. RY ( 7) O  6             0.00003     3.64683
  210. RY ( 8) O  6             0.00002     2.35374
  211. RY ( 9) O  6             0.00001     2.98462
  212. RY (10) O  6             0.00001     2.22375
  213. RY (11) O  6             0.00000     3.76743
  214. RY (12) O  6             0.00000     3.65420
  215. RY (13) O  6             0.00000     4.13702
  216. RY (14) O  6             0.00000     7.16422
  217. RY (15) O  6             0.00000    14.97163
  218. RY (16) O  6             0.00000     5.54636
  219. RY (17) O  6             0.00000     6.26178
  220. RY (18) O  6             0.00000     6.99028
  221. RY (19) O  6             0.00000     6.45827
  222. RY (20) O  6             0.00000     5.26901
  223. RY (21) O  6             0.00000    13.84308
  224. RY (22) O  6             0.00000    17.76976
  225. RY (23) O  6             0.00000     5.92736
  226. RY (24) O  6             0.00000     6.37966
  227. RY (25) O  6             0.00000     5.98531
  228. RY (26) O  6             0.00000     6.56671
  229. RY ( 1) C  7             0.00693     1.39413
  230. RY ( 2) C  7             0.00284     0.95475
  231. RY ( 3) C  7             0.00215     1.20838
  232. RY ( 4) C  7             0.00119     1.16155
  233. RY ( 5) C  7             0.00044     3.55942
  234. RY ( 6) C  7             0.00041     3.18962
  235. RY ( 7) C  7             0.00036     2.89236
  236. RY ( 8) C  7             0.00026     2.95834
  237. RY ( 9) C  7             0.00017     1.89722
  238. RY (10) C  7             0.00014     2.62399
  239. RY (11) C  7             0.00012     2.23067
  240. RY (12) C  7             0.00008     2.52759
  241. RY (13) C  7             0.00005     3.11558
  242. RY (14) C  7             0.00004     2.57794
  243. RY (15) C  7             0.00003     3.02583
  244. RY (16) C  7             0.00002     2.78609
  245. RY (17) C  7             0.00001     3.32463
  246. RY (18) C  7             0.00001     3.63382
  247. RY (19) C  7             0.00001     3.10503
  248. RY (20) C  7             0.00000     3.40858
  249. RY (21) C  7             0.00000     3.72265
  250. RY (22) C  7             0.00000     3.80150
  251. RY (23) C  7             0.00000     4.95029
  252. RY (24) C  7             0.00000     3.49230
  253. RY (25) C  7             0.00000     3.50526
  254. RY (26) C  7             0.00000    17.84943
  255. RY ( 1) C  8             0.00492     1.49287
  256. RY ( 2) C  8             0.00152     0.67296
  257. RY ( 3) C  8             0.00113     1.32108
  258. RY ( 4) C  8             0.00070     1.30169
  259. RY ( 5) C  8             0.00033     3.01508
  260. RY ( 6) C  8             0.00032     3.10216
  261. RY ( 7) C  8             0.00015     1.99664
  262. RY ( 8) C  8             0.00007     2.02165
  263. RY ( 9) C  8             0.00006     2.96849
  264. RY (10) C  8             0.00005     1.92920
  265. RY (11) C  8             0.00003     1.95257
  266. RY (12) C  8             0.00002     1.97707
  267. RY (13) C  8             0.00001     2.53422
  268. RY (14) C  8             0.00001     3.38786
  269. RY (15) C  8             0.00001     2.54298
  270. RY (16) C  8             0.00001     3.06952
  271. RY (17) C  8             0.00000     2.89870
  272. RY (18) C  8             0.00000     3.66902
  273. RY (19) C  8             0.00000     5.94974
  274. RY (20) C  8             0.00000    13.10850
  275. RY (21) C  8             0.00000     3.56049
  276. RY (22) C  8             0.00000     3.40470
  277. RY (23) C  8             0.00000     4.57440
  278. RY (24) C  8             0.00000     2.88082
  279. RY (25) C  8             0.00000     3.19820
  280. RY (26) C  8             0.00000     5.45682
  281. RY ( 1) C  9             0.00465     1.52778
  282. RY ( 2) C  9             0.00140     1.33047
  283. RY ( 3) C  9             0.00125     0.56981
  284. RY ( 4) C  9             0.00053     1.33385
  285. RY ( 5) C  9             0.00033     2.93018
  286. RY ( 6) C  9             0.00028     3.35559
  287. RY ( 7) C  9             0.00009     2.48211
  288. RY ( 8) C  9             0.00003     2.09384
  289. RY ( 9) C  9             0.00002     1.83155
  290. RY (10) C  9             0.00001     2.84228
  291. RY (11) C  9             0.00001     2.37367
  292. RY (12) C  9             0.00001     2.75566
  293. RY (13) C  9             0.00000     2.95700
  294. RY (14) C  9             0.00000     1.89040
  295. RY (15) C  9             0.00000     3.90747
  296. RY (16) C  9             0.00000     3.05598
  297. RY (17) C  9             0.00000     2.83621
  298. RY (18) C  9             0.00000     3.72558
  299. RY (19) C  9             0.00000     6.89250
  300. RY (20) C  9             0.00000     6.08948
  301. RY (21) C  9             0.00000     3.63078
  302. RY (22) C  9             0.00000     2.07994
  303. RY (23) C  9             0.00000     3.19055
  304. RY (24) C  9             0.00000    10.04898
  305. RY (25) C  9             0.00000     3.51502
  306. RY (26) C  9             0.00000     3.93137
  307. RY ( 1) C 10             0.00441     1.56758
  308. RY ( 2) C 10             0.00134     0.52516
  309. RY ( 3) C 10             0.00126     1.42943
  310. RY ( 4) C 10             0.00049     1.21194
  311. RY ( 5) C 10             0.00031     2.99078
  312. RY ( 6) C 10             0.00030     3.27082
  313. RY ( 7) C 10             0.00009     2.35365
  314. RY ( 8) C 10             0.00003     1.48232
  315. RY ( 9) C 10             0.00001     3.35740
  316. RY (10) C 10             0.00001     2.70303
  317. RY (11) C 10             0.00000     2.75426
  318. RY (12) C 10             0.00000     2.34247
  319. RY (13) C 10             0.00000     4.58814
  320. RY (14) C 10             0.00000     2.51007
  321. RY (15) C 10             0.00000     3.45000
  322. RY (16) C 10             0.00000     3.91015
  323. RY (17) C 10             0.00000     6.69950
  324. RY (18) C 10             0.00000     2.24946
  325. RY (19) C 10             0.00000     5.36691
  326. RY (20) C 10             0.00000     3.79006
  327. RY (21) C 10             0.00000     2.73637
  328. RY (22) C 10             0.00000     7.65520
  329. RY (23) C 10             0.00000     3.20461
  330. RY (24) C 10             0.00000     3.35404
  331. RY (25) C 10             0.00000     3.83566
  332. RY (26) C 10             0.00000     3.44873
  333. RY ( 1) C 11             0.00463     1.52731
  334. RY ( 2) C 11             0.00140     1.30875
  335. RY ( 3) C 11             0.00129     0.56330
  336. RY ( 4) C 11             0.00055     1.31799
  337. RY ( 5) C 11             0.00033     3.01344
  338. RY ( 6) C 11             0.00028     3.33740
  339. RY ( 7) C 11             0.00008     2.53385
  340. RY ( 8) C 11             0.00003     2.33873
  341. RY ( 9) C 11             0.00001     1.20361
  342. RY (10) C 11             0.00001     2.71896
  343. RY (11) C 11             0.00001     3.32650
  344. RY (12) C 11             0.00001     2.58466
  345. RY (13) C 11             0.00000     2.95220
  346. RY (14) C 11             0.00000     2.52752
  347. RY (15) C 11             0.00000     2.76606
  348. RY (16) C 11             0.00000     4.31272
  349. RY (17) C 11             0.00000    11.85934
  350. RY (18) C 11             0.00000     2.43275
  351. RY (19) C 11             0.00000     2.53886
  352. RY (20) C 11             0.00000     6.01101
  353. RY (21) C 11             0.00000     3.22704
  354. RY (22) C 11             0.00000     3.24730
  355. RY (23) C 11             0.00000     4.36690
  356. RY (24) C 11             0.00000     3.58637
  357. RY (25) C 11             0.00000     3.26210
  358. RY (26) C 11             0.00000     4.13471
  359. RY ( 1) C 12             0.00464     1.54006
  360. RY ( 2) C 12             0.00160     0.59843
  361. RY ( 3) C 12             0.00117     1.44896
  362. RY ( 4) C 12             0.00068     1.43959
  363. RY ( 5) C 12             0.00032     2.89266
  364. RY ( 6) C 12             0.00029     3.37076
  365. RY ( 7) C 12             0.00016     2.14797
  366. RY ( 8) C 12             0.00008     1.76158
  367. RY ( 9) C 12             0.00005     2.03362
  368. RY (10) C 12             0.00003     2.96190
  369. RY (11) C 12             0.00002     1.80011
  370. RY (12) C 12             0.00002     1.92098
  371. RY (13) C 12             0.00001     3.07145
  372. RY (14) C 12             0.00001     4.13008
  373. RY (15) C 12             0.00001     2.28176
  374. RY (16) C 12             0.00000     3.05740
  375. RY (17) C 12             0.00000     3.55902
  376. RY (18) C 12             0.00000     4.42022
  377. RY (19) C 12             0.00000    12.03683
  378. RY (20) C 12             0.00000     3.78592
  379. RY (21) C 12             0.00000     4.11221
  380. RY (22) C 12             0.00000     3.12306
  381. RY (23) C 12             0.00000     2.28723
  382. RY (24) C 12             0.00000     3.30689
  383. RY (25) C 12             0.00000     3.63365
  384. RY (26) C 12             0.00000     7.32955
  385. RY ( 1) H 13             0.00037     0.75305
  386. RY ( 2) H 13             0.00006     2.15350
  387. RY ( 3) H 13             0.00004     2.34739
  388. RY ( 4) H 13             0.00002     2.21167
  389. RY ( 5) H 13             0.00001     2.57389
  390. RY ( 1) H 14             0.00034     0.88160
  391. RY ( 2) H 14             0.00005     2.23756
  392. RY ( 3) H 14             0.00004     2.24248
  393. RY ( 4) H 14             0.00003     2.18025
  394. RY ( 5) H 14             0.00000     2.35950
  395. RY ( 1) H 15             0.00056     0.79593
  396. RY ( 2) H 15             0.00007     2.10685
  397. RY ( 3) H 15             0.00005     2.32740
  398. RY ( 4) H 15             0.00003     2.21416
  399. RY ( 5) H 15             0.00000     2.57527
  400. RY ( 1) H 16             0.00039     0.92969
  401. RY ( 2) H 16             0.00006     2.16911
  402. RY ( 3) H 16             0.00003     2.25833
  403. RY ( 4) H 16             0.00002     2.18891
  404. RY ( 5) H 16             0.00000     2.37349
  405. RY ( 1) H 17             0.00032     0.89785
  406. RY ( 2) H 17             0.00006     2.26647
  407. RY ( 3) H 17             0.00004     2.21358
  408. RY ( 4) H 17             0.00002     2.18788
  409. RY ( 5) H 17             0.00001     2.48250
  410. RY ( 1) H 18             0.00045     0.76747
  411. RY ( 2) H 18             0.00006     2.26955
  412. RY ( 3) H 18             0.00004     2.25662
  413. RY ( 4) H 18             0.00002     2.20512
  414. RY ( 5) H 18             0.00000     2.44871
  415. RY ( 1) H 19             0.00206     0.63471
  416. RY ( 2) H 19             0.00063     1.97645
  417. RY ( 3) H 19             0.00052     1.88180
  418. RY ( 4) H 19             0.00011     2.21732
  419. RY ( 5) H 19             0.00001     3.36865
  420. RY ( 1) H 20             0.00065     0.84686
  421. RY ( 2) H 20             0.00012     1.95153
  422. RY ( 3) H 20             0.00008     2.15565
  423. RY ( 4) H 20             0.00004     2.52696
  424. RY ( 5) H 20             0.00001     2.95837
  425. RY ( 1) H 21             0.00036     0.57972
  426. RY ( 2) H 21             0.00010     2.04624
  427. RY ( 3) H 21             0.00007     2.14516
  428. RY ( 4) H 21             0.00003     2.50244
  429. RY ( 5) H 21             0.00001     2.92410
  430. RY ( 1) H 22             0.00031     0.60230
  431. RY ( 2) H 22             0.00009     2.02238
  432. RY ( 3) H 22             0.00007     2.14542
  433. RY ( 4) H 22             0.00003     2.49185
  434. RY ( 5) H 22             0.00000     2.92144
  435. RY ( 1) H 23             0.00036     0.58522
  436. RY ( 2) H 23             0.00009     2.04535
  437. RY ( 3) H 23             0.00007     2.14315
  438. RY ( 4) H 23             0.00003     2.50080
  439. RY ( 5) H 23             0.00001     2.92038
  440. RY ( 1) H 24             0.00054     0.78789
  441. RY ( 2) H 24             0.00009     2.00386
  442. RY ( 3) H 24             0.00009     2.12875
  443. RY ( 4) H 24             0.00005     2.52950
  444. RY ( 5) H 24             0.00001     2.96012
          -------------------------------
                 Total Lewis   86.20708  ( 97.9626%)
           Valence non-Lewis    1.66124  (  1.8878%)
           Rydberg non-Lewis    0.13168  (  0.1496%)
          -------------------------------
               Total unit  1   88.00000  (100.0000%)
              Charge unit  1    0.00000

 $CHOOSE
   LONE 5 2 6 2 END
   BOND S 1 2 S 1 13 S 1 14 S 1 15 S 2 3 S 2 4 S 2 7 S 3 16 S 3 17 S 3 18 D 4 5
        S 4 6 S 6 19 S 7 8 D 7 12 D 8 9 S 8 20 S 9 10 S 9 21 D 10 11 S 10 22
        S 11 12 S 11 23 S 12 24 END
 $END

 NBO analysis completed in 4.86 CPU seconds (5 wall seconds)
 Maximum scratch memory used by NBO was 2121758 words (16.19 MB)
 Maximum scratch memory used by G16NBO was 307250 words (2.34 MB)

 Opening RunExU unformatted file "/tmp/Gau-1602388.EUF"
 Read unf file /tmp/Gau-1602388.EUF:
 Label Gaussian matrix elements                                         IVers= 2 NLab= 2 Version=AS64L-G16RevC.01
 Title Ac5_rdkit_conf_1_SP_charge                                      
 NAtoms=    24 NBasis=   444 NBsUse=   444 ICharg=     0 Multip=     1 NE=    88 Len12L=8 Len4L=8 IOpCl= 0 ICGU=111
 GAUSSIAN SCALARS                    NI= 1 NR= 1 NTot=       1 LenBuf=    2 NRI=1 N=    1000
 NPA CHARGES                         NI= 0 NR= 1 NTot=      24 LenBuf= 2048 NRI=1 N=      24
 Recovered energy= -538.740269123     dipole=     -0.316781421503      0.452339939268     -0.292556683858
 Unable to Open any file for archive entry.
 1\1\GINC-NODE16\SP\RM062X\def2TZVP\C10H12O2\SVSS\29-Jan-2024\0\\# pop=
 (nbo6, hirshfeld) m062x/def2tzvp\\Ac5_rdkit_conf_1_SP_charge\\0,1\C,0,
 1.445774,1.868346,-0.147332\C,0,1.018036,0.488372,0.359351\C,0,1.35911
 4,0.357563,1.846028\C,0,1.7872,-0.57543,-0.414733\O,0,2.393442,-1.4900
 01,0.070178\O,0,1.708298,-0.395033,-1.745249\C,0,-0.471014,0.20573,0.1
 49105\C,0,-0.957725,-1.075979,0.40982\C,0,-2.303265,-1.370148,0.264857
 \C,0,-3.192664,-0.382782,-0.140127\C,0,-2.720142,0.892569,-0.402395\C,
 0,-1.3679,1.184106,-0.26285\H,0,1.181444,2.014928,-1.192931\H,0,2.5263
 07,1.978824,-0.046864\H,0,0.974189,2.64689,0.453035\H,0,0.784292,1.091
 806,2.410968\H,0,1.122069,-0.636552,2.219158\H,0,2.422554,0.53426,2.01
 0116\H,0,2.190992,-1.123889,-2.160395\H,0,-0.270226,-1.853425,0.725102
 \H,0,-2.659058,-2.371998,0.467975\H,0,-4.244851,-0.609119,-0.252538\H,
 0,-3.403114,1.669227,-0.721878\H,0,-1.023002,2.185234,-0.481523\\Versi
 on=AS64L-G16RevC.01\State=1-A\HF=-538.7402691\RMSD=5.203e-09\Dipole=-0
 .3167814,0.4523399,-0.2925567\Quadrupole=0.31302,0.7967476,-1.1097677,
 2.7608921,-1.8374042,1.4315133\PG=C01 [X(C10H12O2)]\\@
 The archive entry for this job was punched.


 IT IS DOUBTED WHETHER A MAN EVER BRINGS HIS FACULTIES TO BEAR WITH THEIR FULL FORCE
 ON A SUBJECT UNTIL HE WRITES UPON IT.

                          -- CICERO
 Job cpu time:       0 days  0 hours 22 minutes 42.1 seconds.
 Elapsed time:       0 days  0 hours  2 minutes 59.7 seconds.
 File lengths (MBytes):  RWF=    109 Int=      0 D2E=      0 Chk=     11 Scr=      1
 Normal termination of Gaussian 16 at Mon Jan 29 15:14:05 2024.
