 Entering Gaussian System, Link 0=/usr/local/Gaussian/G16C/g16/g16
 Input=arbr31_wb97xd_red.com
 Output=arbr31_wb97xd_red.log
 Initial command:
 /usr/local/Gaussian/G16C/g16/l1.exe "/home/rpaton/arbr500/tzvp/fukui/Gau-2229148.inp" -scrdir="/home/rpaton/arbr500/tzvp/fukui/"
 Entering Link 1 = /usr/local/Gaussian/G16C/g16/l1.exe PID=   2229149.
  
 Copyright (c) 1988-2019, Gaussian, Inc.  All Rights Reserved.
  
 This is part of the Gaussian(R) 16 program.  It is based on
 the Gaussian(R) 09 system (copyright 2009, Gaussian, Inc.),
 the Gaussian(R) 03 system (copyright 2003, Gaussian, Inc.),
 the Gaussian(R) 98 system (copyright 1998, Gaussian, Inc.),
 the Gaussian(R) 94 system (copyright 1995, Gaussian, Inc.),
 the Gaussian 92(TM) system (copyright 1992, Gaussian, Inc.),
 the Gaussian 90(TM) system (copyright 1990, Gaussian, Inc.),
 the Gaussian 88(TM) system (copyright 1988, Gaussian, Inc.),
 the Gaussian 86(TM) system (copyright 1986, Carnegie Mellon
 University), and the Gaussian 82(TM) system (copyright 1983,
 Carnegie Mellon University). Gaussian is a federally registered
 trademark of Gaussian, Inc.
  
 This software contains proprietary and confidential information,
 including trade secrets, belonging to Gaussian, Inc.
  
 This software is provided under written license and may be
 used, copied, transmitted, or stored only in accord with that
 written license.
  
 The following legend is applicable only to US Government
 contracts under FAR:
  
                    RESTRICTED RIGHTS LEGEND
  
 Use, reproduction and disclosure by the US Government is
 subject to restrictions as set forth in subparagraphs (a)
 and (c) of the Commercial Computer Software - Restricted
 Rights clause in FAR 52.227-19.
  
 Gaussian, Inc.
 340 Quinnipiac St., Bldg. 40, Wallingford CT 06492
  
  
 ---------------------------------------------------------------
 Warning -- This program may not be used in any manner that
 competes with the business of Gaussian, Inc. or will provide
 assistance to any competitor of Gaussian, Inc.  The licensee
 of this program is prohibited from giving any competitor of
 Gaussian, Inc. access to this program.  By using this program,
 the user acknowledges that Gaussian, Inc. is engaged in the
 business of creating and licensing software in the field of
 computational chemistry and represents and warrants to the
 licensee that it is not a competitor of Gaussian, Inc. and that
 it will not use this program in any manner prohibited above.
 ---------------------------------------------------------------
  

 Cite this work as:
 Gaussian 16, Revision C.01,
 M. J. Frisch, G. W. Trucks, H. B. Schlegel, G. E. Scuseria, 
 M. A. Robb, J. R. Cheeseman, G. Scalmani, V. Barone, 
 G. A. Petersson, H. Nakatsuji, X. Li, M. Caricato, A. V. Marenich, 
 J. Bloino, B. G. Janesko, R. Gomperts, B. Mennucci, H. P. Hratchian, 
 J. V. Ortiz, A. F. Izmaylov, J. L. Sonnenberg, D. Williams-Young, 
 F. Ding, F. Lipparini, F. Egidi, J. Goings, B. Peng, A. Petrone, 
 T. Henderson, D. Ranasinghe, V. G. Zakrzewski, J. Gao, N. Rega, 
 G. Zheng, W. Liang, M. Hada, M. Ehara, K. Toyota, R. Fukuda, 
 J. Hasegawa, M. Ishida, T. Nakajima, Y. Honda, O. Kitao, H. Nakai, 
 T. Vreven, K. Throssell, J. A. Montgomery, Jr., J. E. Peralta, 
 F. Ogliaro, M. J. Bearpark, J. J. Heyd, E. N. Brothers, K. N. Kudin, 
 V. N. Staroverov, T. A. Keith, R. Kobayashi, J. Normand, 
 K. Raghavachari, A. P. Rendell, J. C. Burant, S. S. Iyengar, 
 J. Tomasi, M. Cossi, J. M. Millam, M. Klene, C. Adamo, R. Cammi, 
 J. W. Ochterski, R. L. Martin, K. Morokuma, O. Farkas, 
 J. B. Foresman, and D. J. Fox, Gaussian, Inc., Wallingford CT, 2019.
 
 ******************************************
 Gaussian 16:  ES64L-G16RevC.01  3-Jul-2019
                28-Sep-2024 
 ******************************************
 %chk=arbr31_wb97xd_red.chk
 %mem=48GB
 %nprocshared=24
 Will use up to   24 processors via shared memory.
 --------------------------------------
 # pop=(nbo6,hirshfeld) wb97xd/def2tzvp
 --------------------------------------
 1/38=1,172=1/1;
 2/12=2,17=6,18=5,40=1/2;
 3/5=44,7=101,11=2,25=1,30=1,74=-58/1,2,3;
 4//1;
 5/5=2,38=5/2;
 6/7=2,8=2,9=2,10=2,28=1,40=1,79=1,113=1,114=1,124=3103,126=1/1,12;
 99/5=1,9=1/99;
 ----------------------------------------
 arbr31_wb97xd_redcreated by GaussianPrep
 ----------------------------------------
 Symbolic Z-matrix:
 Charge = -1 Multiplicity = 2
 O                     3.842     1.384     0.00003 
 C                     3.08848   0.44624  -0.00009 
 C                     3.48902  -1.02756   0.00006 
 C                     2.18014  -1.83323  -0.00001 
 C                     1.09104  -0.78908  -0.00003 
 C                    -0.2815   -0.98604  -0.00003 
 C                    -1.09583   0.13399  -0.00001 
 Br                   -2.97456  -0.09935   0.00001 
 C                    -0.58198   1.4302    0.00001 
 C                     0.78695   1.61344  0. 
 C                     1.60916   0.49545  -0.00003 
 H                     4.109    -1.22112  -0.87592 
 H                     4.10883  -1.22101   0.87619 
 H                     2.09466  -2.47798   0.87629 
 H                     2.09472  -2.47795  -0.87634 
 H                    -0.71127  -1.97907  -0.00002 
 H                    -1.25518   2.27598   0.00002 
 H                     1.2198    2.6059   -0.00001 
 
                          Input orientation:                          
 ---------------------------------------------------------------------
 Center     Atomic      Atomic             Coordinates (Angstroms)
 Number     Number       Type             X           Y           Z
 ---------------------------------------------------------------------
      1          8           0        3.842002    1.383999    0.000033
      2          6           0        3.088480    0.446236   -0.000090
      3          6           0        3.489015   -1.027561    0.000060
      4          6           0        2.180142   -1.833225   -0.000010
      5          6           0        1.091039   -0.789083   -0.000029
      6          6           0       -0.281500   -0.986043   -0.000025
      7          6           0       -1.095831    0.133992   -0.000008
      8         35           0       -2.974557   -0.099347    0.000008
      9          6           0       -0.581978    1.430198    0.000006
     10          6           0        0.786953    1.613436   -0.000002
     11          6           0        1.609162    0.495450   -0.000029
     12          1           0        4.108998   -1.221119   -0.875923
     13          1           0        4.108832   -1.221011    0.876186
     14          1           0        2.094657   -2.477980    0.876290
     15          1           0        2.094724   -2.477951   -0.876338
     16          1           0       -0.711268   -1.979071   -0.000022
     17          1           0       -1.255175    2.275983    0.000019
     18          1           0        1.219802    2.605898   -0.000006
 ---------------------------------------------------------------------
                    Distance matrix (angstroms):
                    1          2          3          4          5
     1  O    0.000000
     2  C    1.202994   0.000000
     3  C    2.437257   1.527254   0.000000
     4  C    3.621092   2.453777   1.536959   0.000000
     5  C    3.505721   2.348571   2.409805   1.508767   0.000000
     6  C    4.756087   3.661719   3.770744   2.603344   1.386599
     7  C    5.093595   4.195945   4.729695   3.821249   2.373703
     8  Br   6.976087   6.087535   6.529881   5.438497   4.123688
     9  C    4.424221   3.800058   4.755372   4.275422   2.779243
    10  C    3.063652   2.580578   3.778360   3.717586   2.421687
    11  C    2.403142   1.480136   2.419382   2.397654   1.385091
    12  H    2.761381   2.142105   1.090500   2.205081   3.172053
    13  H    2.761326   2.142123   1.090501   2.205078   3.171969
    14  H    4.328501   3.210415   2.194477   1.091292   2.151176
    15  H    4.328471   3.210332   2.194482   1.091292   2.151180
    16  H    5.660610   4.507793   4.306710   2.895086   2.159718
    17  H    5.174635   4.713312   5.781068   5.356024   3.859968
    18  H    2.892917   2.855888   4.283848   4.541813   3.397422
                    6          7          8          9         10
     6  C    0.000000
     7  C    1.384779   0.000000
     8  Br   2.835275   1.893161   0.000000
     9  C    2.434853   1.394344   2.839708   0.000000
    10  C    2.810495   2.394500   4.133108   1.381140   0.000000
    11  C    2.401963   2.729036   4.622149   2.382194   1.387775
    12  H    4.483183   5.449202   7.225121   5.459120   4.453978
    13  H    4.483076   5.449061   7.224972   5.458965   4.453838
    14  H    2.939375   4.215390   5.667689   4.817271   4.383795
    15  H    2.939414   4.215429   5.667746   4.817296   4.383797
    16  H    1.082037   2.147772   2.942081   3.411720   3.892399
    17  H    3.404241   2.147910   2.932314   1.080993   2.146918
    18  H    3.893064   3.387104   4.991092   2.151437   1.082746
                   11         12         13         14         15
    11  C    0.000000
    12  H    3.156419   0.000000
    13  H    3.156318   1.752109   0.000000
    14  H    3.137663   2.950851   2.374210   0.000000
    15  H    3.137643   2.374221   2.950910   1.752628   0.000000
    16  H    3.392293   4.957485   4.957394   2.981618   2.981678
    17  H    3.372644   6.463076   6.462910   5.881274   5.881302
    18  H    2.146064   4.874499   4.874366   5.232502   5.232491
                   16         17         18
    16  H    0.000000
    17  H    4.289676   0.000000
    18  H    4.975035   2.496869   0.000000
 Stoichiometry    C9H7BrO(1-,2)
 Framework group  C1[X(C9H7BrO)]
 Deg. of freedom    48
 Full point group                 C1      NOp   1
 Largest Abelian subgroup         C1      NOp   1
 Largest concise Abelian subgroup C1      NOp   1
                         Standard orientation:                         
 ---------------------------------------------------------------------
 Center     Atomic      Atomic             Coordinates (Angstroms)
 Number     Number       Type             X           Y           Z
 ---------------------------------------------------------------------
      1          8           0        3.842002    1.383999    0.000033
      2          6           0        3.088480    0.446236   -0.000090
      3          6           0        3.489015   -1.027561    0.000060
      4          6           0        2.180142   -1.833225   -0.000010
      5          6           0        1.091039   -0.789083   -0.000029
      6          6           0       -0.281500   -0.986043   -0.000025
      7          6           0       -1.095831    0.133992   -0.000008
      8         35           0       -2.974557   -0.099347    0.000008
      9          6           0       -0.581978    1.430198    0.000006
     10          6           0        0.786953    1.613436   -0.000002
     11          6           0        1.609162    0.495450   -0.000029
     12          1           0        4.108998   -1.221119   -0.875923
     13          1           0        4.108832   -1.221011    0.876186
     14          1           0        2.094657   -2.477980    0.876290
     15          1           0        2.094724   -2.477951   -0.876338
     16          1           0       -0.711268   -1.979071   -0.000022
     17          1           0       -1.255175    2.275983    0.000019
     18          1           0        1.219802    2.605898   -0.000006
 ---------------------------------------------------------------------
 Rotational constants (GHZ):           2.5407365           0.3696408           0.3239739
 Standard basis: def2TZVP (5D, 7F)
 There are   457 symmetry adapted cartesian basis functions of A   symmetry.
 There are   400 symmetry adapted basis functions of A   symmetry.
   400 basis functions,   680 primitive gaussians,   457 cartesian basis functions
    53 alpha electrons       52 beta electrons
       nuclear repulsion energy       790.1454809061 Hartrees.
 NAtoms=   18 NActive=   18 NUniq=   18 SFac= 1.00D+00 NAtFMM=   60 NAOKFM=F Big=F
 Integral buffers will be    131072 words long.
 Raffenetti 2 integral format.
 Two-electron integral symmetry is turned on.
 Nuclear repulsion after empirical dispersion term =      790.1350158738 Hartrees.
 One-electron integrals computed using PRISM.
   1 Symmetry operations used in ECPInt.
 ECPInt:  NShTT=   11935 NPrTT=   39928 LenC2=   11330 LenP2D=   28618.
 LDataN:  DoStor=T MaxTD1= 6 Len=  172
 NBasis=   400 RedAO= T EigKep=  6.19D-06  NBF=   400
 NBsUse=   400 1.00D-06 EigRej= -1.00D+00 NBFU=   400
 ExpMin= 9.52D-02 ExpMax= 5.65D+05 ExpMxC= 5.46D+03 IAcc=3 IRadAn=         5 AccDes= 0.00D+00
 Harris functional with IExCor= 4639 and IRadAn=       5 diagonalized for initial guess.
 HarFok:  IExCor= 4639 AccDes= 0.00D+00 IRadAn=         5 IDoV= 1 UseB2=F ITyADJ=14
 ICtDFT=  3500011 ScaDFX=  1.000000  1.000000  1.000000  1.000000
 FoFCou: FMM=F IPFlag=           0 FMFlag=      100000 FMFlg1=           0
         NFxFlg=           0 DoJE=T BraDBF=F KetDBF=T FulRan=T
         wScrn=  0.000000 ICntrl=       500 IOpCl=  0 I1Cent=   200000004 NGrid=           0
         NMat0=    1 NMatS0=      1 NMatT0=    0 NMatD0=    1 NMtDS0=    0 NMtDT0=    0
 Petite list used in FoFCou.
 Initial guess <Sx>= 0.0000 <Sy>= 0.0000 <Sz>= 0.5000 <S**2>= 0.7500 S= 0.5000
 Requested convergence on RMS density matrix=1.00D-08 within 128 cycles.
 Requested convergence on MAX density matrix=1.00D-06.
 Requested convergence on             energy=1.00D-06.
 No special actions if energy rises.
 Integral accuracy reduced to 1.0D-05 until final iterations.
 Initial convergence to 1.0D-05 achieved.  Increase integral accuracy.
 SCF Done:  E(UwB97XD) =  -2996.63902013     A.U. after   28 cycles
            NFock= 28  Conv=0.60D-08     -V/T= 2.0017
 <Sx>= 0.0000 <Sy>= 0.0000 <Sz>= 0.5000 <S**2>= 0.7695 S= 0.5097
 <L.S>= 0.000000000000E+00
 Annihilation of the first spin contaminant:
 S**2 before annihilation     0.7695,   after     0.7502

 **********************************************************************

            Population analysis using the SCF Density.

 **********************************************************************

 Orbital symmetries:
 Alpha Orbitals:
       Occupied  (A) (A) (A) (A) (A) (A) (A) (A) (A) (A) (A) (A)
                 (A) (A) (A) (A) (A) (A) (A) (A) (A) (A) (A) (A)
                 (A) (A) (A) (A) (A) (A) (A) (A) (A) (A) (A) (A)
                 (A) (A) (A) (A) (A) (A) (A) (A) (A) (A) (A) (A)
                 (A) (A) (A) (A) (A)
       Virtual   (A) (A) (A) (A) (A) (A) (A) (A) (A) (A) (A) (A)
                 (A) (A) (A) (A) (A) (A) (A) (A) (A) (A) (A) (A)
                 (A) (A) (A) (A) (A) (A) (A) (A) (A) (A) (A) (A)
                 (A) (A) (A) (A) (A) (A) (A) (A) (A) (A) (A) (A)
                 (A) (A) (A) (A) (A) (A) (A) (A) (A) (A) (A) (A)
                 (A) (A) (A) (A) (A) (A) (A) (A) (A) (A) (A) (A)
                 (A) (A) (A) (A) (A) (A) (A) (A) (A) (A) (A) (A)
                 (A) (A) (A) (A) (A) (A) (A) (A) (A) (A) (A) (A)
                 (A) (A) (A) (A) (A) (A) (A) (A) (A) (A) (A) (A)
                 (A) (A) (A) (A) (A) (A) (A) (A) (A) (A) (A) (A)
                 (A) (A) (A) (A) (A) (A) (A) (A) (A) (A) (A) (A)
                 (A) (A) (A) (A) (A) (A) (A) (A) (A) (A) (A) (A)
                 (A) (A) (A) (A) (A) (A) (A) (A) (A) (A) (A) (A)
                 (A) (A) (A) (A) (A) (A) (A) (A) (A) (A) (A) (A)
                 (A) (A) (A) (A) (A) (A) (A) (A) (A) (A) (A) (A)
                 (A) (A) (A) (A) (A) (A) (A) (A) (A) (A) (A) (A)
                 (A) (A) (A) (A) (A) (A) (A) (A) (A) (A) (A) (A)
                 (A) (A) (A) (A) (A) (A) (A) (A) (A) (A) (A) (A)
                 (A) (A) (A) (A) (A) (A) (A) (A) (A) (A) (A) (A)
                 (A) (A) (A) (A) (A) (A) (A) (A) (A) (A) (A) (A)
                 (A) (A) (A) (A) (A) (A) (A) (A) (A) (A) (A) (A)
                 (A) (A) (A) (A) (A) (A) (A) (A) (A) (A) (A) (A)
                 (A) (A) (A) (A) (A) (A) (A) (A) (A) (A) (A) (A)
                 (A) (A) (A) (A) (A) (A) (A) (A) (A) (A) (A) (A)
                 (A) (A) (A) (A) (A) (A) (A) (A) (A) (A) (A) (A)
                 (A) (A) (A) (A) (A) (A) (A) (A) (A) (A) (A) (A)
                 (A) (A) (A) (A) (A) (A) (A) (A) (A) (A) (A) (A)
                 (A) (A) (A) (A) (A) (A) (A) (A) (A) (A) (A) (A)
                 (A) (A) (A) (A) (A) (A) (A) (A) (A) (A) (A)
 Beta  Orbitals:
       Occupied  (A) (A) (A) (A) (A) (A) (A) (A) (A) (A) (A) (A)
                 (A) (A) (A) (A) (A) (A) (A) (A) (A) (A) (A) (A)
                 (A) (A) (A) (A) (A) (A) (A) (A) (A) (A) (A) (A)
                 (A) (A) (A) (A) (A) (A) (A) (A) (A) (A) (A) (A)
                 (A) (A) (A) (A)
       Virtual   (A) (A) (A) (A) (A) (A) (A) (A) (A) (A) (A) (A)
                 (A) (A) (A) (A) (A) (A) (A) (A) (A) (A) (A) (A)
                 (A) (A) (A) (A) (A) (A) (A) (A) (A) (A) (A) (A)
                 (A) (A) (A) (A) (A) (A) (A) (A) (A) (A) (A) (A)
                 (A) (A) (A) (A) (A) (A) (A) (A) (A) (A) (A) (A)
                 (A) (A) (A) (A) (A) (A) (A) (A) (A) (A) (A) (A)
                 (A) (A) (A) (A) (A) (A) (A) (A) (A) (A) (A) (A)
                 (A) (A) (A) (A) (A) (A) (A) (A) (A) (A) (A) (A)
                 (A) (A) (A) (A) (A) (A) (A) (A) (A) (A) (A) (A)
                 (A) (A) (A) (A) (A) (A) (A) (A) (A) (A) (A) (A)
                 (A) (A) (A) (A) (A) (A) (A) (A) (A) (A) (A) (A)
                 (A) (A) (A) (A) (A) (A) (A) (A) (A) (A) (A) (A)
                 (A) (A) (A) (A) (A) (A) (A) (A) (A) (A) (A) (A)
                 (A) (A) (A) (A) (A) (A) (A) (A) (A) (A) (A) (A)
                 (A) (A) (A) (A) (A) (A) (A) (A) (A) (A) (A) (A)
                 (A) (A) (A) (A) (A) (A) (A) (A) (A) (A) (A) (A)
                 (A) (A) (A) (A) (A) (A) (A) (A) (A) (A) (A) (A)
                 (A) (A) (A) (A) (A) (A) (A) (A) (A) (A) (A) (A)
                 (A) (A) (A) (A) (A) (A) (A) (A) (A) (A) (A) (A)
                 (A) (A) (A) (A) (A) (A) (A) (A) (A) (A) (A) (A)
                 (A) (A) (A) (A) (A) (A) (A) (A) (A) (A) (A) (A)
                 (A) (A) (A) (A) (A) (A) (A) (A) (A) (A) (A) (A)
                 (A) (A) (A) (A) (A) (A) (A) (A) (A) (A) (A) (A)
                 (A) (A) (A) (A) (A) (A) (A) (A) (A) (A) (A) (A)
                 (A) (A) (A) (A) (A) (A) (A) (A) (A) (A) (A) (A)
                 (A) (A) (A) (A) (A) (A) (A) (A) (A) (A) (A) (A)
                 (A) (A) (A) (A) (A) (A) (A) (A) (A) (A) (A) (A)
                 (A) (A) (A) (A) (A) (A) (A) (A) (A) (A) (A) (A)
                 (A) (A) (A) (A) (A) (A) (A) (A) (A) (A) (A) (A)
 The electronic state is 2-A.
 Alpha  occ. eigenvalues -- -482.98881 -62.53744 -56.32816 -56.32521 -56.32519
 Alpha  occ. eigenvalues --  -19.03510 -10.17087 -10.16870 -10.15357 -10.14119
 Alpha  occ. eigenvalues --  -10.14078 -10.13750 -10.13190 -10.11948 -10.10703
 Alpha  occ. eigenvalues --   -8.67887  -6.49924  -6.48964  -6.48951  -2.60344
 Alpha  occ. eigenvalues --   -2.60053  -2.60044  -2.59260  -2.59260  -0.95731
 Alpha  occ. eigenvalues --   -0.82828  -0.78285  -0.73775  -0.69363  -0.65945
 Alpha  occ. eigenvalues --   -0.61410  -0.55921  -0.51709  -0.48747  -0.42089
 Alpha  occ. eigenvalues --   -0.41517  -0.40537  -0.38544  -0.36288  -0.35016
 Alpha  occ. eigenvalues --   -0.33380  -0.32849  -0.32080  -0.30505  -0.28631
 Alpha  occ. eigenvalues --   -0.28464  -0.27334  -0.24775  -0.23644  -0.18827
 Alpha  occ. eigenvalues --   -0.17450  -0.15228  -0.00730
 Alpha virt. eigenvalues --    0.20327   0.21446   0.23573   0.24743   0.26397
 Alpha virt. eigenvalues --    0.27677   0.28373   0.29672   0.31133   0.32857
 Alpha virt. eigenvalues --    0.33978   0.35121   0.36917   0.37641   0.38262
 Alpha virt. eigenvalues --    0.38279   0.39031   0.41470   0.41619   0.42769
 Alpha virt. eigenvalues --    0.43326   0.44942   0.45167   0.46625   0.46884
 Alpha virt. eigenvalues --    0.47802   0.48166   0.49128   0.49716   0.50563
 Alpha virt. eigenvalues --    0.52694   0.52759   0.53293   0.53479   0.55569
 Alpha virt. eigenvalues --    0.56594   0.56863   0.57512   0.58647   0.59544
 Alpha virt. eigenvalues --    0.59638   0.60834   0.61814   0.62828   0.63394
 Alpha virt. eigenvalues --    0.64242   0.65272   0.65325   0.66733   0.67080
 Alpha virt. eigenvalues --    0.67816   0.68808   0.69660   0.70752   0.71843
 Alpha virt. eigenvalues --    0.73345   0.74001   0.75080   0.76504   0.78884
 Alpha virt. eigenvalues --    0.79631   0.80446   0.81873   0.83486   0.83889
 Alpha virt. eigenvalues --    0.87430   0.88831   0.90017   0.90481   0.90796
 Alpha virt. eigenvalues --    0.92357   0.92531   0.94100   0.97769   0.99377
 Alpha virt. eigenvalues --    1.00493   1.01712   1.02143   1.04330   1.04380
 Alpha virt. eigenvalues --    1.05072   1.06783   1.09021   1.10667   1.13019
 Alpha virt. eigenvalues --    1.14017   1.14855   1.17129   1.17684   1.17878
 Alpha virt. eigenvalues --    1.20189   1.22216   1.22842   1.24182   1.26897
 Alpha virt. eigenvalues --    1.27183   1.29895   1.30936   1.31029   1.32488
 Alpha virt. eigenvalues --    1.34953   1.35082   1.39137   1.41982   1.42390
 Alpha virt. eigenvalues --    1.44603   1.46604   1.47523   1.47929   1.49520
 Alpha virt. eigenvalues --    1.49947   1.51441   1.54305   1.56779   1.57179
 Alpha virt. eigenvalues --    1.59100   1.59261   1.59535   1.60331   1.61659
 Alpha virt. eigenvalues --    1.63105   1.65255   1.66390   1.69874   1.70688
 Alpha virt. eigenvalues --    1.71745   1.72415   1.75067   1.75707   1.77108
 Alpha virt. eigenvalues --    1.78253   1.79425   1.79449   1.81867   1.82062
 Alpha virt. eigenvalues --    1.83096   1.83615   1.86450   1.87467   1.88093
 Alpha virt. eigenvalues --    1.88870   1.89298   1.91883   1.91931   1.92747
 Alpha virt. eigenvalues --    1.95744   1.97509   2.00272   2.02034   2.02812
 Alpha virt. eigenvalues --    2.03911   2.04930   2.06530   2.06803   2.08594
 Alpha virt. eigenvalues --    2.12193   2.13169   2.16208   2.16306   2.18957
 Alpha virt. eigenvalues --    2.19628   2.22697   2.22953   2.26518   2.27308
 Alpha virt. eigenvalues --    2.28354   2.33572   2.37063   2.37779   2.38068
 Alpha virt. eigenvalues --    2.42381   2.44588   2.44737   2.45477   2.47361
 Alpha virt. eigenvalues --    2.53247   2.54171   2.55359   2.57288   2.60876
 Alpha virt. eigenvalues --    2.63874   2.65677   2.66061   2.69920   2.70723
 Alpha virt. eigenvalues --    2.71142   2.72703   2.74770   2.78953   2.79224
 Alpha virt. eigenvalues --    2.80647   2.84443   2.85670   2.87240   2.88381
 Alpha virt. eigenvalues --    2.89955   2.93221   2.94482   2.94915   2.95774
 Alpha virt. eigenvalues --    2.95975   3.00292   3.00594   3.02075   3.04461
 Alpha virt. eigenvalues --    3.05616   3.07001   3.08708   3.09021   3.11125
 Alpha virt. eigenvalues --    3.12307   3.13155   3.13303   3.15147   3.17758
 Alpha virt. eigenvalues --    3.19204   3.21427   3.23002   3.23671   3.23750
 Alpha virt. eigenvalues --    3.26907   3.27553   3.30735   3.31993   3.32896
 Alpha virt. eigenvalues --    3.34922   3.35846   3.37391   3.38439   3.38792
 Alpha virt. eigenvalues --    3.39539   3.41254   3.42233   3.43419   3.43864
 Alpha virt. eigenvalues --    3.47619   3.47832   3.49426   3.50938   3.52003
 Alpha virt. eigenvalues --    3.54890   3.56078   3.58322   3.58512   3.61775
 Alpha virt. eigenvalues --    3.62788   3.63224   3.63503   3.65765   3.66193
 Alpha virt. eigenvalues --    3.67447   3.67448   3.70997   3.73269   3.73307
 Alpha virt. eigenvalues --    3.75019   3.75379   3.78752   3.79857   3.82720
 Alpha virt. eigenvalues --    3.83181   3.84775   3.89981   3.92171   3.93931
 Alpha virt. eigenvalues --    3.94081   3.95986   4.00753   4.01177   4.05820
 Alpha virt. eigenvalues --    4.07053   4.09573   4.09696   4.13321   4.15465
 Alpha virt. eigenvalues --    4.18502   4.21705   4.23774   4.24727   4.25570
 Alpha virt. eigenvalues --    4.27815   4.30768   4.30987   4.34840   4.40083
 Alpha virt. eigenvalues --    4.40985   4.42546   4.44535   4.47789   4.48393
 Alpha virt. eigenvalues --    4.49131   4.51512   4.53435   4.53920   4.54245
 Alpha virt. eigenvalues --    4.59274   4.62123   4.63199   4.63369   4.66725
 Alpha virt. eigenvalues --    4.70614   4.71077   4.77893   4.85214   4.86709
 Alpha virt. eigenvalues --    4.90258   4.95932   4.96975   4.99322   5.00111
 Alpha virt. eigenvalues --    5.02466   5.07296   5.13817   5.14705   5.24840
 Alpha virt. eigenvalues --    5.30616   5.34681   5.43880   5.46835   5.48256
 Alpha virt. eigenvalues --    5.52150   5.56520   5.66903   5.74182   5.80132
 Alpha virt. eigenvalues --    5.91863   5.95625   6.07812   6.46558   6.67297
 Alpha virt. eigenvalues --    6.75300   6.87435   7.02564   7.09963   7.34403
 Alpha virt. eigenvalues --    7.39886   7.99957  22.28164  22.77277  22.85058
 Alpha virt. eigenvalues --   22.96168  23.02968  23.10357  23.23937  23.71157
 Alpha virt. eigenvalues --   23.89528  44.26801
  Beta  occ. eigenvalues -- -482.98881 -62.53742 -56.32821 -56.32521 -56.32508
  Beta  occ. eigenvalues --  -19.03074 -10.16674 -10.16662 -10.15356 -10.14260
  Beta  occ. eigenvalues --  -10.14035 -10.13782 -10.13146 -10.11658 -10.10611
  Beta  occ. eigenvalues --   -8.67885  -6.49936  -6.48964  -6.48935  -2.60350
  Beta  occ. eigenvalues --   -2.60059  -2.60033  -2.59252  -2.59252  -0.94796
  Beta  occ. eigenvalues --   -0.82379  -0.77902  -0.73544  -0.68895  -0.65681
  Beta  occ. eigenvalues --   -0.61020  -0.55323  -0.51221  -0.48359  -0.41731
  Beta  occ. eigenvalues --   -0.41176  -0.40102  -0.38190  -0.36100  -0.34774
  Beta  occ. eigenvalues --   -0.32587  -0.31704  -0.31506  -0.30274  -0.28401
  Beta  occ. eigenvalues --   -0.27157  -0.26909  -0.23617  -0.23583  -0.17372
  Beta  occ. eigenvalues --   -0.15110  -0.14748
  Beta virt. eigenvalues --    0.18948   0.20601   0.21913   0.23537   0.26394
  Beta virt. eigenvalues --    0.27680   0.27917   0.29189   0.29671   0.31213
  Beta virt. eigenvalues --    0.32827   0.33993   0.35419   0.36917   0.37661
  Beta virt. eigenvalues --    0.38306   0.39072   0.39380   0.41480   0.41712
  Beta virt. eigenvalues --    0.42809   0.43332   0.44965   0.45171   0.46931
  Beta virt. eigenvalues --    0.47230   0.48128   0.48201   0.49223   0.50032
  Beta virt. eigenvalues --    0.50715   0.52757   0.52821   0.53474   0.53733
  Beta virt. eigenvalues --    0.56141   0.56844   0.56925   0.57560   0.58778
  Beta virt. eigenvalues --    0.59781   0.60054   0.61017   0.61877   0.62835
  Beta virt. eigenvalues --    0.63431   0.64436   0.65340   0.65345   0.66941
  Beta virt. eigenvalues --    0.67168   0.68090   0.69034   0.69784   0.70935
  Beta virt. eigenvalues --    0.72055   0.73457   0.74197   0.75200   0.76531
  Beta virt. eigenvalues --    0.78974   0.79701   0.80637   0.82534   0.83565
  Beta virt. eigenvalues --    0.83978   0.88129   0.88895   0.90063   0.90807
  Beta virt. eigenvalues --    0.90924   0.92661   0.92797   0.94259   0.97956
  Beta virt. eigenvalues --    0.99402   1.00639   1.02233   1.02446   1.04413
  Beta virt. eigenvalues --    1.04762   1.05236   1.07309   1.09236   1.10826
  Beta virt. eigenvalues --    1.13220   1.14086   1.15036   1.17571   1.17962
  Beta virt. eigenvalues --    1.18134   1.20333   1.22283   1.23064   1.24396
  Beta virt. eigenvalues --    1.27331   1.27427   1.30102   1.31161   1.31579
  Beta virt. eigenvalues --    1.32883   1.35009   1.35565   1.39546   1.42101
  Beta virt. eigenvalues --    1.42552   1.44714   1.46687   1.47662   1.48270
  Beta virt. eigenvalues --    1.49908   1.50321   1.51651   1.54386   1.57080
  Beta virt. eigenvalues --    1.57367   1.59294   1.59448   1.60057   1.60441
  Beta virt. eigenvalues --    1.62241   1.63209   1.65491   1.67093   1.70010
  Beta virt. eigenvalues --    1.70914   1.71861   1.72492   1.75572   1.76018
  Beta virt. eigenvalues --    1.77250   1.78432   1.79603   1.79817   1.82064
  Beta virt. eigenvalues --    1.82436   1.83318   1.83816   1.86932   1.87610
  Beta virt. eigenvalues --    1.88421   1.89187   1.89697   1.91956   1.92601
  Beta virt. eigenvalues --    1.92910   1.95931   1.98031   2.00421   2.02330
  Beta virt. eigenvalues --    2.03003   2.04341   2.05511   2.06728   2.06910
  Beta virt. eigenvalues --    2.08735   2.12872   2.13420   2.16544   2.16659
  Beta virt. eigenvalues --    2.19567   2.19928   2.23012   2.23243   2.26939
  Beta virt. eigenvalues --    2.27472   2.28666   2.34206   2.37432   2.38219
  Beta virt. eigenvalues --    2.38416   2.42750   2.44865   2.45150   2.46069
  Beta virt. eigenvalues --    2.47808   2.53463   2.54607   2.55716   2.57667
  Beta virt. eigenvalues --    2.61248   2.64139   2.65984   2.66182   2.70153
  Beta virt. eigenvalues --    2.70994   2.71386   2.72882   2.74926   2.79182
  Beta virt. eigenvalues --    2.79456   2.81036   2.84785   2.86098   2.87691
  Beta virt. eigenvalues --    2.88541   2.90439   2.93618   2.94579   2.95503
  Beta virt. eigenvalues --    2.95915   2.96587   3.00543   3.01013   3.02359
  Beta virt. eigenvalues --    3.04911   3.05964   3.07263   3.09048   3.09494
  Beta virt. eigenvalues --    3.11271   3.12880   3.13486   3.13694   3.15255
  Beta virt. eigenvalues --    3.18106   3.19688   3.21905   3.23360   3.24308
  Beta virt. eigenvalues --    3.24563   3.27519   3.27803   3.31003   3.32234
  Beta virt. eigenvalues --    3.33329   3.35159   3.36242   3.37622   3.38685
  Beta virt. eigenvalues --    3.39442   3.39909   3.41702   3.42738   3.43639
  Beta virt. eigenvalues --    3.44219   3.47893   3.48349   3.49670   3.51314
  Beta virt. eigenvalues --    3.52248   3.55113   3.56443   3.58773   3.59011
  Beta virt. eigenvalues --    3.62095   3.63212   3.63595   3.63904   3.66130
  Beta virt. eigenvalues --    3.66437   3.67649   3.68007   3.71445   3.73645
  Beta virt. eigenvalues --    3.73874   3.75613   3.75767   3.79265   3.80036
  Beta virt. eigenvalues --    3.82967   3.83734   3.85178   3.90437   3.92460
  Beta virt. eigenvalues --    3.94287   3.94511   3.96175   4.01402   4.01466
  Beta virt. eigenvalues --    4.06039   4.07380   4.09958   4.10061   4.13580
  Beta virt. eigenvalues --    4.15567   4.18633   4.22030   4.23950   4.24801
  Beta virt. eigenvalues --    4.25726   4.28016   4.31178   4.31350   4.34960
  Beta virt. eigenvalues --    4.40313   4.41152   4.42736   4.44977   4.47970
  Beta virt. eigenvalues --    4.48875   4.49339   4.52050   4.53675   4.54343
  Beta virt. eigenvalues --    4.55001   4.59499   4.62268   4.63502   4.63631
  Beta virt. eigenvalues --    4.66920   4.70889   4.71338   4.78041   4.85446
  Beta virt. eigenvalues --    4.87040   4.90506   4.96133   4.97475   4.99782
  Beta virt. eigenvalues --    5.00282   5.02770   5.07559   5.14047   5.15045
  Beta virt. eigenvalues --    5.25087   5.30781   5.34930   5.44103   5.47768
  Beta virt. eigenvalues --    5.49423   5.52471   5.56755   5.67199   5.74503
  Beta virt. eigenvalues --    5.80367   5.92688   5.95884   6.08386   6.47944
  Beta virt. eigenvalues --    6.68842   6.76016   6.88907   7.02899   7.11311
  Beta virt. eigenvalues --    7.34746   7.40499   7.99987  22.28351  22.77291
  Beta virt. eigenvalues --   22.85055  22.96095  23.03453  23.10539  23.24187
  Beta virt. eigenvalues --   23.71493  23.89655  44.27209
          Condensed to atoms (all electrons):
               1          2          3          4          5          6
     1  O    7.970146   0.799567  -0.157702   0.016915  -0.001226   0.000525
     2  C    0.799567   5.041286   0.442072  -0.114406  -0.062955   0.023817
     3  C   -0.157702   0.442072   5.732169  -0.099247  -0.023628   0.006519
     4  C    0.016915  -0.114406  -0.099247   5.494433   0.218749  -0.125672
     5  C   -0.001226  -0.062955  -0.023628   0.218749   5.464721   0.186782
     6  C    0.000525   0.023817   0.006519  -0.125672   0.186782   5.673040
     7  C   -0.000234  -0.011662  -0.003527   0.028352   0.117758   0.127123
     8  Br  -0.000000  -0.000137   0.000064  -0.001443   0.018834  -0.063905
     9  C    0.003367   0.027899  -0.003347   0.007402  -0.124136   0.064850
    10  C    0.043657  -0.076038   0.085881  -0.040176  -0.048160  -0.086711
    11  C   -0.258922  -0.094271  -0.523632   0.107923   0.291303   0.064969
    12  H    0.012164  -0.029419   0.305538   0.006975  -0.002812   0.001121
    13  H    0.012161  -0.029297   0.305388   0.007027  -0.002825   0.001124
    14  H   -0.000242   0.000558   0.006756   0.316002  -0.007007   0.007734
    15  H   -0.000242   0.000533   0.006805   0.315920  -0.006988   0.007731
    16  H    0.000015   0.001350   0.002802  -0.020720  -0.093609   0.495160
    17  H   -0.000065  -0.000411  -0.000117   0.000413  -0.004237   0.018411
    18  H    0.014349   0.005153   0.006501  -0.003950   0.009162  -0.001075
               7          8          9         10         11         12
     1  O   -0.000234  -0.000000   0.003367   0.043657  -0.258922   0.012164
     2  C   -0.011662  -0.000137   0.027899  -0.076038  -0.094271  -0.029419
     3  C   -0.003527   0.000064  -0.003347   0.085881  -0.523632   0.305538
     4  C    0.028352  -0.001443   0.007402  -0.040176   0.107923   0.006975
     5  C    0.117758   0.018834  -0.124136  -0.048160   0.291303  -0.002812
     6  C    0.127123  -0.063905   0.064850  -0.086711   0.064969   0.001121
     7  C    5.332875   0.253848   0.254480   0.089323  -0.145946  -0.000054
     8  Br   0.253848  35.073968  -0.080032   0.024384  -0.004973   0.000000
     9  C    0.254480  -0.080032   5.253897   0.265130   0.045072   0.000093
    10  C    0.089323   0.024384   0.265130   5.622746   0.079803  -0.000742
    11  C   -0.145946  -0.004973   0.045072   0.079803   6.459913   0.015607
    12  H   -0.000054   0.000000   0.000093  -0.000742   0.015607   0.732141
    13  H   -0.000055   0.000000   0.000093  -0.000742   0.015560  -0.072698
    14  H   -0.001761   0.000015  -0.000148   0.000901  -0.003599   0.003238
    15  H   -0.001762   0.000015  -0.000149   0.000903  -0.003578  -0.016860
    16  H   -0.108083  -0.002872   0.018534  -0.007899   0.026455  -0.000097
    17  H   -0.098169  -0.004924   0.481046  -0.089368   0.019407   0.000001
    18  H    0.017111  -0.000450  -0.092778   0.477832  -0.089793  -0.000146
              13         14         15         16         17         18
     1  O    0.012161  -0.000242  -0.000242   0.000015  -0.000065   0.014349
     2  C   -0.029297   0.000558   0.000533   0.001350  -0.000411   0.005153
     3  C    0.305388   0.006756   0.006805   0.002802  -0.000117   0.006501
     4  C    0.007027   0.316002   0.315920  -0.020720   0.000413  -0.003950
     5  C   -0.002825  -0.007007  -0.006988  -0.093609  -0.004237   0.009162
     6  C    0.001124   0.007734   0.007731   0.495160   0.018411  -0.001075
     7  C   -0.000055  -0.001761  -0.001762  -0.108083  -0.098169   0.017111
     8  Br   0.000000   0.000015   0.000015  -0.002872  -0.004924  -0.000450
     9  C    0.000093  -0.000148  -0.000149   0.018534   0.481046  -0.092778
    10  C   -0.000742   0.000901   0.000903  -0.007899  -0.089368   0.477832
    11  C    0.015560  -0.003599  -0.003578   0.026455   0.019407  -0.089793
    12  H   -0.072698   0.003238  -0.016860  -0.000097   0.000001  -0.000146
    13  H    0.732174  -0.016855   0.003240  -0.000097   0.000001  -0.000146
    14  H   -0.016855   0.672020  -0.044128   0.002936  -0.000006   0.000076
    15  H    0.003240  -0.044128   0.672050   0.002937  -0.000006   0.000076
    16  H   -0.000097   0.002936   0.002937   0.619921  -0.000009   0.000134
    17  H    0.000001  -0.000006  -0.000006  -0.000009   0.610554  -0.010628
    18  H   -0.000146   0.000076   0.000076   0.000134  -0.010628   0.590489
          Atomic-Atomic Spin Densities.
               1          2          3          4          5          6
     1  O    0.272872  -0.087244  -0.009873  -0.000113   0.001875   0.000211
     2  C   -0.087244   0.155508   0.051937  -0.003060  -0.005974  -0.003171
     3  C   -0.009873   0.051937  -0.034252   0.012351  -0.010216  -0.002271
     4  C   -0.000113  -0.003060   0.012351  -0.003805   0.000061  -0.003640
     5  C    0.001875  -0.005974  -0.010216   0.000061   0.047229   0.070335
     6  C    0.000211  -0.003171  -0.002271  -0.003640   0.070335   0.102145
     7  C   -0.000135   0.001631   0.000798   0.001125  -0.030581  -0.114257
     8  Br   0.000000  -0.000011  -0.000012   0.000029   0.000325   0.012342
     9  C   -0.000020  -0.000730   0.000284  -0.000714   0.006157   0.002758
    10  C    0.007756  -0.021978  -0.007663   0.002032   0.016806   0.023307
    11  C   -0.021140   0.104346   0.030897  -0.000906  -0.070771  -0.030613
    12  H    0.005523  -0.015589  -0.021939  -0.000473   0.002770   0.000770
    13  H    0.005527  -0.015465  -0.022110  -0.000419   0.002766   0.000773
    14  H    0.000011  -0.000263   0.000817   0.000688   0.000053  -0.000221
    15  H    0.000011  -0.000261   0.000813   0.000693   0.000051  -0.000221
    16  H   -0.000001   0.000029  -0.000072   0.000145   0.000615   0.001293
    17  H    0.000000   0.000033   0.000002  -0.000007   0.000078  -0.000170
    18  H   -0.000463   0.000276  -0.000313   0.000118  -0.000696   0.000229
               7          8          9         10         11         12
     1  O   -0.000135   0.000000  -0.000020   0.007756  -0.021140   0.005523
     2  C    0.001631  -0.000011  -0.000730  -0.021978   0.104346  -0.015589
     3  C    0.000798  -0.000012   0.000284  -0.007663   0.030897  -0.021939
     4  C    0.001125   0.000029  -0.000714   0.002032  -0.000906  -0.000473
     5  C   -0.030581   0.000325   0.006157   0.016806  -0.070771   0.002770
     6  C   -0.114257   0.012342   0.002758   0.023307  -0.030613   0.000770
     7  C    0.480908  -0.038761   0.000680  -0.060014   0.036096  -0.000163
     8  Br  -0.038761   0.026764   0.004381   0.001153  -0.000632   0.000001
     9  C    0.000680   0.004381  -0.135969   0.027293  -0.003862   0.000008
    10  C   -0.060014   0.001153   0.027293   0.397661  -0.126141   0.001162
    11  C    0.036096  -0.000632  -0.003862  -0.126141   0.197269  -0.007955
    12  H   -0.000163   0.000001   0.000008   0.001162  -0.007955   0.104779
    13  H   -0.000164   0.000001   0.000009   0.001160  -0.008006  -0.046588
    14  H    0.000012   0.000002  -0.000004  -0.000005   0.000459   0.000192
    15  H    0.000012   0.000002  -0.000004  -0.000005   0.000458  -0.000700
    16  H   -0.000166   0.000354  -0.000300   0.000012  -0.000461   0.000002
    17  H   -0.000200   0.000272   0.000339   0.000301  -0.000076  -0.000000
    18  H   -0.000829   0.000005   0.003308  -0.000884   0.002173   0.000007
              13         14         15         16         17         18
     1  O    0.005527   0.000011   0.000011  -0.000001   0.000000  -0.000463
     2  C   -0.015465  -0.000263  -0.000261   0.000029   0.000033   0.000276
     3  C   -0.022110   0.000817   0.000813  -0.000072   0.000002  -0.000313
     4  C   -0.000419   0.000688   0.000693   0.000145  -0.000007   0.000118
     5  C    0.002766   0.000053   0.000051   0.000615   0.000078  -0.000696
     6  C    0.000773  -0.000221  -0.000221   0.001293  -0.000170   0.000229
     7  C   -0.000164   0.000012   0.000012  -0.000166  -0.000200  -0.000829
     8  Br   0.000001   0.000002   0.000002   0.000354   0.000272   0.000005
     9  C    0.000009  -0.000004  -0.000004  -0.000300   0.000339   0.003308
    10  C    0.001160  -0.000005  -0.000005   0.000012   0.000301  -0.000884
    11  C   -0.008006   0.000459   0.000458  -0.000461  -0.000076   0.002173
    12  H   -0.046588   0.000192  -0.000700   0.000002  -0.000000   0.000007
    13  H    0.104835  -0.000699   0.000192   0.000002  -0.000000   0.000007
    14  H   -0.000699  -0.001830   0.000669  -0.000023   0.000000  -0.000002
    15  H    0.000192   0.000669  -0.001829  -0.000023   0.000000  -0.000002
    16  H    0.000002  -0.000023  -0.000023  -0.004578  -0.000002  -0.000003
    17  H   -0.000000   0.000000   0.000000  -0.000002   0.003661   0.000231
    18  H    0.000007  -0.000002  -0.000002  -0.000003   0.000231  -0.015272
 Mulliken charges and spin densities:
               1          2
     1  O   -0.454233   0.174799
     2  C    0.076361   0.160013
     3  C   -0.089296  -0.010818
     4  C   -0.114497   0.004104
     5  C    0.070274   0.030884
     6  C   -0.401542   0.059597
     7  C    0.150383   0.275992
     8  Br  -0.212392   0.006215
     9  C   -0.121274  -0.096386
    10  C   -0.340725   0.261952
    11  C   -0.001300   0.101136
    12  H    0.045951   0.021808
    13  H    0.045948   0.021821
    14  H    0.063510  -0.000145
    15  H    0.063500  -0.000145
    16  H    0.063141  -0.003176
    17  H    0.078108   0.004462
    18  H    0.078084  -0.012110
 Sum of Mulliken charges =  -1.00000   1.00000
 Mulliken charges and spin densities with hydrogens summed into heavy atoms:
               1          2
     1  O   -0.454233   0.174799
     2  C    0.076361   0.160013
     3  C    0.002602   0.032810
     4  C    0.012513   0.003814
     5  C    0.070274   0.030884
     6  C   -0.338401   0.056420
     7  C    0.150383   0.275992
     8  Br  -0.212392   0.006215
     9  C   -0.043166  -0.091924
    10  C   -0.262641   0.249842
    11  C   -0.001300   0.101136
 Electronic spatial extent (au):  <R**2>=           3023.1431
 Charge=             -1.0000 electrons
 Dipole moment (field-independent basis, Debye):
    X=             -5.2334    Y=             -3.2816    Z=             -0.0000  Tot=              6.1772
 Quadrupole moment (field-independent basis, Debye-Ang):
   XX=           -126.2233   YY=            -85.5557   ZZ=            -82.0069
   XY=            -13.0847   XZ=             -0.0003   YZ=             -0.0001
 Traceless Quadrupole moment (field-independent basis, Debye-Ang):
   XX=            -28.2947   YY=             12.3730   ZZ=             15.9217
   XY=            -13.0847   XZ=             -0.0003   YZ=             -0.0001
 Octapole moment (field-independent basis, Debye-Ang**2):
  XXX=           -205.8941  YYY=             -3.6258  ZZZ=              0.0010  XYY=            -54.7185
  XXY=            -48.4482  XXZ=             -0.0013  XZZ=            -26.0932  YZZ=             -3.0036
  YYZ=             -0.0000  XYZ=             -0.0004
 Hexadecapole moment (field-independent basis, Debye-Ang**3):
 XXXX=          -3564.0115 YYYY=           -677.0329 ZZZZ=           -110.9162 XXXY=           -171.1280
 XXXZ=             -0.0077 YYYX=              3.2375 YYYZ=              0.0000 ZZZX=              0.0010
 ZZZY=              0.0001 XXYY=           -692.5673 XXZZ=           -501.4809 YYZZ=           -134.2912
 XXYZ=             -0.0007 YYXZ=             -0.0011 ZZXY=              3.4487
 N-N= 7.901350158738D+02 E-N=-8.733307753762D+03  KE= 2.991408793125D+03
 There are a total of      413976 grid points.
 ElSum from          density=      105.0000031307
 ElSum from atomic densities=      103.9999996914

 Hirshfeld populations at iteration   1 (CX, CA, CB, DipXYZ):
               1          2          3          4          5          6
     1  O    0.000000   4.280124   4.115592  -0.149100  -0.152310  -0.000001
     2  C    0.000000   3.057222   2.889734   0.017012  -0.042523  -0.000013
     3  C    0.000000   3.049201   3.032859  -0.031017  -0.011438   0.000006
     4  C    0.000000   3.035393   3.027704   0.007353   0.021757   0.000002
     5  C    0.000000   3.036765   2.984654   0.048304  -0.050839   0.000002
     6  C    0.000000   3.086172   3.025423  -0.003493  -0.018610   0.000001
     7  C    0.000000   3.132365   2.930907  -0.041408  -0.013886   0.000000
     8  Br   0.000000  17.602596  17.567672   0.236208   0.031938  -0.000001
     9  C    0.000000   3.031852   3.051899  -0.016098   0.028103   0.000001
    10  C    0.000000   3.130807   2.964781   0.046552   0.005896  -0.000000
    11  C    0.000000   3.088841   2.988485  -0.012445   0.031416   0.000008
    12  H    0.000000   0.500292   0.486625   0.063281  -0.017835  -0.108518
    13  H    0.000000   0.500292   0.486621   0.063259  -0.017824   0.108533
    14  H    0.000000   0.491175   0.490160  -0.007247  -0.071991   0.110823
    15  H    0.000000   0.491175   0.490160  -0.007239  -0.071988  -0.110826
    16  H    0.000000   0.497262   0.491083  -0.037329  -0.131354  -0.000000
    17  H    0.000000   0.489968   0.491476  -0.070106   0.122217   0.000001
    18  H    0.000000   0.498499   0.484167   0.049570   0.128480  -0.000002
       Tot   0.000000  53.000002  52.000001   0.156056  -0.230791   0.000015

 Dip from Atomic Chgs             -2.215054  -1.060270  -0.000021
         Total Dipole             -2.058998  -1.291061  -0.000006

 Hirshfeld charges, spin densities, dipoles, and CM5 charges using IRadAn=      5:
              Q-H        S-H        Dx         Dy         Dz        Q-CM5   
     1  O   -0.395716   0.164532  -0.149100  -0.152310  -0.000001  -0.442520
     2  C    0.053044   0.167488   0.017012  -0.042523  -0.000013   0.082008
     3  C   -0.082060   0.016342  -0.031017  -0.011438   0.000006  -0.181993
     4  C   -0.063096   0.007689   0.007353   0.021757   0.000002  -0.164868
     5  C   -0.021419   0.052111   0.048304  -0.050839   0.000002  -0.032421
     6  C   -0.111595   0.060750  -0.003493  -0.018610   0.000001  -0.162906
     7  C   -0.063272   0.201458  -0.041408  -0.013886   0.000000  -0.084666
     8  Br  -0.170267   0.034924   0.236208   0.031938  -0.000001  -0.155239
     9  C   -0.083751  -0.020047  -0.016098   0.028103   0.000001  -0.137580
    10  C   -0.095588   0.166026   0.046552   0.005896  -0.000000  -0.147507
    11  C   -0.077326   0.100356  -0.012445   0.031416   0.000008  -0.080445
    12  H    0.013083   0.013667   0.063281  -0.017835  -0.108518   0.069894
    13  H    0.013087   0.013671   0.063259  -0.017824   0.108533   0.069898
    14  H    0.018665   0.001016  -0.007247  -0.071991   0.110823   0.073983
    15  H    0.018665   0.001016  -0.007239  -0.071988  -0.110826   0.073983
    16  H    0.011654   0.006179  -0.037329  -0.131354  -0.000000   0.069211
    17  H    0.018555  -0.001508  -0.070106   0.122217   0.000001   0.075821
    18  H    0.017334   0.014332   0.049570   0.128480  -0.000002   0.075343
       Tot  -1.000003   1.000001   0.156056  -0.230791   0.000015  -1.000003
 Hirshfeld charges and spin densities with hydrogens summed into heavy atoms:
              Q-H        S-H       Q-CM5   
     1  O   -0.395716   0.164532  -0.442520
     2  C    0.053044   0.167488   0.082008
     3  C   -0.055890   0.043680  -0.042201
     4  C   -0.025766   0.009720  -0.016902
     5  C   -0.021419   0.052111  -0.032421
     6  C   -0.099940   0.066929  -0.093695
     7  C   -0.063272   0.201458  -0.084666
     8  Br  -0.170267   0.034924  -0.155239
     9  C   -0.065196  -0.021555  -0.061759
    10  C   -0.078254   0.180358  -0.072164
    11  C   -0.077326   0.100356  -0.080445
 
 EQQ= 0.916120878620E-01 EQD=-0.138167950330E-01 EDD= 0.160677013871E-03
 EQQ+QD+DD= 0.779559698428E-01
 
                          Isotropic Fermi Contact Couplings
        Atom                 a.u.       MegaHertz       Gauss      10(-4) cm-1
     1  O(17)              0.02622     -15.89475      -5.67164      -5.30192
     2  C(13)             -0.00061      -0.68598      -0.24477      -0.22882
     3  C(13)             -0.01101     -12.37541      -4.41585      -4.12799
     4  C(13)             -0.00145      -1.62656      -0.58040      -0.54256
     5  C(13)             -0.00379      -4.25786      -1.51931      -1.42027
     6  C(13)             -0.00798      -8.97536      -3.20263      -2.99386
     7  C(13)              0.02496      28.05650      10.01126       9.35864
     8  Br(79)            -0.00408      -4.58868      -1.63736      -1.53062
     9  C(13)             -0.02080     -23.38207      -8.34330      -7.79942
    10  C(13)              0.01132      12.72759       4.54152       4.24547
    11  C(13)             -0.01125     -12.65236      -4.51468      -4.22037
    12  H(1)               0.00683      30.53398      10.89529      10.18504
    13  H(1)               0.00683      30.53730      10.89647      10.18615
    14  H(1)              -0.00001      -0.03290      -0.01174      -0.01098
    15  H(1)              -0.00001      -0.03299      -0.01177      -0.01100
    16  H(1)              -0.00087      -3.89518      -1.38990      -1.29929
    17  H(1)               0.00132       5.89581       2.10377       1.96663
    18  H(1)              -0.00386     -17.25276      -6.15621      -5.75490
 --------------------------------------------------------
       Center         ----  Spin Dipole Couplings  ----
                      3XX-RR        3YY-RR        3ZZ-RR
 --------------------------------------------------------
     1   Atom       -0.381392     -0.387176      0.768567
     2   Atom       -0.113006     -0.119908      0.232914
     3   Atom        0.002526      0.003316     -0.005842
     4   Atom       -0.002910      0.002808      0.000102
     5   Atom       -0.020345     -0.028746      0.049091
     6   Atom       -0.030264     -0.031653      0.061917
     7   Atom       -0.186199     -0.203325      0.389523
     8   Atom       -0.247762     -0.015552      0.263313
     9   Atom        0.056482      0.051535     -0.108017
    10   Atom       -0.141351     -0.141053      0.282404
    11   Atom       -0.052591     -0.066947      0.119539
    12   Atom        0.000321      0.003009     -0.003330
    13   Atom        0.000321      0.003009     -0.003330
    14   Atom       -0.000662      0.003423     -0.002762
    15   Atom       -0.000662      0.003424     -0.002762
    16   Atom       -0.002276      0.004560     -0.002284
    17   Atom        0.003826      0.001522     -0.005348
    18   Atom       -0.011500      0.012364     -0.000863
 --------------------------------------------------------
                        XY            XZ            YZ
 --------------------------------------------------------
     1   Atom       -0.008921     -0.000099     -0.000046
     2   Atom        0.008807     -0.000004      0.000009
     3   Atom       -0.004748     -0.000001     -0.000000
     4   Atom        0.000953     -0.000000     -0.000002
     5   Atom        0.006152     -0.000000      0.000003
     6   Atom       -0.003092     -0.000005     -0.000001
     7   Atom        0.000439      0.000006     -0.000008
     8   Atom       -0.032844      0.000004     -0.000003
     9   Atom        0.007701     -0.000003      0.000001
    10   Atom       -0.000014      0.000008     -0.000008
    11   Atom       -0.005459      0.000047      0.000002
    12   Atom       -0.004244     -0.001330      0.002444
    13   Atom       -0.004243      0.001331     -0.002445
    14   Atom       -0.000860      0.000407     -0.002111
    15   Atom       -0.000860     -0.000407      0.002111
    16   Atom        0.005698     -0.000000      0.000000
    17   Atom        0.003742     -0.000000      0.000000
    18   Atom        0.012160      0.000000     -0.000000
 --------------------------------------------------------


 ---------------------------------------------------------------------------------
              Anisotropic Spin Dipole Couplings in Principal Axis System
 ---------------------------------------------------------------------------------

       Atom             a.u.   MegaHertz   Gauss  10(-4) cm-1        Axes

              Baa    -0.3937    28.485    10.164     9.502  0.5881  0.8088  0.0001
     1 O(17)  Bbb    -0.3749    27.128     9.680     9.049  0.8088 -0.5881  0.0000
              Bcc     0.7686   -55.613   -19.844   -18.551 -0.0001 -0.0000  1.0000
 
              Baa    -0.1259   -16.897    -6.029    -5.636 -0.5635  0.8261 -0.0000
     2 C(13)  Bbb    -0.1070   -14.358    -5.123    -4.789  0.8261  0.5635 -0.0000
              Bcc     0.2329    31.255    11.153    10.425 -0.0000  0.0000  1.0000
 
              Baa    -0.0058    -0.784    -0.280    -0.261  0.0001  0.0001  1.0000
     3 C(13)  Bbb    -0.0018    -0.247    -0.088    -0.083  0.7358  0.6772 -0.0001
              Bcc     0.0077     1.031     0.368     0.344 -0.6772  0.7358  0.0000
 
              Baa    -0.0031    -0.411    -0.147    -0.137  0.9871 -0.1603  0.0001
     4 C(13)  Bbb     0.0001     0.014     0.005     0.005  0.0000  0.0006  1.0000
              Bcc     0.0030     0.398     0.142     0.133  0.1603  0.9871 -0.0006
 
              Baa    -0.0320    -4.293    -1.532    -1.432 -0.4669  0.8843 -0.0000
     5 C(13)  Bbb    -0.0171    -2.294    -0.819    -0.765  0.8843  0.4669 -0.0000
              Bcc     0.0491     6.588     2.351     2.197 -0.0000  0.0000  1.0000
 
              Baa    -0.0341    -4.580    -1.634    -1.528  0.6249  0.7807  0.0000
     6 C(13)  Bbb    -0.0278    -3.729    -1.331    -1.244  0.7807 -0.6249  0.0000
              Bcc     0.0619     8.309     2.965     2.771 -0.0001 -0.0000  1.0000
 
              Baa    -0.2033   -27.286    -9.736    -9.102 -0.0256  0.9997  0.0000
     7 C(13)  Bbb    -0.1862   -24.985    -8.915    -8.334  0.9997  0.0256 -0.0000
              Bcc     0.3895    52.270    18.651    17.436  0.0000 -0.0000  1.0000
 
              Baa    -0.2523   -33.845   -12.077   -11.290  0.9905  0.1374 -0.0000
     8 Br(79) Bbb    -0.0110    -1.475    -0.526    -0.492 -0.1374  0.9905  0.0000
              Bcc     0.2633    35.320    12.603    11.782  0.0000 -0.0000  1.0000
 
              Baa    -0.1080   -14.495    -5.172    -4.835  0.0000 -0.0000  1.0000
     9 C(13)  Bbb     0.0459     6.162     2.199     2.055 -0.5891  0.8080  0.0000
              Bcc     0.0621     8.333     2.973     2.780  0.8080  0.5891 -0.0000
 
              Baa    -0.1414   -18.968    -6.768    -6.327  0.9988  0.0482 -0.0000
    10 C(13)  Bbb    -0.1411   -18.928    -6.754    -6.314 -0.0482  0.9988  0.0000
              Bcc     0.2824    37.896    13.522    12.641  0.0000 -0.0000  1.0000
 
              Baa    -0.0688    -9.231    -3.294    -3.079  0.3194  0.9476 -0.0001
    11 C(13)  Bbb    -0.0508    -6.810    -2.430    -2.272  0.9476 -0.3194 -0.0003
              Bcc     0.1195    16.041     5.724     5.351  0.0003  0.0000  1.0000
 
              Baa    -0.0042    -2.225    -0.794    -0.742 -0.0544 -0.3506  0.9350
    12 H(1)   Bbb    -0.0027    -1.438    -0.513    -0.480  0.8253  0.5113  0.2398
              Bcc     0.0069     3.662     1.307     1.222 -0.5621  0.7846  0.2615
 
              Baa    -0.0042    -2.225    -0.794    -0.742  0.0541  0.3505  0.9350
    13 H(1)   Bbb    -0.0027    -1.438    -0.513    -0.480  0.8253  0.5114 -0.2395
              Bcc     0.0069     3.662     1.307     1.222 -0.5621  0.7846 -0.2616
 
              Baa    -0.0034    -1.825    -0.651    -0.609 -0.0511  0.2885  0.9561
    14 H(1)   Bbb    -0.0008    -0.446    -0.159    -0.149  0.9808  0.1949 -0.0064
              Bcc     0.0043     2.271     0.810     0.757 -0.1882  0.9374 -0.2930
 
              Baa    -0.0034    -1.825    -0.651    -0.609  0.0511 -0.2885  0.9561
    15 H(1)   Bbb    -0.0008    -0.446    -0.159    -0.149  0.9808  0.1948  0.0063
              Bcc     0.0043     2.271     0.810     0.757 -0.1881  0.9375  0.2929
 
              Baa    -0.0055    -2.936    -1.048    -0.979  0.8702 -0.4928  0.0001
    16 H(1)   Bbb    -0.0023    -1.219    -0.435    -0.406 -0.0001  0.0000  1.0000
              Bcc     0.0078     4.154     1.482     1.386  0.4928  0.8702 -0.0000
 
              Baa    -0.0053    -2.854    -1.018    -0.952  0.0000 -0.0000  1.0000
    17 H(1)   Bbb    -0.0012    -0.662    -0.236    -0.221 -0.5940  0.8044  0.0000
              Bcc     0.0066     3.516     1.255     1.173  0.8044  0.5940  0.0000
 
              Baa    -0.0166    -8.859    -3.161    -2.955  0.9221 -0.3870 -0.0000
    18 H(1)   Bbb    -0.0009    -0.461    -0.164    -0.154  0.0000 -0.0000  1.0000
              Bcc     0.0175     9.320     3.326     3.109  0.3870  0.9221 -0.0000
 

 ---------------------------------------------------------------------------------

 Running external command "gaunbo6 R"
         input file       "/home/rpaton/arbr500/tzvp/fukui/Gau-2229149.EIn"
         output file      "/home/rpaton/arbr500/tzvp/fukui/Gau-2229149.EOu"
         message file     "/home/rpaton/arbr500/tzvp/fukui/Gau-2229149.EMs"
         fchk file        "/home/rpaton/arbr500/tzvp/fukui/Gau-2229149.EFC"
         mat. el file     "/home/rpaton/arbr500/tzvp/fukui/Gau-2229149.EUF"

 Writing WrtUnf unformatted file "/home/rpaton/arbr500/tzvp/fukui/Gau-2229149.EUF"
 Gaussian matrix elements                                         Version   2 NLab=11 Len12L=8 Len4L=8
 Write SHELL TO ATOM MAP                   from file      0 offset           0 length                 154 to matrix element file.
 Write SHELL TYPES                         from file      0 offset           0 length                 154 to matrix element file.
 Write NUMBER OF PRIMITIVES PER SHELL      from file      0 offset           0 length                 154 to matrix element file.
 Write PRIMITIVE EXPONENTS                 from file      0 offset           0 length                 281 to matrix element file.
 Write CONTRACTION COEFFICIENTS            from file      0 offset           0 length                 281 to matrix element file.
 Write P(S=P) CONTRACTION COEFFICIENTS     from file      0 offset           0 length                 281 to matrix element file.
 Write COORDINATES OF EACH SHELL           from file      0 offset           0 length                 462 to matrix element file.
 Write BONDS PER ATOM                      from file      0 offset           0 length                  18 to matrix element file.
 Write BONDED ATOMS                        from file      0 offset           0 length                  38 to matrix element file.
 Write BOND TYPES                          from file      0 offset           0 length                  38 to matrix element file.
 Write ONIOM CHARGE/MULT                   from file      0 offset           0 length                  32 to matrix element file.
 Write ONIOM ATOM LAYERS                   from file      0 offset           0 length                  18 to matrix element file.
 Write ONIOM ATOM MODIFIERS                from file      0 offset           0 length                  18 to matrix element file.
 Write ONIOM ATOM TYPES                    from file      0 offset           0 length                  18 to matrix element file.
 Write ONIOM LINK ATOMS                    from file      0 offset           0 length                  18 to matrix element file.
 Write ONIOM LINK CHARGES                  from file      0 offset           0 length                  18 to matrix element file.
 Write ONIOM LINK DISTANCES                from file      0 offset           0 length                  72 to matrix element file.
 Write SYMINF INTS                         from file      0 offset           0 length                  26 to matrix element file.
 Write ROTTR TO SO                         from file      0 offset           0 length                  12 to matrix element file.
 Write GAUSSIAN SCALARS                    from file    501 offset           0 to matrix element file.
 Write OPTIMIZATION FLAGS                  from file      0 offset           0 length                  18 to matrix element file.
 Write INTEGER ISO                         from file      0 offset           0 length                  18 to matrix element file.
 Write INTEGER SPIN                        from file      0 offset           0 length                  18 to matrix element file.
 Write REAL ZEFFECTIVE                     from file      0 offset           0 length                  18 to matrix element file.
 Write REAL QUADRUPOLEMOMENT               from file      0 offset           0 length                  18 to matrix element file.
 Write REAL GFACTOR                        from file      0 offset           0 length                  18 to matrix element file.
 Write REAL ZNUCLEAR                       from file      0 offset           0 length                  18 to matrix element file.
 Write MULLIKEN CHARGES                    from file      0 offset           0 length                  18 to matrix element file.
 Write TYPE 6 CHARGES                      from file      0 offset           0 length                  18 to matrix element file.
 Write TYPE 7 CHARGES                      from file      0 offset           0 length                  18 to matrix element file.
 Write NUCLEAR GRADIENT                    from file  10584 offset           0 length                  54 to matrix element file.
 Array NUCLEAR FORCE CONSTANTS              on  file  10585 does not exist.
 Write ELECTRIC DIPOLE MOMENT              from file      0 offset           0 length                   3 to matrix element file.
 Write NON-ADIABATIC COUPLING              from file  10810 offset           0 length                  54 to matrix element file.
 Write FINITE EM FIELD                     from file  10521 offset           0 length                  35 to matrix element file.
 Write OVERLAP                             from file  10514 offset           0 length               80200 to matrix element file.
 Write CORE HAMILTONIAN ALPHA              from file  10515 offset           0 length               80200 to matrix element file.
 Write CORE HAMILTONIAN BETA               from file  10515 offset       80200 length               80200 to matrix element file.
 Write KINETIC ENERGY                      from file  10516 offset           0 length               80200 to matrix element file.
 Write ORTHOGONAL BASIS                    from file  10685 offset           0 length              160000 to matrix element file.
 Write DIPOLE INTEGRALS                    from file  10518 offset           0 length              240600 to matrix element file.
 Array DIP VEL INTEGRALS                    on  file  10572 does not exist.
 Array R X DEL INTEGRALS                    on  file  10572 does not exist.
 Write ALPHA ORBITAL ENERGIES              from file      0 offset           0 length                 400 to matrix element file.
 Write BETA ORBITAL ENERGIES               from file      0 offset           0 length                 400 to matrix element file.
 Write ALPHA MO COEFFICIENTS               from file  10524 offset           0 length              160000 to matrix element file.
 Write BETA MO COEFFICIENTS                from file  10526 offset           0 length              160000 to matrix element file.
 Write ALPHA DENSITY MATRIX                from file      0 offset           0 length               80200 to matrix element file.
 Write BETA DENSITY MATRIX                 from file      0 offset           0 length               80200 to matrix element file.
 Write ALPHA FOCK MATRIX                   from file  10536 offset           0 length               80200 to matrix element file.
 Write BETA FOCK MATRIX                    from file  10538 offset           0 length               80200 to matrix element file.
 Write ENERGY-WEIGHTED DENSITY             from file  10571 offset           0 length               80200 to matrix element file.
 Write ALPHA SCF DENSITY MATRIX            from file      0 offset           0 length               80200 to matrix element file.
 Write BETA SCF DENSITY MATRIX             from file      0 offset           0 length               80200 to matrix element file.
 No 2e integrals to process.
 Perform NBO analysis...

 *********************************** NBO 7.0 ***********************************
             N A T U R A L   A T O M I C   O R B I T A L   A N D
          N A T U R A L   B O N D   O R B I T A L   A N A L Y S I S
 **************************** Robert Paton (I101709) ***************************
  (c) Copyright 1996-2019 Board of Regents of the University of Wisconsin System
      on behalf of the Theoretical Chemistry Institute.  All rights reserved.

          Cite this program [NBO 7.0.5 (4-Jun-2019)] as:

          NBO 7.0.  E. D. Glendening, J. K. Badenhoop, A. E. Reed,
          J. E. Carpenter, J. A. Bohmann, C. M. Morales, P. Karafiloglou,
          C. R. Landis, and F. Weinhold, Theoretical Chemistry Institute,
          University of Wisconsin, Madison, WI (2018)

 Filename set to /home/rpaton/arbr500/tzvp/fukui/Gau-2229149

 Job title:  arbr31_wb97xd_redcreated by GaussianPrep


 NATURAL POPULATIONS:  Natural atomic orbital occupancies

  NAO Atom No lang   Type(AO)    Occupancy     Spin
 -----------------------------------------------------
   1    O  1  s      Cor( 1s)     1.99999     0.00000
   2    O  1  s      Val( 2s)     1.67609     0.00324
   3    O  1  s      Ryd( 3s)     0.00026     0.00000
   4    O  1  s      Ryd( 4s)     0.00002     0.00000
   5    O  1  s      Ryd( 5s)     0.00000     0.00000
   6    O  1  px     Val( 2p)     1.75422     0.00028
   7    O  1  px     Ryd( 3p)     0.00219    -0.00005
   8    O  1  px     Ryd( 4p)     0.00010     0.00000
   9    O  1  py     Val( 2p)     1.68522     0.00014
  10    O  1  py     Ryd( 3p)     0.00198    -0.00002
  11    O  1  py     Ryd( 4p)     0.00013     0.00000
  12    O  1  pz     Val( 2p)     1.53487     0.17046
  13    O  1  pz     Ryd( 3p)     0.00336     0.00283
  14    O  1  pz     Ryd( 4p)     0.00001     0.00001
  15    O  1  dxy    Ryd( 3d)     0.00673    -0.00002
  16    O  1  dxy    Ryd( 4d)     0.00000     0.00000
  17    O  1  dxz    Ryd( 3d)     0.00169    -0.00007
  18    O  1  dxz    Ryd( 4d)     0.00001     0.00001
  19    O  1  dyz    Ryd( 3d)     0.00301     0.00008
  20    O  1  dyz    Ryd( 4d)     0.00002     0.00002
  21    O  1  dx2y2  Ryd( 3d)     0.00375     0.00000
  22    O  1  dx2y2  Ryd( 4d)     0.00004     0.00000
  23    O  1  dz2    Ryd( 3d)     0.00225     0.00004
  24    O  1  dz2    Ryd( 4d)     0.00000     0.00000
  25    O  1  f(0)   Ryd( 4f)     0.00005    -0.00001
  26    O  1  f(c1)  Ryd( 4f)     0.00002     0.00000
  27    O  1  f(s1)  Ryd( 4f)     0.00002     0.00000
  28    O  1  f(c2)  Ryd( 4f)     0.00001     0.00000
  29    O  1  f(s2)  Ryd( 4f)     0.00013     0.00000
  30    O  1  f(c3)  Ryd( 4f)     0.00011     0.00000
  31    O  1  f(s3)  Ryd( 4f)     0.00015     0.00000

  32    C  2  s      Cor( 1s)     1.99999     0.00000
  33    C  2  s      Val( 2s)     0.84952     0.00639
  34    C  2  s      Ryd( 3s)     0.00739     0.00017
  35    C  2  s      Ryd( 4s)     0.00012     0.00000
  36    C  2  s      Ryd( 5s)     0.00000     0.00000
  37    C  2  px     Val( 2p)     0.91313    -0.00017
  38    C  2  px     Ryd( 3p)     0.00776    -0.00014
  39    C  2  px     Ryd( 4p)     0.00020     0.00001
  40    C  2  py     Val( 2p)     0.86300     0.00215
  41    C  2  py     Ryd( 4p)     0.01045    -0.00015
  42    C  2  py     Ryd( 3p)     0.00021     0.00001
  43    C  2  pz     Val( 2p)     0.89122     0.17446
  44    C  2  pz     Ryd( 3p)     0.00265     0.00150
  45    C  2  pz     Ryd( 4p)     0.00027    -0.00001
  46    C  2  dxy    Ryd( 4d)     0.00061    -0.00002
  47    C  2  dxy    Ryd( 3d)     0.00073     0.00000
  48    C  2  dxz    Ryd( 4d)     0.00114     0.00041
  49    C  2  dxz    Ryd( 3d)     0.00060     0.00052
  50    C  2  dyz    Ryd( 4d)     0.00083     0.00008
  51    C  2  dyz    Ryd( 3d)     0.00035     0.00024
  52    C  2  dx2y2  Ryd( 4d)     0.00149     0.00001
  53    C  2  dx2y2  Ryd( 3d)     0.00055     0.00001
  54    C  2  dz2    Ryd( 4d)     0.00024    -0.00007
  55    C  2  dz2    Ryd( 3d)     0.00017    -0.00001
  56    C  2  f(0)   Ryd( 4f)     0.00021     0.00000
  57    C  2  f(c1)  Ryd( 4f)     0.00014    -0.00003
  58    C  2  f(s1)  Ryd( 4f)     0.00018    -0.00003
  59    C  2  f(c2)  Ryd( 4f)     0.00001     0.00000
  60    C  2  f(s2)  Ryd( 4f)     0.00007     0.00005
  61    C  2  f(c3)  Ryd( 4f)     0.00032     0.00001
  62    C  2  f(s3)  Ryd( 4f)     0.00015     0.00000

  63    C  3  s      Cor( 1s)     1.99999     0.00000
  64    C  3  s      Val( 2s)     1.07727    -0.00248
  65    C  3  s      Ryd( 3s)     0.00106    -0.00002
  66    C  3  s      Ryd( 4s)     0.00005     0.00000
  67    C  3  s      Ryd( 5s)     0.00000     0.00000
  68    C  3  px     Val( 2p)     1.09997    -0.00180
  69    C  3  px     Ryd( 3p)     0.00269    -0.00005
  70    C  3  px     Ryd( 4p)     0.00011     0.00000
  71    C  3  py     Val( 2p)     1.09194    -0.00595
  72    C  3  py     Ryd( 3p)     0.00098     0.00000
  73    C  3  py     Ryd( 4p)     0.00015    -0.00001
  74    C  3  pz     Val( 2p)     1.19926    -0.00483
  75    C  3  pz     Ryd( 3p)     0.00142     0.00050
  76    C  3  pz     Ryd( 4p)     0.00011     0.00006
  77    C  3  dxy    Ryd( 3d)     0.00094    -0.00001
  78    C  3  dxy    Ryd( 4d)     0.00010     0.00000
  79    C  3  dxz    Ryd( 3d)     0.00100     0.00013
  80    C  3  dxz    Ryd( 4d)     0.00025    -0.00001
  81    C  3  dyz    Ryd( 3d)     0.00053     0.00022
  82    C  3  dyz    Ryd( 4d)     0.00004     0.00000
  83    C  3  dx2y2  Ryd( 3d)     0.00098    -0.00002
  84    C  3  dx2y2  Ryd( 4d)     0.00018     0.00000
  85    C  3  dz2    Ryd( 3d)     0.00150    -0.00004
  86    C  3  dz2    Ryd( 4d)     0.00003     0.00000
  87    C  3  f(0)   Ryd( 4f)     0.00001     0.00000
  88    C  3  f(c1)  Ryd( 4f)     0.00045     0.00000
  89    C  3  f(s1)  Ryd( 4f)     0.00006     0.00000
  90    C  3  f(c2)  Ryd( 4f)     0.00002     0.00000
  91    C  3  f(s2)  Ryd( 4f)     0.00005     0.00002
  92    C  3  f(c3)  Ryd( 4f)     0.00011     0.00000
  93    C  3  f(s3)  Ryd( 4f)     0.00025     0.00000

  94    C  4  s      Cor( 1s)     1.99999     0.00000
  95    C  4  s      Val( 2s)     1.04385    -0.00016
  96    C  4  s      Ryd( 3s)     0.00062     0.00000
  97    C  4  s      Ryd( 4s)     0.00003     0.00000
  98    C  4  s      Ryd( 5s)     0.00000     0.00000
  99    C  4  px     Val( 2p)     1.03882    -0.00053
 100    C  4  px     Ryd( 3p)     0.00111    -0.00001
 101    C  4  px     Ryd( 4p)     0.00011     0.00000
 102    C  4  py     Val( 2p)     1.13083    -0.00042
 103    C  4  py     Ryd( 3p)     0.00177    -0.00001
 104    C  4  py     Ryd( 4p)     0.00018     0.00000
 105    C  4  pz     Val( 2p)     1.19394     0.00222
 106    C  4  pz     Ryd( 3p)     0.00089     0.00006
 107    C  4  pz     Ryd( 4p)     0.00013     0.00000
 108    C  4  dxy    Ryd( 3d)     0.00120    -0.00001
 109    C  4  dxy    Ryd( 4d)     0.00013     0.00000
 110    C  4  dxz    Ryd( 3d)     0.00034     0.00003
 111    C  4  dxz    Ryd( 4d)     0.00008     0.00000
 112    C  4  dyz    Ryd( 3d)     0.00113     0.00011
 113    C  4  dyz    Ryd( 4d)     0.00025     0.00007
 114    C  4  dx2y2  Ryd( 3d)     0.00021     0.00000
 115    C  4  dx2y2  Ryd( 4d)     0.00031     0.00000
 116    C  4  dz2    Ryd( 3d)     0.00162     0.00000
 117    C  4  dz2    Ryd( 4d)     0.00003     0.00000
 118    C  4  f(0)   Ryd( 4f)     0.00001     0.00000
 119    C  4  f(c1)  Ryd( 4f)     0.00003     0.00000
 120    C  4  f(s1)  Ryd( 4f)     0.00045     0.00000
 121    C  4  f(c2)  Ryd( 4f)     0.00005     0.00003
 122    C  4  f(s2)  Ryd( 4f)     0.00002     0.00000
 123    C  4  f(c3)  Ryd( 4f)     0.00005     0.00000
 124    C  4  f(s3)  Ryd( 4f)     0.00026     0.00000

 125    C  5  s      Cor( 1s)     1.99999     0.00000
 126    C  5  s      Val( 2s)     0.90334     0.00076
 127    C  5  s      Ryd( 3s)     0.00102    -0.00003
 128    C  5  s      Ryd( 4s)     0.00010     0.00000
 129    C  5  s      Ryd( 5s)     0.00000     0.00000
 130    C  5  px     Val( 2p)     1.03895    -0.00052
 131    C  5  px     Ryd( 3p)     0.00298    -0.00004
 132    C  5  px     Ryd( 4p)     0.00024     0.00000
 133    C  5  py     Val( 2p)     1.02790     0.00014
 134    C  5  py     Ryd( 3p)     0.00408     0.00000
 135    C  5  py     Ryd( 4p)     0.00014     0.00000
 136    C  5  pz     Val( 2p)     0.98104     0.03450
 137    C  5  pz     Ryd( 3p)     0.00212     0.00052
 138    C  5  pz     Ryd( 4p)     0.00014     0.00002
 139    C  5  dxy    Ryd( 3d)     0.00064    -0.00001
 140    C  5  dxy    Ryd( 4d)     0.00068     0.00000
 141    C  5  dxz    Ryd( 3d)     0.00079     0.00056
 142    C  5  dxz    Ryd( 4d)     0.00028    -0.00002
 143    C  5  dyz    Ryd( 3d)     0.00040     0.00001
 144    C  5  dyz    Ryd( 4d)     0.00011     0.00001
 145    C  5  dx2y2  Ryd( 3d)     0.00088     0.00001
 146    C  5  dx2y2  Ryd( 4d)     0.00049     0.00000
 147    C  5  dz2    Ryd( 3d)     0.00095    -0.00003
 148    C  5  dz2    Ryd( 4d)     0.00003     0.00000
 149    C  5  f(0)   Ryd( 4f)     0.00044     0.00002
 150    C  5  f(c1)  Ryd( 4f)     0.00052    -0.00002
 151    C  5  f(s1)  Ryd( 4f)     0.00040    -0.00001
 152    C  5  f(c2)  Ryd( 4f)     0.00006     0.00003
 153    C  5  f(s2)  Ryd( 4f)     0.00003     0.00000
 154    C  5  f(c3)  Ryd( 4f)     0.00047     0.00000
 155    C  5  f(s3)  Ryd( 4f)     0.00027     0.00000

 156    C  6  s      Cor( 1s)     1.99999     0.00000
 157    C  6  s      Val( 2s)     0.95449    -0.00010
 158    C  6  s      Ryd( 3s)     0.00102     0.00001
 159    C  6  s      Ryd( 4s)     0.00012     0.00000
 160    C  6  s      Ryd( 5s)     0.00000     0.00000
 161    C  6  px     Val( 2p)     1.07681    -0.00282
 162    C  6  px     Ryd( 3p)     0.00457     0.00005
 163    C  6  px     Ryd( 4p)     0.00050    -0.00001
 164    C  6  py     Val( 2p)     1.15467    -0.00173
 165    C  6  py     Ryd( 3p)     0.00324    -0.00001
 166    C  6  py     Ryd( 4p)     0.00037     0.00000
 167    C  6  pz     Val( 2p)     1.10829     0.05353
 168    C  6  pz     Ryd( 3p)     0.00721     0.00561
 169    C  6  pz     Ryd( 4p)     0.00027     0.00012
 170    C  6  dxy    Ryd( 3d)     0.00133    -0.00003
 171    C  6  dxy    Ryd( 4d)     0.00039     0.00000
 172    C  6  dxz    Ryd( 3d)     0.00041     0.00029
 173    C  6  dxz    Ryd( 4d)     0.00014     0.00000
 174    C  6  dyz    Ryd( 3d)     0.00029    -0.00002
 175    C  6  dyz    Ryd( 4d)     0.00011     0.00002
 176    C  6  dx2y2  Ryd( 3d)     0.00161     0.00002
 177    C  6  dx2y2  Ryd( 4d)     0.00022     0.00000
 178    C  6  dz2    Ryd( 3d)     0.00128    -0.00007
 179    C  6  dz2    Ryd( 4d)     0.00002     0.00000
 180    C  6  f(0)   Ryd( 4f)     0.00061     0.00008
 181    C  6  f(c1)  Ryd( 4f)     0.00041    -0.00002
 182    C  6  f(s1)  Ryd( 4f)     0.00052    -0.00002
 183    C  6  f(c2)  Ryd( 4f)     0.00002     0.00000
 184    C  6  f(s2)  Ryd( 4f)     0.00003     0.00001
 185    C  6  f(c3)  Ryd( 4f)     0.00058     0.00000
 186    C  6  f(s3)  Ryd( 4f)     0.00018     0.00000

 187    C  7  s      Cor( 1s)     1.99999     0.00000
 188    C  7  s      Val( 2s)     0.95710     0.01393
 189    C  7  s      Ryd( 3s)     0.00091     0.00000
 190    C  7  s      Ryd( 4s)     0.00053    -0.00001
 191    C  7  s      Ryd( 5s)     0.00000     0.00000
 192    C  7  px     Val( 2p)     0.89246     0.00997
 193    C  7  px     Ryd( 3p)     0.00472    -0.00001
 194    C  7  px     Ryd( 4p)     0.00142    -0.00002
 195    C  7  py     Val( 2p)     1.06734     0.00656
 196    C  7  py     Ryd( 3p)     0.00352     0.00004
 197    C  7  py     Ryd( 4p)     0.00040     0.00000
 198    C  7  pz     Val( 2p)     1.23420     0.25293
 199    C  7  pz     Ryd( 3p)     0.00335     0.00213
 200    C  7  pz     Ryd( 4p)     0.00106     0.00063
 201    C  7  dxy    Ryd( 3d)     0.00126    -0.00001
 202    C  7  dxy    Ryd( 4d)     0.00032     0.00000
 203    C  7  dxz    Ryd( 3d)     0.00163     0.00055
 204    C  7  dxz    Ryd( 4d)     0.00028     0.00005
 205    C  7  dyz    Ryd( 3d)     0.00024    -0.00005
 206    C  7  dyz    Ryd( 4d)     0.00020     0.00001
 207    C  7  dx2y2  Ryd( 3d)     0.00187     0.00002
 208    C  7  dx2y2  Ryd( 4d)     0.00043     0.00000
 209    C  7  dz2    Ryd( 3d)     0.00209    -0.00026
 210    C  7  dz2    Ryd( 4d)     0.00009     0.00000
 211    C  7  f(0)   Ryd( 4f)     0.00103     0.00026
 212    C  7  f(c1)  Ryd( 4f)     0.00058    -0.00005
 213    C  7  f(s1)  Ryd( 4f)     0.00053    -0.00005
 214    C  7  f(c2)  Ryd( 4f)     0.00002     0.00000
 215    C  7  f(s2)  Ryd( 4f)     0.00001     0.00000
 216    C  7  f(c3)  Ryd( 4f)     0.00070     0.00001
 217    C  7  f(s3)  Ryd( 4f)     0.00024     0.00000

 218   Br  8  s      Cor( 1s)     2.00000     0.00000
 219   Br  8  s      Cor( 2s)     2.00000     0.00000
 220   Br  8  s      Cor( 3s)     1.99999     0.00000
 221   Br  8  s      Val( 4s)     1.85243     0.00035
 222   Br  8  s      Ryd( 5s)     0.00114     0.00003
 223   Br  8  s      Ryd( 6s)     0.00000     0.00000
 224   Br  8  px     Cor( 2p)     2.00000     0.00000
 225   Br  8  px     Cor( 3p)     2.00000     0.00000
 226   Br  8  px     Val( 4p)     1.25023    -0.01443
 227   Br  8  px     Ryd( 5p)     0.00235    -0.00002
 228   Br  8  px     Ryd( 6p)     0.00005     0.00000
 229   Br  8  py     Cor( 2p)     2.00000     0.00000
 230   Br  8  py     Cor( 3p)     2.00000     0.00000
 231   Br  8  py     Val( 4p)     1.96594    -0.00020
 232   Br  8  py     Ryd( 5p)     0.00100     0.00001
 233   Br  8  py     Ryd( 6p)     0.00001     0.00000
 234   Br  8  pz     Cor( 2p)     2.00000     0.00000
 235   Br  8  pz     Cor( 3p)     2.00000     0.00000
 236   Br  8  pz     Val( 4p)     1.96648     0.01556
 237   Br  8  pz     Ryd( 5p)     0.00277     0.00152
 238   Br  8  pz     Ryd( 6p)     0.00004     0.00003
 239   Br  8  dxy    Cor( 3d)     1.99999     0.00000
 240   Br  8  dxy    Ryd( 4d)     0.00085    -0.00002
 241   Br  8  dxy    Ryd( 5d)     0.00006     0.00000
 242   Br  8  dxy    Ryd( 6d)     0.00000     0.00000
 243   Br  8  dxz    Cor( 3d)     1.99999     0.00000
 244   Br  8  dxz    Ryd( 4d)     0.00488     0.00220
 245   Br  8  dxz    Ryd( 5d)     0.00008     0.00003
 246   Br  8  dxz    Ryd( 6d)     0.00000     0.00000
 247   Br  8  dyz    Cor( 3d)     2.00000     0.00000
 248   Br  8  dyz    Ryd( 4d)     0.00036     0.00017
 249   Br  8  dyz    Ryd( 5d)     0.00004     0.00001
 250   Br  8  dyz    Ryd( 6d)     0.00000     0.00000
 251   Br  8  dx2y2  Cor( 3d)     1.99999     0.00000
 252   Br  8  dx2y2  Ryd( 5d)     0.00186     0.00000
 253   Br  8  dx2y2  Ryd( 4d)     0.00007     0.00000
 254   Br  8  dx2y2  Ryd( 6d)     0.00001     0.00000
 255   Br  8  dz2    Cor( 3d)     1.99999     0.00000
 256   Br  8  dz2    Ryd( 4d)     0.00061     0.00001
 257   Br  8  dz2    Ryd( 5d)     0.00004     0.00000
 258   Br  8  dz2    Ryd( 6d)     0.00000     0.00000
 259   Br  8  f(0)   Ryd( 4f)     0.00009     0.00001
 260   Br  8  f(c1)  Ryd( 4f)     0.00008    -0.00001
 261   Br  8  f(s1)  Ryd( 4f)     0.00001     0.00000
 262   Br  8  f(c2)  Ryd( 4f)     0.00011     0.00002
 263   Br  8  f(s2)  Ryd( 4f)     0.00002     0.00000
 264   Br  8  f(c3)  Ryd( 4f)     0.00014     0.00000
 265   Br  8  f(s3)  Ryd( 4f)     0.00011     0.00000

 266    C  9  s      Cor( 1s)     1.99999     0.00000
 267    C  9  s      Val( 2s)     0.96962    -0.00680
 268    C  9  s      Ryd( 3s)     0.00091     0.00000
 269    C  9  s      Ryd( 4s)     0.00008     0.00000
 270    C  9  s      Ryd( 5s)     0.00000     0.00000
 271    C  9  px     Val( 2p)     1.10409    -0.00683
 272    C  9  px     Ryd( 3p)     0.00479     0.00001
 273    C  9  px     Ryd( 4p)     0.00032    -0.00001
 274    C  9  py     Val( 2p)     1.11896    -0.00672
 275    C  9  py     Ryd( 3p)     0.00311     0.00003
 276    C  9  py     Ryd( 4p)     0.00015    -0.00001
 277    C  9  pz     Val( 2p)     1.01982    -0.07975
 278    C  9  pz     Ryd( 3p)     0.00225     0.00033
 279    C  9  pz     Ryd( 4p)     0.00019    -0.00003
 280    C  9  dxy    Ryd( 3d)     0.00080    -0.00001
 281    C  9  dxy    Ryd( 4d)     0.00049     0.00000
 282    C  9  dxz    Ryd( 3d)     0.00054     0.00029
[...]
   80. RY ( 5) O  1             0.00002     1.94614
   81. RY ( 6) O  1             0.00002     3.58396
   82. RY ( 7) O  1             0.00001     2.44692
   83. RY ( 8) O  1             0.00000     3.72224
   84. RY ( 9) O  1             0.00000     3.62845
   85. RY (10) O  1             0.00000     2.17734
   86. RY (11) O  1             0.00000     3.18206
   87. RY (12) O  1             0.00000     7.99128
   88. RY (13) O  1             0.00000     5.13161
   89. RY (14) O  1             0.00000    21.06153
   90. RY (15) O  1             0.00000     4.22463
   91. RY (16) O  1             0.00000     6.69543
   92. RY (17) O  1             0.00000    12.00016
   93. RY (18) O  1             0.00000     6.69229
   94. RY (19) O  1             0.00000     6.75313
   95. RY (20) O  1             0.00000     5.64197
   96. RY (21) O  1             0.00000     5.83128
   97. RY (22) O  1             0.00000     8.82913
   98. RY (23) O  1             0.00000     6.14334
   99. RY (24) O  1             0.00000     6.12898
  100. RY (25) O  1             0.00000    12.24565
  101. RY (26) O  1             0.00000     7.30121
  102. RY ( 1) C  2             0.00779     1.45070
  103. RY ( 2) C  2             0.00198     2.46057
  104. RY ( 3) C  2             0.00072     2.95810
  105. RY ( 4) C  2             0.00063     2.02901
  106. RY ( 5) C  2             0.00040     3.33355
  107. RY ( 6) C  2             0.00026     2.25316
  108. RY ( 7) C  2             0.00008     2.64096
  109. RY ( 8) C  2             0.00007     3.18274
  110. RY ( 9) C  2             0.00003     2.36944
  111. RY (10) C  2             0.00002     2.37462
  112. RY (11) C  2             0.00002     4.32073
  113. RY (12) C  2             0.00002     3.33615
  114. RY (13) C  2             0.00001     2.51519
  115. RY (14) C  2             0.00000     3.82391
  116. RY (15) C  2             0.00001     2.05181
  117. RY (16) C  2             0.00000     2.53730
  118. RY (17) C  2             0.00000     3.63514
  119. RY (18) C  2             0.00000     2.00258
  120. RY (19) C  2             0.00000    13.27442
  121. RY (20) C  2             0.00000     3.73813
  122. RY (21) C  2             0.00000     3.53042
  123. RY (22) C  2             0.00000     3.24417
  124. RY (23) C  2             0.00000     4.01150
  125. RY (24) C  2             0.00000     3.64123
  126. RY (25) C  2             0.00000     3.42714
  127. RY (26) C  2             0.00000     7.25622
  128. RY ( 1) C  3             0.00113     1.12147
  129. RY ( 2) C  3             0.00062     1.60261
  130. RY ( 3) C  3             0.00057     1.42319
  131. RY ( 4) C  3             0.00017     1.54904
  132. RY ( 5) C  3             0.00016     1.89811
  133. RY ( 6) C  3             0.00009     2.40300
  134. RY ( 7) C  3             0.00008     2.08907
  135. RY ( 8) C  3             0.00006     3.52391
  136. RY ( 9) C  3             0.00005     2.33154
  137. RY (10) C  3             0.00002     2.74418
  138. RY (11) C  3             0.00001     2.96047
  139. RY (12) C  3             0.00001     3.28400
  140. RY (13) C  3             0.00000     3.88409
  141. RY (14) C  3             0.00000     2.72660
  142. RY (15) C  3             0.00000     3.70019
  143. RY (16) C  3             0.00000     2.63898
  144. RY (17) C  3             0.00000     4.20798
  145. RY (18) C  3             0.00000     2.30321
  146. RY (19) C  3             0.00000    16.75419
  147. RY (20) C  3             0.00000     3.59786
  148. RY (21) C  3             0.00000     3.66005
  149. RY (22) C  3             0.00000     3.37056
  150. RY (23) C  3             0.00000     3.55299
  151. RY (24) C  3             0.00000     3.65753
  152. RY (25) C  3             0.00000     3.39159
  153. RY (26) C  3             0.00000     4.26320
  154. RY ( 1) C  4             0.00116     1.44764
  155. RY ( 2) C  4             0.00054     1.39301
  156. RY ( 3) C  4             0.00027     1.59559
  157. RY ( 4) C  4             0.00024     2.03051
  158. RY ( 5) C  4             0.00015     2.06743
  159. RY ( 6) C  4             0.00007     2.23200
  160. RY ( 7) C  4             0.00007     2.61671
  161. RY ( 8) C  4             0.00005     1.71784
  162. RY ( 9) C  4             0.00004     2.82587
  163. RY (10) C  4             0.00001     2.89380
  164. RY (11) C  4             0.00001     2.97173
  165. RY (12) C  4             0.00001     3.28209
  166. RY (13) C  4             0.00000     3.05500
  167. RY (14) C  4             0.00000     3.63376
  168. RY (15) C  4             0.00000     2.86275
  169. RY (16) C  4             0.00000     4.38717
  170. RY (17) C  4             0.00000     2.05429
  171. RY (18) C  4             0.00000     7.26847
  172. RY (19) C  4             0.00000     7.01482
  173. RY (20) C  4             0.00000     3.38612
  174. RY (21) C  4             0.00000     3.61934
  175. RY (22) C  4             0.00000     3.58986
  176. RY (23) C  4             0.00000     3.83064
  177. RY (24) C  4             0.00000     3.63932
  178. RY (25) C  4             0.00000     7.75335
  179. RY (26) C  4             0.00000     6.06008
  180. RY ( 1) C  5             0.00244     1.85458
  181. RY ( 2) C  5             0.00133     1.53825
  182. RY ( 3) C  5             0.00085     1.02681
  183. RY ( 4) C  5             0.00035     1.61950
  184. RY ( 5) C  5             0.00024     3.22445
  185. RY ( 6) C  5             0.00022     3.98167
  186. RY ( 7) C  5             0.00015     3.21169
  187. RY ( 8) C  5             0.00011     2.73815
  188. RY ( 9) C  5             0.00007     2.98714
  189. RY (10) C  5             0.00004     1.81086
  190. RY (11) C  5             0.00003     3.31629
  191. RY (12) C  5             0.00002     3.89333
  192. RY (13) C  5             0.00002     3.07870
  193. RY (14) C  5             0.00001     3.50656
  194. RY (15) C  5             0.00001     3.20889
  195. RY (16) C  5             0.00001     2.79496
  196. RY (17) C  5             0.00001     2.62473
  197. RY (18) C  5             0.00000     3.70246
  198. RY (19) C  5             0.00000     3.53406
  199. RY (20) C  5             0.00000    20.07608
  200. RY (21) C  5             0.00000     4.02611
  201. RY (22) C  5             0.00000     3.52686
  202. RY (23) C  5             0.00000     3.58654
  203. RY (24) C  5             0.00000     2.53047
  204. RY (25) C  5             0.00000     3.49535
  205. RY (26) C  5             0.00000     2.96230
  206. RY ( 1) C  6             0.00228     1.55741
  207. RY ( 2) C  6             0.00123     1.43229
  208. RY ( 3) C  6             0.00077     0.67183
  209. RY ( 4) C  6             0.00049     1.91373
  210. RY ( 5) C  6             0.00021     2.05983
  211. RY ( 6) C  6             0.00014     3.40799
  212. RY ( 7) C  6             0.00009     2.61796
  213. RY ( 8) C  6             0.00006     2.33010
  214. RY ( 9) C  6             0.00004     1.82401
  215. RY (10) C  6             0.00002     3.16524
  216. RY (11) C  6             0.00002     1.60472
  217. RY (12) C  6             0.00001     4.16348
  218. RY (13) C  6             0.00001     2.57692
  219. RY (14) C  6             0.00000     3.41759
  220. RY (15) C  6             0.00000     2.36884
  221. RY (16) C  6             0.00000     3.99053
  222. RY (17) C  6             0.00000    15.70302
  223. RY (18) C  6             0.00000     3.32419
  224. RY (19) C  6             0.00000     2.26972
  225. RY (20) C  6             0.00000     4.66637
  226. RY (21) C  6             0.00000     3.70175
  227. RY (22) C  6             0.00000     3.34223
  228. RY (23) C  6             0.00000     4.15611
  229. RY (24) C  6             0.00000     6.63853
  230. RY (25) C  6             0.00000     3.32141
  231. RY (26) C  6             0.00000     3.01032
  232. RY ( 1) C  7             0.00261     1.58166
  233. RY ( 2) C  7             0.00162     1.40369
  234. RY ( 3) C  7             0.00088     1.17339
  235. RY ( 4) C  7             0.00040     1.02658
  236. RY ( 5) C  7             0.00029     1.71131
  237. RY ( 6) C  7             0.00028     2.74482
  238. RY ( 7) C  7             0.00021     1.31999
  239. RY ( 8) C  7             0.00013     3.27294
  240. RY ( 9) C  7             0.00013     3.64231
  241. RY (10) C  7             0.00004     2.40840
  242. RY (11) C  7             0.00001     3.06272
  243. RY (12) C  7             0.00000     3.11038
  244. RY (13) C  7             0.00000     2.43623
  245. RY (14) C  7             0.00000     2.38110
  246. RY (15) C  7             0.00000     3.02661
  247. RY (16) C  7             0.00000     3.20819
  248. RY (17) C  7             0.00000     3.85401
  249. RY (18) C  7             0.00000     2.72383
  250. RY (19) C  7             0.00000    15.52259
  251. RY (20) C  7             0.00000     6.85160
  252. RY (21) C  7             0.00000     2.68785
  253. RY (22) C  7             0.00000     3.98532
  254. RY (23) C  7             0.00000     3.44975
  255. RY (24) C  7             0.00000     3.17488
  256. RY (25) C  7             0.00000     3.86927
  257. RY (26) C  7             0.00000     3.23229
  258. RY ( 1)Br  8             0.00192     0.86643
  259. RY ( 2)Br  8             0.00077     1.04994
  260. RY ( 3)Br  8             0.00018     0.87319
  261. RY ( 4)Br  8             0.00011     1.05363
  262. RY ( 5)Br  8             0.00009     0.64077
  263. RY ( 6)Br  8             0.00001     1.32181
  264. RY ( 7)Br  8             0.00001     1.36809
  265. RY ( 8)Br  8             0.00001     1.60033
  266. RY ( 9)Br  8             0.00000     1.15764
  267. RY (10)Br  8             0.00000     1.51259
  268. RY (11)Br  8             0.00000     3.14117
  269. RY (12)Br  8             0.00000     2.22155
  270. RY (13)Br  8             0.00000     1.91940
  271. RY (14)Br  8             0.00000     2.63924
  272. RY (15)Br  8             0.00000     1.49087
  273. RY (16)Br  8             0.00000     3.07424
  274. RY (17)Br  8             0.00000     4.50981
  275. RY (18)Br  8             0.00000     2.21572
  276. RY (19)Br  8             0.00000     3.64460
  277. RY (20)Br  8             0.00000     3.76648
  278. RY (21)Br  8             0.00000     3.17349
  279. RY (22)Br  8             0.00000     2.20909
  280. RY (23)Br  8             0.00000     4.09318
  281. RY (24)Br  8             0.00000     2.38544
  282. RY (25)Br  8             0.00000     3.29962
  283. RY (26)Br  8             0.00000     2.46562
  284. RY (27)Br  8             0.00000     2.23738
  285. RY (28)Br  8             0.00000     1.81285
  286. RY (29)Br  8             0.00000     2.43153
  287. RY (30)Br  8             0.00000     2.71388
  288. RY ( 1) C  9             0.00230     1.59964
  289. RY ( 2) C  9             0.00095     1.43658
  290. RY ( 3) C  9             0.00072     0.78817
  291. RY ( 4) C  9             0.00039     1.73257
  292. RY ( 5) C  9             0.00019     2.05726
  293. RY ( 6) C  9             0.00017     2.68453
  294. RY ( 7) C  9             0.00007     2.71330
  295. RY ( 8) C  9             0.00005     2.78488
  296. RY ( 9) C  9             0.00003     2.93186
  297. RY (10) C  9             0.00003     2.18998
  298. RY (11) C  9             0.00001     2.92757
  299. RY (12) C  9             0.00000     3.75705
  300. RY (13) C  9             0.00000     1.82747
  301. RY (14) C  9             0.00000     4.24245
  302. RY (15) C  9             0.00000     2.90362
  303. RY (16) C  9             0.00000     3.66470
  304. RY (17) C  9             0.00000    12.97614
  305. RY (18) C  9             0.00000     1.74940
  306. RY (19) C  9             0.00000     3.53003
  307. RY (20) C  9             0.00000     6.79509
  308. RY (21) C  9             0.00000     3.43768
  309. RY (22) C  9             0.00000     3.76925
  310. RY (23) C  9             0.00000     3.95866
  311. RY (24) C  9             0.00000     6.01203
  312. RY (25) C  9             0.00000     3.02189
  313. RY (26) C  9             0.00000     3.33033
  314. RY ( 1) C 10             0.00240     1.84720
  315. RY ( 2) C 10             0.00101     1.47233
  316. RY ( 3) C 10             0.00052     0.71124
  317. RY ( 4) C 10             0.00046     1.79727
  318. RY ( 5) C 10             0.00019     3.20218
  319. RY ( 6) C 10             0.00017     3.52635
  320. RY ( 7) C 10             0.00009     2.50599
  321. RY ( 8) C 10             0.00005     2.56326
  322. RY ( 9) C 10             0.00002     1.61389
  323. RY (10) C 10             0.00002     3.12520
  324. RY (11) C 10             0.00001     2.72515
  325. RY (12) C 10             0.00001     3.15150
  326. RY (13) C 10             0.00001     2.82480
  327. RY (14) C 10             0.00000     3.87994
  328. RY (15) C 10             0.00000     4.07578
  329. RY (16) C 10             0.00000     1.66492
  330. RY (17) C 10             0.00000     3.25204
  331. RY (18) C 10             0.00000     2.68739
  332. RY (19) C 10             0.00000    14.33879
  333. RY (20) C 10             0.00000     5.51967
  334. RY (21) C 10             0.00000     3.85720
  335. RY (22) C 10             0.00000     3.23328
  336. RY (23) C 10             0.00000     4.35633
  337. RY (24) C 10             0.00000     5.56032
  338. RY (25) C 10             0.00000     3.02829
  339. RY (26) C 10             0.00000     3.43192
  340. RY ( 1) C 11             0.00313     1.60945
  341. RY ( 2) C 11             0.00138     1.81889
  342. RY ( 3) C 11             0.00075     0.87611
  343. RY ( 4) C 11             0.00057     1.65583
  344. RY ( 5) C 11             0.00025     2.21068
  345. RY ( 6) C 11             0.00016     2.97651
  346. RY ( 7) C 11             0.00016     3.86378
  347. RY ( 8) C 11             0.00013     3.32171
  348. RY ( 9) C 11             0.00012     2.87735
  349. RY (10) C 11             0.00006     3.39856
  350. RY (11) C 11             0.00004     2.58255
  351. RY (12) C 11             0.00004     1.95130
  352. RY (13) C 11             0.00002     3.22446
  353. RY (14) C 11             0.00002     3.78956
  354. RY (15) C 11             0.00001     3.97087
  355. RY (16) C 11             0.00000     2.99271
  356. RY (17) C 11             0.00000     4.99570
  357. RY (18) C 11             0.00000     2.49904
  358. RY (19) C 11             0.00000     2.28824
  359. RY (20) C 11             0.00000     6.48375
  360. RY (21) C 11             0.00000     3.53953
  361. RY (22) C 11             0.00000     6.98874
  362. RY (23) C 11             0.00000     7.53073
  363. RY (24) C 11             0.00000     3.23273
  364. RY (25) C 11             0.00000     3.26586
  365. RY (26) C 11             0.00000    10.58263
  366. RY ( 1) H 12             0.00033     0.73291
  367. RY ( 2) H 12             0.00006     2.59678
  368. RY ( 3) H 12             0.00003     2.51590
  369. RY ( 4) H 12             0.00001     2.53108
  370. RY ( 5) H 12             0.00001     2.80843
  371. RY ( 1) H 13             0.00033     0.73285
  372. RY ( 2) H 13             0.00006     2.59678
  373. RY ( 3) H 13             0.00003     2.51589
  374. RY ( 4) H 13             0.00001     2.53102
  375. RY ( 5) H 13             0.00001     2.80855
  376. RY ( 1) H 14             0.00042     0.89827
  377. RY ( 2) H 14             0.00007     2.57330
  378. RY ( 3) H 14             0.00003     2.57660
  379. RY ( 4) H 14             0.00001     2.48686
  380. RY ( 5) H 14             0.00000     2.66665
  381. RY ( 1) H 15             0.00042     0.89827
  382. RY ( 2) H 15             0.00007     2.57330
  383. RY ( 3) H 15             0.00003     2.57661
  384. RY ( 4) H 15             0.00001     2.48687
  385. RY ( 5) H 15             0.00000     2.66665
  386. RY ( 1) H 16             0.00059     0.71910
  387. RY ( 2) H 16             0.00008     2.37725
  388. RY ( 3) H 16             0.00005     2.33944
  389. RY ( 4) H 16             0.00004     2.69933
  390. RY ( 5) H 16             0.00000     3.21703
  391. RY ( 1) H 17             0.00036     0.72921
  392. RY ( 2) H 17             0.00008     2.35101
  393. RY ( 3) H 17             0.00005     2.26883
  394. RY ( 4) H 17             0.00004     2.69766
  395. RY ( 5) H 17             0.00000     3.17021
  396. RY ( 1) H 18             0.00054     0.86553
  397. RY ( 2) H 18             0.00006     2.17840
  398. RY ( 3) H 18             0.00005     2.39270
  399. RY ( 4) H 18             0.00003     2.76763
  400. RY ( 5) H 18             0.00000     3.20512
          -------------------------------
                 Total Lewis   51.16942  ( 98.4027%)
           Valence non-Lewis    0.76922  (  1.4793%)
           Rydberg non-Lewis    0.06135  (  0.1180%)
          -------------------------------
               Total unit  1   52.00000  (100.0000%)
              Charge unit  1    0.00000

 $CHOOSE
  ALPHA
   LONE 1 3 7 1 8 3 END
   BOND S 1 2 S 2 3 D 2 11 S 3 4 S 3 12 S 3 13 S 4 5 S 4 14 S 4 15 D 5 6 S 5 11
        S 6 7 S 6 16 S 7 8 S 7 9 D 9 10 S 9 17 S 10 11 S 10 18 END
  END
  BETA
   LONE 1 2 8 3 END
   BOND D 1 2 S 2 3 S 2 11 S 3 4 S 3 12 S 3 13 S 4 5 S 4 14 S 4 15 S 5 6 D 5 11
        D 6 7 S 6 16 S 7 8 S 7 9 D 9 10 S 9 17 S 10 11 S 10 18 END
  END
 $END

 NBO analysis completed in 8.56 CPU seconds (9 wall seconds)
 Maximum scratch memory used by NBO was 2025644 words (15.45 MB)
 Maximum scratch memory used by G16NBO was 330560 words (2.52 MB)

 Opening RunExU unformatted file "/home/rpaton/arbr500/tzvp/fukui/Gau-2229149.EUF"
 Read unf file /home/rpaton/arbr500/tzvp/fukui/Gau-2229149.EUF:
 Label Gaussian matrix elements                                         IVers= 2 NLab= 2 Version=ES64L-G16RevC.01
 Title arbr31_wb97xd_redcreated by GaussianPrep                        
 NAtoms=    18 NBasis=   400 NBsUse=   400 ICharg=    -1 Multip=     2 NE=   105 Len12L=8 Len4L=8 IOpCl= 1 ICGU=112
 GAUSSIAN SCALARS                    NI= 1 NR= 1 NTot=       1 LenBuf=    2 NRI=1 N=    1000
 NPA CHARGES                         NI= 0 NR= 1 NTot=      18 LenBuf= 2048 NRI=1 N=      18
 Recovered energy= -2996.63902013     dipole=     -2.058971936921     -1.291092025081     -0.000006264653
 Unable to Open any file for archive entry.
 1\1\GINC-DYNAMO\SP\UwB97XD\def2TZVP\C9H7Br1O1(1-,2)\RPATON\28-Sep-2024
 \0\\# pop=(nbo6,hirshfeld) wb97xd/def2tzvp\\arbr31_wb97xd_redcreated b
 y GaussianPrep\\-1,2\O,0,3.842002,1.383999,0.000033\C,0,3.08848,0.4462
 36,-0.00009\C,0,3.489015,-1.027561,0.00006\C,0,2.180142,-1.833225,-0.0
 0001\C,0,1.091039,-0.789083,-0.000029\C,0,-0.2815,-0.986043,-0.000025\
 C,0,-1.095831,0.133992,-0.000008\Br,0,-2.974557,-0.099347,0.000008\C,0
 ,-0.581978,1.430198,0.000006\C,0,0.786953,1.613436,-0.000002\C,0,1.609
 162,0.49545,-0.000029\H,0,4.108998,-1.221119,-0.875923\H,0,4.108832,-1
 .221011,0.876186\H,0,2.094657,-2.47798,0.87629\H,0,2.094724,-2.477951,
 -0.876338\H,0,-0.711268,-1.979071,-0.000022\H,0,-1.255175,2.275983,0.0
 00019\H,0,1.219802,2.605898,-0.000006\\Version=ES64L-G16RevC.01\State=
 2-A\HF=-2996.6390201\S2=0.769485\S2-1=0.\S2A=0.750221\RMSD=6.002e-09\D
 ipole=-2.0589718,-1.2910922,-0.0000063\Quadrupole=-21.0364127,9.198986
 8,11.8374259,-9.7281682,-0.0001954,-0.0000906\PG=C01 [X(C9H7Br1O1)]\\@
 The archive entry for this job was punched.


 ADVERTISING--  HE WHO HAS SOMETHING TO SELL AND GOES AND WHISPERS
                IN A WELL, IS NOT SO APT TO GET THE DOLLARS AS HE
                WHO CLIMBS A TREE AND HOLLERS.

                   -- FROM THE BACK OF A SUGAR PACKET
 Job cpu time:       0 days  1 hours 17 minutes 57.5 seconds.
 Elapsed time:       0 days  0 hours  3 minutes 16.7 seconds.
 File lengths (MBytes):  RWF=    157 Int=      0 D2E=      0 Chk=     12 Scr=      1
 Normal termination of Gaussian 16 at Sat Sep 28 21:20:03 2024.
