Job Start Time: Mon Jan 29 12:53:41 MST 2024
SLURM Job ID: 229702
SLURM Job Name: Ac4_rdkit_conf_1_AD_EA
 Entering Gaussian System, Link 0=/opt/apps/Gaussian/G16C/g16/g16
 Initial command:
 /opt/apps/Gaussian/G16C/g16/l1.exe "/tmp/Gau-2595211.inp" -scrdir="/tmp/"
 Entering Link 1 = /opt/apps/Gaussian/G16C/g16/l1.exe PID=   2595213.
  
 Copyright (c) 1988-2019, Gaussian, Inc.  All Rights Reserved.
  
 This is part of the Gaussian(R) 16 program.  It is based on
 the Gaussian(R) 09 system (copyright 2009, Gaussian, Inc.),
 the Gaussian(R) 03 system (copyright 2003, Gaussian, Inc.),
 the Gaussian(R) 98 system (copyright 1998, Gaussian, Inc.),
 the Gaussian(R) 94 system (copyright 1995, Gaussian, Inc.),
 the Gaussian 92(TM) system (copyright 1992, Gaussian, Inc.),
 the Gaussian 90(TM) system (copyright 1990, Gaussian, Inc.),
 the Gaussian 88(TM) system (copyright 1988, Gaussian, Inc.),
 the Gaussian 86(TM) system (copyright 1986, Carnegie Mellon
 University), and the Gaussian 82(TM) system (copyright 1983,
 Carnegie Mellon University). Gaussian is a federally registered
 trademark of Gaussian, Inc.
  
 This software contains proprietary and confidential information,
 including trade secrets, belonging to Gaussian, Inc.
  
 This software is provided under written license and may be
 used, copied, transmitted, or stored only in accord with that
 written license.
  
 The following legend is applicable only to US Government
 contracts under FAR:
  
                    RESTRICTED RIGHTS LEGEND
  
 Use, reproduction and disclosure by the US Government is
 subject to restrictions as set forth in subparagraphs (a)
 and (c) of the Commercial Computer Software - Restricted
 Rights clause in FAR 52.227-19.
  
 Gaussian, Inc.
 340 Quinnipiac St., Bldg. 40, Wallingford CT 06492
  
  
 ---------------------------------------------------------------
 Warning -- This program may not be used in any manner that
 competes with the business of Gaussian, Inc. or will provide
 assistance to any competitor of Gaussian, Inc.  The licensee
 of this program is prohibited from giving any competitor of
 Gaussian, Inc. access to this program.  By using this program,
 the user acknowledges that Gaussian, Inc. is engaged in the
 business of creating and licensing software in the field of
 computational chemistry and represents and warrants to the
 licensee that it is not a competitor of Gaussian, Inc. and that
 it will not use this program in any manner prohibited above.
 ---------------------------------------------------------------
  

 Cite this work as:
 Gaussian 16, Revision C.01,
 M. J. Frisch, G. W. Trucks, H. B. Schlegel, G. E. Scuseria, 
 M. A. Robb, J. R. Cheeseman, G. Scalmani, V. Barone, 
 G. A. Petersson, H. Nakatsuji, X. Li, M. Caricato, A. V. Marenich, 
 J. Bloino, B. G. Janesko, R. Gomperts, B. Mennucci, H. P. Hratchian, 
 J. V. Ortiz, A. F. Izmaylov, J. L. Sonnenberg, D. Williams-Young, 
 F. Ding, F. Lipparini, F. Egidi, J. Goings, B. Peng, A. Petrone, 
 T. Henderson, D. Ranasinghe, V. G. Zakrzewski, J. Gao, N. Rega, 
 G. Zheng, W. Liang, M. Hada, M. Ehara, K. Toyota, R. Fukuda, 
 J. Hasegawa, M. Ishida, T. Nakajima, Y. Honda, O. Kitao, H. Nakai, 
 T. Vreven, K. Throssell, J. A. Montgomery, Jr., J. E. Peralta, 
 F. Ogliaro, M. J. Bearpark, J. J. Heyd, E. N. Brothers, K. N. Kudin, 
 V. N. Staroverov, T. A. Keith, R. Kobayashi, J. Normand, 
 K. Raghavachari, A. P. Rendell, J. C. Burant, S. S. Iyengar, 
 J. Tomasi, M. Cossi, J. M. Millam, M. Klene, C. Adamo, R. Cammi, 
 J. W. Ochterski, R. L. Martin, K. Morokuma, O. Farkas, 
 J. B. Foresman, and D. J. Fox, Gaussian, Inc., Wallingford CT, 2019.
 
 ******************************************
 Gaussian 16:  AS64L-G16RevC.01  3-Jul-2019
                29-Jan-2024 
 ******************************************
 %nprocshared=8
 Will use up to    8 processors via shared memory.
 %mem=16GB
 ---------------------------------
 # m062x/def2tzvp opt freq=noraman
 ---------------------------------
 1/18=20,19=15,26=3,38=1/1,3;
 2/9=110,12=2,17=6,18=5,40=1/2;
 3/5=44,7=101,11=2,25=1,30=1,71=1,74=-55/1,2,3;
 4//1;
 5/5=2,38=5/2;
 6/7=2,8=2,9=2,10=2,28=1/1;
 7//1,2,3,16;
 1/18=20,19=15,26=3/3(2);
 2/9=110/2;
 99//99;
 2/9=110/2;
 3/5=44,7=101,11=2,25=1,30=1,71=1,74=-55/1,2,3;
 4/5=5,16=3,69=1/1;
 5/5=2,38=5/2;
 7//1,2,3,16;
 1/18=20,19=15,26=3/3(-5);
 2/9=110/2;
 6/7=2,8=2,9=2,10=2,19=2,28=1/1;
 99/9=1/99;
 ----------------------
 Ac4_rdkit_conf_1_AD_EA
 ----------------------
 Symbolic Z-matrix:
 Charge = -1 Multiplicity = 2
 C                    -2.0465   -2.26067  -0.05619 
 O                    -0.78472  -1.63121  -0.03365 
 C                    -0.73337  -0.29098  -0.00378 
 C                    -1.87575   0.51093   0.00266 
 C                    -1.76295   1.89222   0.02171 
 C                    -0.51967   2.50367   0.02967 
 C                     0.61595   1.71255   0.01968 
 C                     0.53564   0.32216   0.00832 
 C                     1.78434  -0.48375   0.02403 
 O                     1.87782  -1.66792   0.18366 
 O                     2.88426   0.28664  -0.15822 
 H                    -2.62646  -2.01748   0.83768 
 H                    -2.61432  -1.9792   -0.9468 
 H                    -1.84393  -3.32751  -0.07715 
 H                    -2.85666   0.0609   -0.00764 
 H                    -2.66396   2.4925    0.02866 
 H                    -0.43425   3.58111   0.04324 
 H                     1.59522   2.16871   0.02499 
 H                     3.63924  -0.31589  -0.1139 
 

 GradGradGradGradGradGradGradGradGradGradGradGradGradGradGradGradGradGrad
 Berny optimization.
 Initialization pass.
                           ----------------------------
                           !    Initial Parameters    !
                           ! (Angstroms and Degrees)  !
 --------------------------                            --------------------------
 ! Name  Definition              Value          Derivative Info.                !
 --------------------------------------------------------------------------------
 ! R1    R(1,2)                  1.4102         estimate D2E/DX2                !
 ! R2    R(1,12)                 1.0929         estimate D2E/DX2                !
 ! R3    R(1,13)                 1.0931         estimate D2E/DX2                !
 ! R4    R(1,14)                 1.0861         estimate D2E/DX2                !
 ! R5    R(2,3)                  1.3415         estimate D2E/DX2                !
 ! R6    R(3,4)                  1.3958         estimate D2E/DX2                !
 ! R7    R(3,8)                  1.4094         estimate D2E/DX2                !
 ! R8    R(4,5)                  1.386          estimate D2E/DX2                !
 ! R9    R(4,15)                 1.0793         estimate D2E/DX2                !
 ! R10   R(5,6)                  1.3855         estimate D2E/DX2                !
 ! R11   R(5,16)                 1.0827         estimate D2E/DX2                !
 ! R12   R(6,7)                  1.3841         estimate D2E/DX2                !
 ! R13   R(6,17)                 1.0809         estimate D2E/DX2                !
 ! R14   R(7,8)                  1.3928         estimate D2E/DX2                !
 ! R15   R(7,18)                 1.0803         estimate D2E/DX2                !
 ! R16   R(8,9)                  1.4863         estimate D2E/DX2                !
 ! R17   R(9,10)                 1.1985         estimate D2E/DX2                !
 ! R18   R(9,11)                 1.3552         estimate D2E/DX2                !
 ! R19   R(11,19)                0.967          estimate D2E/DX2                !
 ! A1    A(2,1,12)             111.247          estimate D2E/DX2                !
 ! A2    A(2,1,13)             111.2771         estimate D2E/DX2                !
 ! A3    A(2,1,14)             105.7749         estimate D2E/DX2                !
 ! A4    A(12,1,13)            109.4764         estimate D2E/DX2                !
 ! A5    A(12,1,14)            109.4701         estimate D2E/DX2                !
 ! A6    A(13,1,14)            109.5174         estimate D2E/DX2                !
 ! A7    A(1,2,3)              118.7184         estimate D2E/DX2                !
 ! A8    A(2,3,4)              122.871          estimate D2E/DX2                !
 ! A9    A(2,3,8)              117.9859         estimate D2E/DX2                !
 ! A10   A(4,3,8)              119.1401         estimate D2E/DX2                !
 ! A11   A(3,4,5)              120.3998         estimate D2E/DX2                !
 ! A12   A(3,4,15)             120.2826         estimate D2E/DX2                !
 ! A13   A(5,4,15)             119.3176         estimate D2E/DX2                !
 ! A14   A(4,5,6)              120.8581         estimate D2E/DX2                !
 ! A15   A(4,5,16)             119.0061         estimate D2E/DX2                !
 ! A16   A(6,5,16)             120.1357         estimate D2E/DX2                !
 ! A17   A(5,6,7)              118.945          estimate D2E/DX2                !
 ! A18   A(5,6,17)             120.7227         estimate D2E/DX2                !
 ! A19   A(7,6,17)             120.3322         estimate D2E/DX2                !
 ! A20   A(6,7,8)              121.5588         estimate D2E/DX2                !
 ! A21   A(6,7,18)             120.1566         estimate D2E/DX2                !
 ! A22   A(8,7,18)             118.284          estimate D2E/DX2                !
 ! A23   A(3,8,7)              119.0963         estimate D2E/DX2                !
 ! A24   A(3,8,9)              121.3766         estimate D2E/DX2                !
 ! A25   A(7,8,9)              119.5238         estimate D2E/DX2                !
 ! A26   A(8,9,10)             127.0617         estimate D2E/DX2                !
 ! A27   A(8,9,11)             111.8532         estimate D2E/DX2                !
 ! A28   A(10,9,11)            121.0827         estimate D2E/DX2                !
 ! A29   A(9,11,19)            105.8616         estimate D2E/DX2                !
 ! D1    D(12,1,2,3)           -61.1564         estimate D2E/DX2                !
 ! D2    D(13,1,2,3)            61.209          estimate D2E/DX2                !
 ! D3    D(14,1,2,3)          -179.9373         estimate D2E/DX2                !
 ! D4    D(1,2,3,4)             -0.164          estimate D2E/DX2                !
 ! D5    D(1,2,3,8)           -179.5331         estimate D2E/DX2                !
 ! D6    D(2,3,4,5)           -179.4097         estimate D2E/DX2                !
 ! D7    D(2,3,4,15)             0.5602         estimate D2E/DX2                !
 ! D8    D(8,3,4,5)             -0.0476         estimate D2E/DX2                !
 ! D9    D(8,3,4,15)           179.9223         estimate D2E/DX2                !
 ! D10   D(2,3,8,7)            179.078          estimate D2E/DX2                !
 ! D11   D(2,3,8,9)             -1.5931         estimate D2E/DX2                !
 ! D12   D(4,3,8,7)             -0.3153         estimate D2E/DX2                !
 ! D13   D(4,3,8,9)            179.0136         estimate D2E/DX2                !
 ! D14   D(3,4,5,6)              0.2424         estimate D2E/DX2                !
 ! D15   D(3,4,5,16)          -179.8608         estimate D2E/DX2                !
 ! D16   D(15,4,5,6)          -179.7278         estimate D2E/DX2                !
 ! D17   D(15,4,5,16)            0.169          estimate D2E/DX2                !
 ! D18   D(4,5,6,7)             -0.0656         estimate D2E/DX2                !
 ! D19   D(4,5,6,17)           179.92           estimate D2E/DX2                !
 ! D20   D(16,5,6,7)          -179.9612         estimate D2E/DX2                !
 ! D21   D(16,5,6,17)            0.0244         estimate D2E/DX2                !
 ! D22   D(5,6,7,8)             -0.3106         estimate D2E/DX2                !
 ! D23   D(5,6,7,18)           179.9609         estimate D2E/DX2                !
 ! D24   D(17,6,7,8)           179.7037         estimate D2E/DX2                !
 ! D25   D(17,6,7,18)           -0.0248         estimate D2E/DX2                !
 ! D26   D(6,7,8,3)              0.5008         estimate D2E/DX2                !
 ! D27   D(6,7,8,9)           -178.8407         estimate D2E/DX2                !
 ! D28   D(18,7,8,3)          -179.7657         estimate D2E/DX2                !
 ! D29   D(18,7,8,9)             0.8927         estimate D2E/DX2                !
 ! D30   D(3,8,9,10)            -9.3514         estimate D2E/DX2                !
 ! D31   D(3,8,9,11)           171.2167         estimate D2E/DX2                !
 ! D32   D(7,8,9,10)           169.9747         estimate D2E/DX2                !
 ! D33   D(7,8,9,11)            -9.4572         estimate D2E/DX2                !
 ! D34   D(8,9,11,19)          178.8091         estimate D2E/DX2                !
 ! D35   D(10,9,11,19)          -0.6616         estimate D2E/DX2                !
 --------------------------------------------------------------------------------
 Trust Radius=3.00D-01 FncErr=1.00D-07 GrdErr=1.00D-06 EigMax=2.50D+02 EigMin=1.00D-04
 Number of steps in this run=     93 maximum allowed number of steps=    114.
 GradGradGradGradGradGradGradGradGradGradGradGradGradGradGradGradGradGrad

                          Input orientation:                          
 ---------------------------------------------------------------------
 Center     Atomic      Atomic             Coordinates (Angstroms)
 Number     Number       Type             X           Y           Z
 ---------------------------------------------------------------------
      1          6           0       -2.046496   -2.260665   -0.056193
      2          8           0       -0.784718   -1.631211   -0.033646
      3          6           0       -0.733371   -0.290984   -0.003777
      4          6           0       -1.875750    0.510929    0.002664
      5          6           0       -1.762951    1.892223    0.021712
      6          6           0       -0.519669    2.503674    0.029674
      7          6           0        0.615952    1.712550    0.019679
      8          6           0        0.535641    0.322156    0.008315
      9          6           0        1.784342   -0.483754    0.024025
     10          8           0        1.877819   -1.667923    0.183657
     11          8           0        2.884264    0.286644   -0.158218
     12          1           0       -2.626459   -2.017476    0.837681
     13          1           0       -2.614323   -1.979204   -0.946801
     14          1           0       -1.843925   -3.327508   -0.077149
     15          1           0       -2.856661    0.060901   -0.007641
     16          1           0       -2.663958    2.492495    0.028658
     17          1           0       -0.434248    3.581107    0.043235
     18          1           0        1.595222    2.168712    0.024987
     19          1           0        3.639243   -0.315885   -0.113899
 ---------------------------------------------------------------------
                    Distance matrix (angstroms):
                    1          2          3          4          5
     1  C    0.000000
     2  O    1.410250   0.000000
     3  C    2.367845   1.341543   0.000000
     4  C    2.777472   2.404253   1.395756   0.000000
     5  C    4.163285   3.657129   2.413934   1.386023   0.000000
     6  C    5.003749   4.143855   2.803016   2.410543   1.385527
     7  C    4.783390   3.625667   2.415651   2.766362   2.385679
     8  C    3.652747   2.358125   1.409425   2.418775   2.783669
     9  C    4.223644   2.814259   2.525235   3.792904   4.269492
    10  O    3.976068   2.671642   2.957939   4.343896   5.094710
    11  O    5.550819   4.141873   3.666714   4.768010   4.920047
    12  H    1.092936   2.073746   2.696777   2.766523   4.086220
    13  H    1.093083   2.074224   2.697659   2.765454   4.080539
    14  H    1.086107   2.000309   3.234067   3.839399   5.221295
    15  H    2.459348   2.675232   2.152254   1.079267   2.133261
    16  H    4.793849   4.532149   3.387621   2.132733   1.082676
    17  H    6.060984   5.224653   3.883912   3.391986   2.149010
    18  H    5.734813   4.484079   3.387223   3.846608   3.369537
    19  H    6.009420   4.616054   4.374071   5.577845   5.837622
                    6          7          8          9         10
     6  C    0.000000
     7  C    1.384056   0.000000
     8  C    2.423460   1.392758   0.000000
     9  C    3.772695   2.487751   1.486268   0.000000
    10  O    4.813926   3.612035   2.406782   1.198531   0.000000
    11  O    4.066606   2.685162   2.354788   1.355195   2.224892
    12  H    5.052943   5.009536   4.020025   4.740201   4.564916
    13  H    5.043538   4.999781   4.016314   4.746275   4.642647
    14  H    5.980614   5.609149   4.357716   4.611019   4.083334
    15  H    3.380838   3.845482   3.402385   4.672961   5.043880
    16  H    2.144318   3.371380   3.866293   5.352145   6.161237
    17  H    1.080899   2.143590   3.400392   4.630940   5.737394
    18  H    2.141258   1.080316   2.129028   2.659200   3.850299
    19  H    5.026637   3.643169   3.170864   1.867582   2.240348
                   11         12         13         14         15
    11  O    0.000000
    12  H    6.055481   0.000000
    13  H    5.999199   1.784934   0.000000
    14  H    5.951843   1.779173   1.779812   0.000000
    15  H    5.747334   2.255485   2.258933   3.537200   0.000000
    16  H    5.973564   4.582113   4.577125   5.878442   2.439488
    17  H    4.680448   6.064739   6.053921   7.051996   4.273467
    18  H    2.288531   6.000603   5.989144   6.484335   4.925768
    19  H    0.966953   6.562007   6.524373   6.255906   6.507690
                   16         17         18         19
    16  H    0.000000
    17  H    2.481309   0.000000
    18  H    4.271471   2.472638   0.000000
    19  H    6.902004   5.639554   3.220331   0.000000
 Stoichiometry    C8H8O3(1-,2)
 Framework group  C1[X(C8H8O3)]
 Deg. of freedom    51
 Full point group                 C1      NOp   1
 Largest Abelian subgroup         C1      NOp   1
 Largest concise Abelian subgroup C1      NOp   1
                         Standard orientation:                         
 ---------------------------------------------------------------------
 Center     Atomic      Atomic             Coordinates (Angstroms)
 Number     Number       Type             X           Y           Z
 ---------------------------------------------------------------------
      1          6           0        2.046496   -2.260665    0.056193
      2          8           0        0.784718   -1.631211    0.033646
      3          6           0        0.733371   -0.290984    0.003777
      4          6           0        1.875750    0.510929   -0.002664
      5          6           0        1.762951    1.892223   -0.021712
      6          6           0        0.519669    2.503674   -0.029674
      7          6           0       -0.615952    1.712550   -0.019679
      8          6           0       -0.535641    0.322156   -0.008315
      9          6           0       -1.784342   -0.483754   -0.024025
     10          8           0       -1.877819   -1.667923   -0.183657
     11          8           0       -2.884264    0.286644    0.158218
     12          1           0        2.626459   -2.017476   -0.837681
     13          1           0        2.614323   -1.979204    0.946801
     14          1           0        1.843925   -3.327508    0.077149
     15          1           0        2.856661    0.060901    0.007641
     16          1           0        2.663958    2.492495   -0.028658
     17          1           0        0.434247    3.581107   -0.043235
     18          1           0       -1.595222    2.168712   -0.024987
     19          1           0       -3.639243   -0.315885    0.113899
 ---------------------------------------------------------------------
 Rotational constants (GHZ):           1.4203255           1.1555472           0.6414600
 Standard basis: def2TZVP (5D, 7F)
 There are   444 symmetry adapted cartesian basis functions of A   symmetry.
 There are   389 symmetry adapted basis functions of A   symmetry.
   389 basis functions,   625 primitive gaussians,   444 cartesian basis functions
    41 alpha electrons       40 beta electrons
       nuclear repulsion energy       596.8247346160 Hartrees.
 NAtoms=   19 NActive=   19 NUniq=   19 SFac= 1.00D+00 NAtFMM=   60 NAOKFM=F Big=F
 Integral buffers will be    131072 words long.
 Raffenetti 2 integral format.
 Two-electron integral symmetry is turned on.
 One-electron integrals computed using PRISM.
   1 Symmetry operations used in ECPInt.
 ECPInt:  NShTT=   11781 NPrTT=   36312 LenC2=   11250 LenP2D=   26645.
 LDataN:  DoStor=T MaxTD1= 6 Len=  172
 NBasis=   389 RedAO= T EigKep=  7.69D-06  NBF=   389
 NBsUse=   389 1.00D-06 EigRej= -1.00D+00 NBFU=   389
 ExpMin= 9.52D-02 ExpMax= 2.70D+04 ExpMxC= 9.22D+02 IAcc=3 IRadAn=         5 AccDes= 0.00D+00
 Harris functional with IExCor= 1009 and IRadAn=       5 diagonalized for initial guess.
 HarFok:  IExCor= 1009 AccDes= 0.00D+00 IRadAn=         5 IDoV= 1 UseB2=F ITyADJ=14
 ICtDFT=  3500011 ScaDFX=  1.000000  1.000000  1.000000  1.000000
 FoFCou: FMM=F IPFlag=           0 FMFlag=      100000 FMFlg1=           0
         NFxFlg=           0 DoJE=T BraDBF=F KetDBF=T FulRan=T
         wScrn=  0.000000 ICntrl=       500 IOpCl=  0 I1Cent=   200000004 NGrid=           0
         NMat0=    1 NMatS0=      1 NMatT0=    0 NMatD0=    1 NMtDS0=    0 NMtDT0=    0
 Petite list used in FoFCou.
 Initial guess <Sx>= 0.0000 <Sy>= 0.0000 <Sz>= 0.5000 <S**2>= 0.7500 S= 0.5000
 Requested convergence on RMS density matrix=1.00D-08 within 128 cycles.
 Requested convergence on MAX density matrix=1.00D-06.
 Requested convergence on             energy=1.00D-06.
 No special actions if energy rises.
 Integral accuracy reduced to 1.0D-05 until final iterations.
 Initial convergence to 1.0D-05 achieved.  Increase integral accuracy.
 SCF Done:  E(UM062X) =  -535.323802928     A.U. after   26 cycles
            NFock= 26  Conv=0.86D-08     -V/T= 2.0038
 <Sx>= 0.0000 <Sy>= 0.0000 <Sz>= 0.5000 <S**2>= 0.7626 S= 0.5063
 <L.S>=  0.00000000000    
 Annihilation of the first spin contaminant:
 S**2 before annihilation     0.7626,   after     0.7501

 **********************************************************************

            Population analysis using the SCF Density.

 **********************************************************************

 Orbital symmetries:
 Alpha Orbitals:
       Occupied  (A) (A) (A) (A) (A) (A) (A) (A) (A) (A) (A) (A)
                 (A) (A) (A) (A) (A) (A) (A) (A) (A) (A) (A) (A)
                 (A) (A) (A) (A) (A) (A) (A) (A) (A) (A) (A) (A)
                 (A) (A) (A) (A) (A)
       Virtual   (A) (A) (A) (A) (A) (A) (A) (A) (A) (A) (A) (A)
                 (A) (A) (A) (A) (A) (A) (A) (A) (A) (A) (A) (A)
                 (A) (A) (A) (A) (A) (A) (A) (A) (A) (A) (A) (A)
                 (A) (A) (A) (A) (A) (A) (A) (A) (A) (A) (A) (A)
                 (A) (A) (A) (A) (A) (A) (A) (A) (A) (A) (A) (A)
                 (A) (A) (A) (A) (A) (A) (A) (A) (A) (A) (A) (A)
                 (A) (A) (A) (A) (A) (A) (A) (A) (A) (A) (A) (A)
                 (A) (A) (A) (A) (A) (A) (A) (A) (A) (A) (A) (A)
                 (A) (A) (A) (A) (A) (A) (A) (A) (A) (A) (A) (A)
                 (A) (A) (A) (A) (A) (A) (A) (A) (A) (A) (A) (A)
                 (A) (A) (A) (A) (A) (A) (A) (A) (A) (A) (A) (A)
                 (A) (A) (A) (A) (A) (A) (A) (A) (A) (A) (A) (A)
                 (A) (A) (A) (A) (A) (A) (A) (A) (A) (A) (A) (A)
                 (A) (A) (A) (A) (A) (A) (A) (A) (A) (A) (A) (A)
                 (A) (A) (A) (A) (A) (A) (A) (A) (A) (A) (A) (A)
                 (A) (A) (A) (A) (A) (A) (A) (A) (A) (A) (A) (A)
                 (A) (A) (A) (A) (A) (A) (A) (A) (A) (A) (A) (A)
                 (A) (A) (A) (A) (A) (A) (A) (A) (A) (A) (A) (A)
                 (A) (A) (A) (A) (A) (A) (A) (A) (A) (A) (A) (A)
                 (A) (A) (A) (A) (A) (A) (A) (A) (A) (A) (A) (A)
                 (A) (A) (A) (A) (A) (A) (A) (A) (A) (A) (A) (A)
                 (A) (A) (A) (A) (A) (A) (A) (A) (A) (A) (A) (A)
                 (A) (A) (A) (A) (A) (A) (A) (A) (A) (A) (A) (A)
                 (A) (A) (A) (A) (A) (A) (A) (A) (A) (A) (A) (A)
                 (A) (A) (A) (A) (A) (A) (A) (A) (A) (A) (A) (A)
                 (A) (A) (A) (A) (A) (A) (A) (A) (A) (A) (A) (A)
                 (A) (A) (A) (A) (A) (A) (A) (A) (A) (A) (A) (A)
                 (A) (A) (A) (A) (A) (A) (A) (A) (A) (A) (A) (A)
                 (A) (A) (A) (A) (A) (A) (A) (A) (A) (A) (A) (A)
 Beta  Orbitals:
       Occupied  (A) (A) (A) (A) (A) (A) (A) (A) (A) (A) (A) (A)
                 (A) (A) (A) (A) (A) (A) (A) (A) (A) (A) (A) (A)
                 (A) (A) (A) (A) (A) (A) (A) (A) (A) (A) (A) (A)
                 (A) (A) (A) (A)
       Virtual   (A) (A) (A) (A) (A) (A) (A) (A) (A) (A) (A) (A)
                 (A) (A) (A) (A) (A) (A) (A) (A) (A) (A) (A) (A)
                 (A) (A) (A) (A) (A) (A) (A) (A) (A) (A) (A) (A)
                 (A) (A) (A) (A) (A) (A) (A) (A) (A) (A) (A) (A)
                 (A) (A) (A) (A) (A) (A) (A) (A) (A) (A) (A) (A)
                 (A) (A) (A) (A) (A) (A) (A) (A) (A) (A) (A) (A)
                 (A) (A) (A) (A) (A) (A) (A) (A) (A) (A) (A) (A)
                 (A) (A) (A) (A) (A) (A) (A) (A) (A) (A) (A) (A)
                 (A) (A) (A) (A) (A) (A) (A) (A) (A) (A) (A) (A)
                 (A) (A) (A) (A) (A) (A) (A) (A) (A) (A) (A) (A)
                 (A) (A) (A) (A) (A) (A) (A) (A) (A) (A) (A) (A)
                 (A) (A) (A) (A) (A) (A) (A) (A) (A) (A) (A) (A)
                 (A) (A) (A) (A) (A) (A) (A) (A) (A) (A) (A) (A)
                 (A) (A) (A) (A) (A) (A) (A) (A) (A) (A) (A) (A)
                 (A) (A) (A) (A) (A) (A) (A) (A) (A) (A) (A) (A)
                 (A) (A) (A) (A) (A) (A) (A) (A) (A) (A) (A) (A)
                 (A) (A) (A) (A) (A) (A) (A) (A) (A) (A) (A) (A)
                 (A) (A) (A) (A) (A) (A) (A) (A) (A) (A) (A) (A)
                 (A) (A) (A) (A) (A) (A) (A) (A) (A) (A) (A) (A)
                 (A) (A) (A) (A) (A) (A) (A) (A) (A) (A) (A) (A)
                 (A) (A) (A) (A) (A) (A) (A) (A) (A) (A) (A) (A)
                 (A) (A) (A) (A) (A) (A) (A) (A) (A) (A) (A) (A)
                 (A) (A) (A) (A) (A) (A) (A) (A) (A) (A) (A) (A)
                 (A) (A) (A) (A) (A) (A) (A) (A) (A) (A) (A) (A)
                 (A) (A) (A) (A) (A) (A) (A) (A) (A) (A) (A) (A)
                 (A) (A) (A) (A) (A) (A) (A) (A) (A) (A) (A) (A)
                 (A) (A) (A) (A) (A) (A) (A) (A) (A) (A) (A) (A)
                 (A) (A) (A) (A) (A) (A) (A) (A) (A) (A) (A) (A)
                 (A) (A) (A) (A) (A) (A) (A) (A) (A) (A) (A) (A)
                 (A)
 The electronic state is 2-A.
 Alpha  occ. eigenvalues --  -19.49760 -19.48735 -19.40803 -10.46352 -10.45595
 Alpha  occ. eigenvalues --  -10.42760 -10.36010 -10.35909 -10.34958 -10.34877
 Alpha  occ. eigenvalues --  -10.34596  -1.05143  -1.04055  -0.94881  -0.78225
 Alpha  occ. eigenvalues --   -0.69805  -0.67604  -0.63730  -0.56277  -0.51796
 Alpha  occ. eigenvalues --   -0.49755  -0.44793  -0.41072  -0.40715  -0.39655
 Alpha  occ. eigenvalues --   -0.39225  -0.35810  -0.35636  -0.34109  -0.31896
 Alpha  occ. eigenvalues --   -0.29198  -0.29007  -0.27423  -0.25187  -0.23577
 Alpha  occ. eigenvalues --   -0.23049  -0.22618  -0.15920  -0.14571  -0.11849
 Alpha  occ. eigenvalues --    0.04663
 Alpha virt. eigenvalues --    0.19590   0.20781   0.21233   0.22973   0.24411
 Alpha virt. eigenvalues --    0.25200   0.25297   0.26317   0.27963   0.29062
 Alpha virt. eigenvalues --    0.29303   0.31636   0.34929   0.36056   0.37284
 Alpha virt. eigenvalues --    0.37720   0.39221   0.39973   0.40657   0.40891
 Alpha virt. eigenvalues --    0.42033   0.42981   0.43428   0.45510   0.45871
 Alpha virt. eigenvalues --    0.48507   0.49013   0.49201   0.50246   0.51463
 Alpha virt. eigenvalues --    0.52719   0.53177   0.54760   0.55221   0.55984
 Alpha virt. eigenvalues --    0.56212   0.57406   0.57718   0.59209   0.60612
 Alpha virt. eigenvalues --    0.61097   0.61743   0.63537   0.64296   0.64365
 Alpha virt. eigenvalues --    0.64654   0.65401   0.67355   0.68097   0.68834
 Alpha virt. eigenvalues --    0.70116   0.70739   0.71799   0.72543   0.73838
 Alpha virt. eigenvalues --    0.74686   0.77494   0.77688   0.80504   0.80767
 Alpha virt. eigenvalues --    0.82507   0.84659   0.86689   0.86993   0.87984
 Alpha virt. eigenvalues --    0.89927   0.90300   0.92539   0.93357   0.94199
 Alpha virt. eigenvalues --    0.94979   0.96128   0.96737   0.98749   0.99633
 Alpha virt. eigenvalues --    1.02023   1.03279   1.03868   1.06453   1.07202
 Alpha virt. eigenvalues --    1.08293   1.10507   1.11542   1.13477   1.13776
 Alpha virt. eigenvalues --    1.15171   1.17188   1.17853   1.18906   1.20840
 Alpha virt. eigenvalues --    1.23314   1.26504   1.30165   1.31350   1.31671
 Alpha virt. eigenvalues --    1.32500   1.34668   1.40064   1.41584   1.42818
 Alpha virt. eigenvalues --    1.43826   1.45654   1.46545   1.48255   1.49283
 Alpha virt. eigenvalues --    1.52122   1.54045   1.56752   1.56914   1.60703
 Alpha virt. eigenvalues --    1.61822   1.63428   1.65050   1.65515   1.69225
 Alpha virt. eigenvalues --    1.69516   1.70455   1.71551   1.73069   1.74163
 Alpha virt. eigenvalues --    1.74699   1.74935   1.75334   1.79395   1.79794
 Alpha virt. eigenvalues --    1.83339   1.85340   1.87166   1.87495   1.90392
 Alpha virt. eigenvalues --    1.91271   1.91627   1.92925   1.94212   1.95848
 Alpha virt. eigenvalues --    1.99410   2.02941   2.03905   2.07013   2.07286
 Alpha virt. eigenvalues --    2.08365   2.08965   2.13074   2.14111   2.15854
 Alpha virt. eigenvalues --    2.17250   2.18677   2.19514   2.21117   2.25122
 Alpha virt. eigenvalues --    2.26048   2.26574   2.29793   2.30187   2.30659
 Alpha virt. eigenvalues --    2.32171   2.35561   2.38491   2.39457   2.41540
 Alpha virt. eigenvalues --    2.42414   2.43624   2.45114   2.46939   2.51131
 Alpha virt. eigenvalues --    2.53076   2.53670   2.54199   2.56186   2.59136
 Alpha virt. eigenvalues --    2.60165   2.60680   2.64899   2.67091   2.67838
 Alpha virt. eigenvalues --    2.71721   2.72466   2.73892   2.76532   2.78177
 Alpha virt. eigenvalues --    2.80709   2.83161   2.83694   2.84479   2.85467
 Alpha virt. eigenvalues --    2.87373   2.87881   2.88775   2.91765   2.92517
 Alpha virt. eigenvalues --    2.95567   2.96193   2.98164   2.99830   3.00669
 Alpha virt. eigenvalues --    3.01594   3.02177   3.02666   3.04275   3.04830
 Alpha virt. eigenvalues --    3.07887   3.08163   3.10341   3.10645   3.11547
 Alpha virt. eigenvalues --    3.13320   3.14260   3.18356   3.20200   3.21972
 Alpha virt. eigenvalues --    3.22588   3.23137   3.23413   3.25794   3.30873
 Alpha virt. eigenvalues --    3.31964   3.33439   3.33541   3.35512   3.35909
 Alpha virt. eigenvalues --    3.36702   3.37911   3.39040   3.41720   3.42317
 Alpha virt. eigenvalues --    3.42658   3.45102   3.46771   3.46932   3.48432
 Alpha virt. eigenvalues --    3.49716   3.50309   3.51087   3.51704   3.54278
 Alpha virt. eigenvalues --    3.55714   3.56087   3.58277   3.59657   3.60675
 Alpha virt. eigenvalues --    3.63042   3.65405   3.65532   3.66359   3.68209
 Alpha virt. eigenvalues --    3.70916   3.71955   3.72609   3.72841   3.74910
 Alpha virt. eigenvalues --    3.75095   3.79496   3.81819   3.84262   3.86222
 Alpha virt. eigenvalues --    3.91228   3.91734   3.99918   4.01490   4.03922
 Alpha virt. eigenvalues --    4.05586   4.05856   4.11127   4.13569   4.19374
 Alpha virt. eigenvalues --    4.23312   4.26995   4.28221   4.28980   4.32199
 Alpha virt. eigenvalues --    4.34562   4.34953   4.36539   4.38534   4.38996
 Alpha virt. eigenvalues --    4.40688   4.41633   4.47172   4.48936   4.53007
 Alpha virt. eigenvalues --    4.59186   4.62830   4.68161   4.69384   4.74310
 Alpha virt. eigenvalues --    4.75658   4.77592   4.80162   4.83155   4.90339
 Alpha virt. eigenvalues --    4.96416   5.01213   5.07828   5.09341   5.21347
 Alpha virt. eigenvalues --    5.31670   5.33325   5.35968   5.41624   5.41856
 Alpha virt. eigenvalues --    5.43804   5.48089   5.53755   5.54949   5.57907
 Alpha virt. eigenvalues --    5.65077   5.66442   5.72279   5.77163   5.85330
 Alpha virt. eigenvalues --    5.92443   6.01077   6.06267   6.10238   6.13583
 Alpha virt. eigenvalues --    6.20695   6.37689   6.47357   6.48568   6.51904
 Alpha virt. eigenvalues --    6.60032   6.63816   6.71663   6.74315   6.80877
 Alpha virt. eigenvalues --    6.87821   6.91765   6.99254   7.01034   7.02022
 Alpha virt. eigenvalues --    7.03039   7.11717   7.29311   7.33757   7.37186
 Alpha virt. eigenvalues --    7.54315   7.57644  22.47455  22.65873  22.92930
 Alpha virt. eigenvalues --   22.98102  23.17184  23.21875  23.58324  23.83041
 Alpha virt. eigenvalues --   44.15836  44.26231  44.58407
  Beta  occ. eigenvalues --  -19.49743 -19.48690 -19.40511 -10.46277 -10.45592
  Beta  occ. eigenvalues --  -10.42719 -10.36017 -10.35973 -10.34845 -10.34766
  Beta  occ. eigenvalues --  -10.34367  -1.04819  -1.03953  -0.94221  -0.77815
  Beta  occ. eigenvalues --   -0.69541  -0.67069  -0.63477  -0.55541  -0.51386
  Beta  occ. eigenvalues --   -0.49514  -0.44493  -0.40878  -0.40373  -0.39461
  Beta  occ. eigenvalues --   -0.38820  -0.35341  -0.34457  -0.33721  -0.31554
  Beta  occ. eigenvalues --   -0.28815  -0.28497  -0.27175  -0.24888  -0.22743
  Beta  occ. eigenvalues --   -0.22639  -0.20667  -0.15473  -0.12377  -0.10290
  Beta virt. eigenvalues --    0.18134   0.19294   0.21005   0.21305   0.22829
  Beta virt. eigenvalues --    0.24325   0.25189   0.26145   0.26701   0.28906
  Beta virt. eigenvalues --    0.29117   0.29609   0.31186   0.34601   0.35712
  Beta virt. eigenvalues --    0.37018   0.37889   0.39018   0.40356   0.40613
  Beta virt. eigenvalues --    0.40689   0.42064   0.42920   0.43095   0.45236
  Beta virt. eigenvalues --    0.45636   0.48431   0.48768   0.49262   0.50379
  Beta virt. eigenvalues --    0.51616   0.52335   0.53350   0.54586   0.55193
  Beta virt. eigenvalues --    0.55996   0.56192   0.57101   0.57761   0.59133
  Beta virt. eigenvalues --    0.60643   0.60942   0.61756   0.63515   0.63857
  Beta virt. eigenvalues --    0.64010   0.64850   0.65281   0.67274   0.68233
  Beta virt. eigenvalues --    0.68730   0.70281   0.70834   0.71856   0.72624
  Beta virt. eigenvalues --    0.73837   0.74769   0.77213   0.77802   0.80642
  Beta virt. eigenvalues --    0.80688   0.82387   0.84625   0.86592   0.86762
  Beta virt. eigenvalues --    0.87785   0.89722   0.90124   0.92537   0.93486
  Beta virt. eigenvalues --    0.94284   0.94853   0.96219   0.97033   0.98781
  Beta virt. eigenvalues --    0.99559   1.02186   1.03567   1.03729   1.06197
  Beta virt. eigenvalues --    1.07404   1.08707   1.10753   1.11684   1.13392
  Beta virt. eigenvalues --    1.13852   1.15141   1.17181   1.18167   1.19122
  Beta virt. eigenvalues --    1.20921   1.23261   1.26561   1.30409   1.31410
  Beta virt. eigenvalues --    1.31939   1.32706   1.34855   1.40341   1.41950
  Beta virt. eigenvalues --    1.43045   1.44014   1.46004   1.46809   1.48740
  Beta virt. eigenvalues --    1.49787   1.52420   1.54335   1.56977   1.57378
  Beta virt. eigenvalues --    1.61374   1.62208   1.63534   1.65759   1.65924
  Beta virt. eigenvalues --    1.69576   1.69969   1.71260   1.72078   1.73289
  Beta virt. eigenvalues --    1.74865   1.75100   1.75515   1.75630   1.79617
  Beta virt. eigenvalues --    1.80362   1.83639   1.85505   1.87544   1.88457
  Beta virt. eigenvalues --    1.91133   1.91646   1.92135   1.93411   1.95236
  Beta virt. eigenvalues --    1.96140   1.99657   2.03347   2.04179   2.07197
  Beta virt. eigenvalues --    2.07847   2.08953   2.09600   2.13446   2.14375
  Beta virt. eigenvalues --    2.16112   2.17591   2.19163   2.19930   2.21468
  Beta virt. eigenvalues --    2.25477   2.26420   2.26794   2.30258   2.30434
  Beta virt. eigenvalues --    2.31094   2.32624   2.35988   2.38974   2.39860
  Beta virt. eigenvalues --    2.41559   2.42906   2.43890   2.45579   2.47243
  Beta virt. eigenvalues --    2.51445   2.53465   2.53987   2.54781   2.57193
  Beta virt. eigenvalues --    2.59859   2.60707   2.60929   2.65262   2.67557
  Beta virt. eigenvalues --    2.68277   2.71915   2.72858   2.74559   2.77823
  Beta virt. eigenvalues --    2.78683   2.81386   2.83628   2.84259   2.85026
  Beta virt. eigenvalues --    2.86724   2.87785   2.88543   2.89933   2.92501
  Beta virt. eigenvalues --    2.93913   2.96485   2.96846   2.99182   3.00506
  Beta virt. eigenvalues --    3.01368   3.02546   3.02628   3.03223   3.05172
  Beta virt. eigenvalues --    3.05530   3.08780   3.09054   3.10892   3.11593
  Beta virt. eigenvalues --    3.12150   3.14237   3.15365   3.19324   3.21176
  Beta virt. eigenvalues --    3.22853   3.23571   3.23939   3.24842   3.26614
  Beta virt. eigenvalues --    3.31524   3.32934   3.34406   3.35203   3.36188
  Beta virt. eigenvalues --    3.36445   3.37314   3.38841   3.39955   3.42370
  Beta virt. eigenvalues --    3.43087   3.43453   3.45899   3.47293   3.47702
  Beta virt. eigenvalues --    3.49464   3.50710   3.51014   3.51968   3.53500
  Beta virt. eigenvalues --    3.55276   3.56514   3.57221   3.59159   3.60751
  Beta virt. eigenvalues --    3.61945   3.63842   3.66262   3.66317   3.67420
  Beta virt. eigenvalues --    3.68874   3.71862   3.72618   3.73469   3.73999
  Beta virt. eigenvalues --    3.75589   3.76037   3.80964   3.82507   3.84831
  Beta virt. eigenvalues --    3.87633   3.91888   3.92216   4.01012   4.02674
  Beta virt. eigenvalues --    4.04545   4.06764   4.07651   4.11800   4.14369
  Beta virt. eigenvalues --    4.20237   4.24207   4.28104   4.28523   4.30116
  Beta virt. eigenvalues --    4.34011   4.35390   4.36227   4.38358   4.39397
  Beta virt. eigenvalues --    4.40679   4.42102   4.43140   4.47974   4.50150
  Beta virt. eigenvalues --    4.53216   4.60314   4.63734   4.68991   4.70256
  Beta virt. eigenvalues --    4.75700   4.76918   4.79665   4.81510   4.83773
  Beta virt. eigenvalues --    4.91658   4.97641   5.02153   5.09172   5.11634
  Beta virt. eigenvalues --    5.23400   5.32640   5.34320   5.36226   5.42156
  Beta virt. eigenvalues --    5.42644   5.44720   5.49361   5.53882   5.56207
  Beta virt. eigenvalues --    5.58106   5.66084   5.66936   5.72571   5.77577
  Beta virt. eigenvalues --    5.86234   5.92623   6.01624   6.06697   6.10604
  Beta virt. eigenvalues --    6.14058   6.20993   6.38496   6.47660   6.48772
  Beta virt. eigenvalues --    6.52812   6.60435   6.64710   6.72111   6.75617
  Beta virt. eigenvalues --    6.80936   6.88143   6.91972   6.99421   7.02082
  Beta virt. eigenvalues --    7.02363   7.03406   7.11906   7.29774   7.33869
  Beta virt. eigenvalues --    7.37368   7.54603   7.57876  22.47624  22.65884
  Beta virt. eigenvalues --   22.93151  22.98323  23.17413  23.22156  23.58636
  Beta virt. eigenvalues --   23.83522  44.15831  44.26172  44.58408
          Condensed to atoms (all electrons):
               1          2          3          4          5          6
     1  C    4.919854   0.264459  -0.104318  -0.014593  -0.004147   0.001943
     2  O    0.264459   7.939602   0.411089  -0.096035   0.008491  -0.000219
     3  C   -0.104318   0.411089   5.107905   0.443341   0.008688  -0.075362
     4  C   -0.014593  -0.096035   0.443341   5.434225   0.206841   0.053215
     5  C   -0.004147   0.008491   0.008688   0.206841   5.409101   0.381693
     6  C    0.001943  -0.000219  -0.075362   0.053215   0.381693   5.049956
     7  C   -0.003261   0.000479   0.036141  -0.154328   0.013550   0.434212
     8  C    0.007150  -0.128073   0.199725  -0.037150  -0.078612  -0.000881
     9  C   -0.001562   0.011491  -0.146209   0.028816  -0.007359   0.013928
    10  O    0.000438  -0.029227   0.001854   0.005870  -0.001071   0.001097
    11  O    0.000014  -0.000503  -0.007596   0.000808   0.000046  -0.000930
    12  H    0.409535  -0.047248  -0.010172   0.017562  -0.002382  -0.000006
    13  H    0.410125  -0.044304  -0.008407   0.017556  -0.002541   0.000267
    14  H    0.400349  -0.041169   0.009611  -0.002012   0.000371  -0.000057
    15  H    0.003993  -0.005266  -0.059557   0.407501  -0.014382   0.001199
    16  H   -0.000197  -0.000233   0.006285  -0.048647   0.413197  -0.050701
    17  H   -0.000005   0.000024  -0.004988   0.016129  -0.067895   0.431530
    18  H    0.000053  -0.000084   0.017990  -0.005736   0.013160  -0.072561
    19  H    0.000003   0.000188   0.001165  -0.000108   0.000076  -0.000340
               7          8          9         10         11         12
     1  C   -0.003261   0.007150  -0.001562   0.000438   0.000014   0.409535
     2  O    0.000479  -0.128073   0.011491  -0.029227  -0.000503  -0.047248
     3  C    0.036141   0.199725  -0.146209   0.001854  -0.007596  -0.010172
     4  C   -0.154328  -0.037150   0.028816   0.005870   0.000808   0.017562
     5  C    0.013550  -0.078612  -0.007359  -0.001071   0.000046  -0.002382
     6  C    0.434212  -0.000881   0.013928   0.001097  -0.000930  -0.000006
     7  C    5.415296   0.156323  -0.056976   0.005491   0.032467   0.000075
     8  C    0.156323   6.209440   0.137622  -0.198362  -0.249094  -0.001830
     9  C   -0.056976   0.137622   4.709556   0.761083   0.391821   0.000361
    10  O    0.005491  -0.198362   0.761083   7.961924  -0.103943  -0.000109
    11  O    0.032467  -0.249094   0.391821  -0.103943   8.110343  -0.000001
    12  H    0.000075  -0.001830   0.000361  -0.000109  -0.000001   0.627517
    13  H   -0.000181  -0.006679  -0.000513  -0.000021   0.000001  -0.082291
    14  H    0.000146   0.002129  -0.000099   0.000604   0.000004  -0.027542
    15  H    0.002754   0.001530  -0.000457   0.000037   0.000014  -0.003543
    16  H    0.007749  -0.000899   0.000062  -0.000005  -0.000001   0.000002
    17  H   -0.067431   0.016056   0.000327   0.000011  -0.000181   0.000001
    18  H    0.435314  -0.038055  -0.023394   0.000396   0.013790   0.000001
    19  H   -0.006165   0.047275  -0.054980   0.010170   0.280762   0.000001
              13         14         15         16         17         18
     1  C    0.410125   0.400349   0.003993  -0.000197  -0.000005   0.000053
     2  O   -0.044304  -0.041169  -0.005266  -0.000233   0.000024  -0.000084
     3  C   -0.008407   0.009611  -0.059557   0.006285  -0.004988   0.017990
     4  C    0.017556  -0.002012   0.407501  -0.048647   0.016129  -0.005736
     5  C   -0.002541   0.000371  -0.014382   0.413197  -0.067895   0.013160
     6  C    0.000267  -0.000057   0.001199  -0.050701   0.431530  -0.072561
     7  C   -0.000181   0.000146   0.002754   0.007749  -0.067431   0.435314
     8  C   -0.006679   0.002129   0.001530  -0.000899   0.016056  -0.038055
     9  C   -0.000513  -0.000099  -0.000457   0.000062   0.000327  -0.023394
    10  O   -0.000021   0.000604   0.000037  -0.000005   0.000011   0.000396
    11  O    0.000001   0.000004   0.000014  -0.000001  -0.000181   0.013790
    12  H   -0.082291  -0.027542  -0.003543   0.000002   0.000001   0.000001
    13  H    0.628253  -0.027001  -0.004060  -0.000009   0.000002  -0.000000
    14  H   -0.027001   0.557919   0.000410   0.000001  -0.000000  -0.000001
    15  H   -0.004060   0.000410   0.575236  -0.006247  -0.000482   0.000088
    16  H   -0.000009   0.000001  -0.006247   0.613091  -0.008443  -0.000436
    17  H    0.000002  -0.000000  -0.000482  -0.008443   0.618591  -0.008751
    18  H   -0.000000  -0.000001   0.000088  -0.000436  -0.008751   0.557002
    19  H   -0.000000  -0.000002  -0.000003   0.000001  -0.000008  -0.000099
              19
     1  C    0.000003
     2  O    0.000188
     3  C    0.001165
     4  C   -0.000108
     5  C    0.000076
     6  C   -0.000340
     7  C   -0.006165
     8  C    0.047275
     9  C   -0.054980
    10  O    0.010170
    11  O    0.280762
    12  H    0.000001
    13  H   -0.000000
    14  H   -0.000002
    15  H   -0.000003
    16  H    0.000001
    17  H   -0.000008
    18  H   -0.000099
    19  H    0.436390
          Atomic-Atomic Spin Densities.
               1          2          3          4          5          6
     1  C    0.017378   0.008413  -0.014980  -0.004748   0.002097   0.000026
     2  O    0.008413   0.013658  -0.015158  -0.007017   0.001246  -0.000192
     3  C   -0.014980  -0.015158   0.146027   0.103898  -0.055142   0.032698
     4  C   -0.004748  -0.007017   0.103898   0.027546  -0.143372   0.005650
     5  C    0.002097   0.001246  -0.055142  -0.143372   0.683369  -0.060396
     6  C    0.000026  -0.000192   0.032698   0.005650  -0.060396  -0.145517
     7  C   -0.000770  -0.001251   0.008329   0.031962  -0.069576   0.070208
     8  C    0.004349   0.008154  -0.110383  -0.050595   0.053911  -0.028815
     9  C    0.000450   0.001899  -0.036900  -0.004470   0.003062  -0.004387
    10  O   -0.000479  -0.001182   0.008714   0.000133  -0.000098  -0.000057
    11  O   -0.000008  -0.000019   0.002410   0.000009  -0.000087   0.000010
    12  H   -0.007606  -0.002637   0.004643   0.003684  -0.001145  -0.000166
    13  H   -0.005438  -0.000837   0.003761   0.007325  -0.001494   0.000323
    14  H   -0.001420   0.000049   0.000461  -0.000297  -0.000011   0.000002
    15  H   -0.000141   0.000050   0.002386  -0.001564  -0.000257  -0.000402
    16  H   -0.000029   0.000007   0.000887  -0.007156   0.013056  -0.003759
    17  H    0.000002   0.000001   0.000512   0.000205  -0.005791   0.001078
    18  H   -0.000004  -0.000002  -0.000429  -0.000057   0.000678   0.000029
    19  H   -0.000001  -0.000005  -0.000451   0.000018  -0.000006   0.000011
               7          8          9         10         11         12
     1  C   -0.000770   0.004349   0.000450  -0.000479  -0.000008  -0.007606
     2  O   -0.001251   0.008154   0.001899  -0.001182  -0.000019  -0.002637
     3  C    0.008329  -0.110383  -0.036900   0.008714   0.002410   0.004643
     4  C    0.031962  -0.050595  -0.004470   0.000133   0.000009   0.003684
     5  C   -0.069576   0.053911   0.003062  -0.000098  -0.000087  -0.001145
     6  C    0.070208  -0.028815  -0.004387  -0.000057   0.000010  -0.000166
     7  C    0.412456  -0.196235  -0.021396   0.004316   0.010281   0.000530
     8  C   -0.196235   0.414129   0.131865  -0.029635  -0.019837   0.001455
     9  C   -0.021396   0.131865   0.157986  -0.081723  -0.026074   0.000271
    10  O    0.004316  -0.029635  -0.081723   0.226636   0.009465   0.000041
    11  O    0.010281  -0.019837  -0.026074   0.009465   0.034960   0.000001
    12  H    0.000530   0.001455   0.000271   0.000041   0.000001   0.014235
    13  H   -0.000090  -0.003952  -0.000511   0.000128   0.000002  -0.008672
    14  H   -0.000006  -0.000150  -0.000038   0.000008   0.000000  -0.000463
    15  H    0.000082   0.000705   0.000044  -0.000005  -0.000000   0.000013
    16  H    0.001256  -0.000290   0.000001   0.000000   0.000000   0.000012
    17  H    0.000460  -0.000223  -0.000042  -0.000000  -0.000004  -0.000001
    18  H    0.009699  -0.008437   0.000190   0.000035   0.000398   0.000003
    19  H   -0.000013  -0.000551   0.000273  -0.000013   0.000629   0.000001
              13         14         15         16         17         18
     1  C   -0.005438  -0.001420  -0.000141  -0.000029   0.000002  -0.000004
     2  O   -0.000837   0.000049   0.000050   0.000007   0.000001  -0.000002
     3  C    0.003761   0.000461   0.002386   0.000887   0.000512  -0.000429
     4  C    0.007325  -0.000297  -0.001564  -0.007156   0.000205  -0.000057
     5  C   -0.001494  -0.000011  -0.000257   0.013056  -0.005791   0.000678
     6  C    0.000323   0.000002  -0.000402  -0.003759   0.001078   0.000029
     7  C   -0.000090  -0.000006   0.000082   0.001256   0.000460   0.009699
     8  C   -0.003952  -0.000150   0.000705  -0.000290  -0.000223  -0.008437
     9  C   -0.000511  -0.000038   0.000044   0.000001  -0.000042   0.000190
    10  O    0.000128   0.000008  -0.000005   0.000000  -0.000000   0.000035
    11  O    0.000002   0.000000  -0.000000   0.000000  -0.000004   0.000398
    12  H   -0.008672  -0.000463   0.000013   0.000012  -0.000001   0.000003
    13  H    0.012776   0.000900  -0.000248  -0.000013   0.000001  -0.000003
    14  H    0.000900   0.000711   0.000003  -0.000000   0.000000  -0.000000
    15  H   -0.000248   0.000003  -0.005583   0.000408   0.000015  -0.000002
    16  H   -0.000013  -0.000000   0.000408  -0.025013  -0.000183   0.000019
    17  H    0.000001   0.000000   0.000015  -0.000183   0.006726  -0.000142
    18  H   -0.000003  -0.000000  -0.000002   0.000019  -0.000142  -0.011423
    19  H   -0.000001  -0.000000   0.000000  -0.000000   0.000000   0.000022
              19
     1  C   -0.000001
     2  O   -0.000005
     3  C   -0.000451
     4  C    0.000018
     5  C   -0.000006
     6  C    0.000011
     7  C   -0.000013
     8  C   -0.000551
     9  C    0.000273
    10  O   -0.000013
    11  O    0.000629
    12  H    0.000001
    13  H   -0.000001
    14  H   -0.000000
    15  H    0.000000
    16  H   -0.000000
    17  H    0.000000
    18  H    0.000022
    19  H   -0.001434
 Mulliken charges and spin densities:
               1          2
     1  C   -0.289835  -0.002908
     2  O   -0.243462   0.005177
     3  C    0.172816   0.081282
     4  C   -0.273255  -0.038844
     5  C   -0.276826   0.420044
     6  C   -0.167983  -0.133660
     7  C   -0.251654   0.260242
     8  C   -0.037614   0.165465
     9  C    0.236483   0.120502
    10  O   -0.416236   0.136285
    11  O   -0.467820   0.012136
    12  H    0.120070   0.004199
    13  H    0.119802   0.003959
    14  H    0.126338  -0.000251
    15  H    0.101233  -0.004497
    16  H    0.075432  -0.020797
    17  H    0.075511   0.002612
    18  H    0.111324  -0.009427
    19  H    0.285674  -0.001520
 Sum of Mulliken charges =  -1.00000   1.00000
 Mulliken charges and spin densities with hydrogens summed into heavy atoms:
               1          2
     1  C    0.076376   0.004999
     2  O   -0.243462   0.005177
     3  C    0.172816   0.081282
     4  C   -0.172022  -0.043341
     5  C   -0.201394   0.399247
     6  C   -0.092472  -0.131048
     7  C   -0.140330   0.250815
     8  C   -0.037614   0.165465
     9  C    0.236483   0.120502
    10  O   -0.416236   0.136285
    11  O   -0.182146   0.010616
 Electronic spatial extent (au):  <R**2>=           1745.6235
 Charge=             -1.0000 electrons
 Dipole moment (field-independent basis, Debye):
    X=              1.7793    Y=             -1.1250    Z=              0.2549  Tot=              2.1205
 Quadrupole moment (field-independent basis, Debye-Ang):
   XX=            -73.2691   YY=            -81.8990   ZZ=            -71.7437
   XY=             -8.5319   XZ=             -0.2817   YZ=             -1.0592
 Traceless Quadrupole moment (field-independent basis, Debye-Ang):
   XX=              2.3681   YY=             -6.2617   ZZ=              3.8936
   XY=             -8.5319   XZ=             -0.2817   YZ=             -1.0592
 Octapole moment (field-independent basis, Debye-Ang**2):
  XXX=            -32.4150  YYY=            -22.7023  ZZZ=              0.4066  XYY=              6.5157
  XXY=            -15.9492  XXZ=              0.9151  XZZ=             -8.9858  YZZ=            -13.7493
  YYZ=              1.7320  XYZ=              2.3966
 Hexadecapole moment (field-independent basis, Debye-Ang**3):
 XXXX=          -1126.7443 YYYY=          -1100.5516 ZZZZ=            -92.3782 XXXY=             -4.6058
 XXXZ=             -3.0732 YYYX=            -58.9468 YYYZ=             -2.5989 ZZZX=             -0.0837
 ZZZY=              1.1535 XXYY=           -419.5619 XXZZ=           -230.7641 YYZZ=           -212.0385
 XXYZ=             -5.3544 YYXZ=             -3.1247 ZZXY=             -7.6677
 N-N= 5.968247346160D+02 E-N=-2.459860294128D+03  KE= 5.333097053632D+02
                          Isotropic Fermi Contact Couplings
        Atom                 a.u.       MegaHertz       Gauss      10(-4) cm-1
     1  C(13)              0.00011       0.12485       0.04455       0.04165
     2  O(17)             -0.00142       0.86345       0.30810       0.28802
     3  C(13)              0.00244       2.73928       0.97744       0.91373
     4  C(13)             -0.01043     -11.72636      -4.18426      -3.91149
     5  C(13)              0.03662      41.16880      14.69005      13.73243
     6  C(13)             -0.02263     -25.44523      -9.07949      -8.48762
     7  C(13)              0.01850      20.79455       7.42001       6.93631
     8  C(13)              0.00745       8.37977       2.99011       2.79519
     9  C(13)              0.00923      10.37568       3.70230       3.46096
    10  O(17)              0.02737     -16.59166      -5.92032      -5.53438
    11  O(17)             -0.00127       0.77286       0.27578       0.25780
    12  H(1)              -0.00017      -0.75314      -0.26874      -0.25122
    13  H(1)              -0.00017      -0.77987      -0.27828      -0.26014
    14  H(1)              -0.00016      -0.70291      -0.25082      -0.23447
    15  H(1)              -0.00083      -3.72350      -1.32864      -1.24203
    16  H(1)              -0.00554     -24.75585      -8.83350      -8.25766
    17  H(1)               0.00054       2.42196       0.86422       0.80788
    18  H(1)              -0.00352     -15.72070      -5.60954      -5.24386
    19  H(1)              -0.00052      -2.31793      -0.82709      -0.77318
 --------------------------------------------------------
       Center         ----  Spin Dipole Couplings  ----
                      3XX-RR        3YY-RR        3ZZ-RR
 --------------------------------------------------------
     1   Atom       -0.002240     -0.000124      0.002364
     2   Atom       -0.018615     -0.027600      0.046215
     3   Atom       -0.041378     -0.048469      0.089847
     4   Atom       -0.015236     -0.011518      0.026754
     5   Atom       -0.177281     -0.185003      0.362284
     6   Atom        0.036070      0.023901     -0.059970
     7   Atom       -0.106754     -0.110741      0.217494
     8   Atom       -0.092868     -0.098522      0.191390
     9   Atom       -0.090705     -0.081049      0.171755
    10   Atom       -0.299006     -0.299149      0.598155
    11   Atom       -0.050772     -0.056199      0.106971
    12   Atom        0.000486      0.001657     -0.002143
    13   Atom        0.000466      0.001601     -0.002066
    14   Atom       -0.000563      0.002083     -0.001520
    15   Atom        0.005042     -0.001961     -0.003081
    16   Atom        0.010284     -0.011545      0.001262
    17   Atom        0.003534      0.001334     -0.004868
    18   Atom        0.011127     -0.008308     -0.002818
    19   Atom        0.007525     -0.003053     -0.004472
 --------------------------------------------------------
                        XY            XZ            YZ
 --------------------------------------------------------
     1   Atom       -0.002204      0.000025      0.000002
     2   Atom       -0.005571     -0.000977      0.000576
     3   Atom        0.003658     -0.005446      0.004722
     4   Atom        0.003995      0.001008      0.001484
     5   Atom        0.007551      0.000706      0.005588
     6   Atom        0.002253     -0.000896     -0.001584
     7   Atom        0.002464     -0.001383      0.012985
     8   Atom        0.009735     -0.000626      0.007385
     9   Atom        0.007879      0.013827     -0.035586
    10   Atom       -0.006355      0.020603     -0.145575
    11   Atom        0.004649      0.017826     -0.026529
    12   Atom       -0.002257     -0.001176      0.000572
    13   Atom       -0.002136      0.001342     -0.000757
    14   Atom       -0.001583      0.000061     -0.000077
    15   Atom       -0.002454      0.000138      0.000019
    16   Atom        0.024823     -0.000301      0.000200
    17   Atom        0.001301     -0.000035     -0.000096
    18   Atom       -0.011317      0.000185      0.000364
    19   Atom        0.002543     -0.000234     -0.000150
 --------------------------------------------------------


 ---------------------------------------------------------------------------------
              Anisotropic Spin Dipole Couplings in Principal Axis System
 ---------------------------------------------------------------------------------

       Atom             a.u.   MegaHertz   Gauss  10(-4) cm-1        Axes

              Baa    -0.0036    -0.487    -0.174    -0.162  0.8464  0.5325 -0.0037
     1 C(13)  Bbb     0.0013     0.169     0.060     0.057 -0.5325  0.8464  0.0103
              Bcc     0.0024     0.317     0.113     0.106  0.0086 -0.0067  0.9999
 
              Baa    -0.0303     2.190     0.781     0.730  0.4313  0.9022 -0.0013
     2 O(17)  Bbb    -0.0160     1.156     0.412     0.385  0.9021 -0.4312  0.0182
              Bcc     0.0462    -3.346    -1.194    -1.116 -0.0158  0.0090  0.9998
 
              Baa    -0.0503    -6.752    -2.409    -2.252 -0.4024  0.9143 -0.0464
     3 C(13)  Bbb    -0.0399    -5.355    -1.911    -1.786  0.9146  0.4037  0.0237
              Bcc     0.0902    12.107     4.320     4.038 -0.0404  0.0329  0.9986
 
              Baa    -0.0178    -2.386    -0.851    -0.796  0.8433 -0.5374 -0.0012
     4 C(13)  Bbb    -0.0091    -1.216    -0.434    -0.406  0.5367  0.8423 -0.0500
              Bcc     0.0268     3.602     1.285     1.202  0.0279  0.0416  0.9987
 
              Baa    -0.1897   -25.450    -9.081    -8.489 -0.5205  0.8538 -0.0080
     5 C(13)  Bbb    -0.1727   -23.173    -8.269    -7.730  0.8539  0.5204 -0.0066
              Bcc     0.3623    48.623    17.350    16.219  0.0015  0.0102  0.9999
 
              Baa    -0.0600    -8.052    -2.873    -2.686  0.0089  0.0186  0.9998
     6 C(13)  Bbb     0.0235     3.156     1.126     1.053 -0.1779  0.9839 -0.0168
              Bcc     0.0365     4.896     1.747     1.633  0.9840  0.1777 -0.0121
 
              Baa    -0.1124   -15.080    -5.381    -5.030 -0.4086  0.9119 -0.0376
     7 C(13)  Bbb    -0.1056   -14.175    -5.058    -4.728  0.9127  0.4085 -0.0125
              Bcc     0.2180    29.255    10.439     9.758 -0.0040  0.0394  0.9992
 
              Baa    -0.1060   -14.220    -5.074    -4.743 -0.5970  0.8019 -0.0212
     8 C(13)  Bbb    -0.0856   -11.488    -4.099    -3.832  0.8022  0.5969 -0.0141
              Bcc     0.1916    25.708     9.173     8.575 -0.0013  0.0254  0.9997
 
              Baa    -0.0987   -13.242    -4.725    -4.417  0.7946 -0.5953 -0.1190
     9 C(13)  Bbb    -0.0786   -10.545    -3.763    -3.518  0.6052  0.7921  0.0792
              Bcc     0.1773    23.787     8.488     7.935  0.0471 -0.1349  0.9897
 
              Baa    -0.3226    23.342     8.329     7.786  0.1313  0.9796  0.1519
    10 O(17)  Bbb    -0.2991    21.642     7.723     7.219  0.9911 -0.1261 -0.0432
              Bcc     0.6217   -44.984   -16.051   -15.005  0.0232 -0.1563  0.9874
 
              Baa    -0.0648     4.689     1.673     1.564 -0.5108  0.8401  0.1828
    11 O(17)  Bbb    -0.0481     3.482     1.243     1.162  0.8536  0.5209 -0.0090
              Bcc     0.1129    -8.171    -2.916    -2.725  0.1028 -0.1514  0.9831
 
              Baa    -0.0026    -1.397    -0.499    -0.466  0.4134  0.0970  0.9054
    12 H(1)   Bbb    -0.0010    -0.547    -0.195    -0.182  0.6687  0.6426 -0.3742
              Bcc     0.0036     1.944     0.694     0.648 -0.6180  0.7601  0.2008
 
              Baa    -0.0027    -1.415    -0.505    -0.472 -0.4248 -0.0525  0.9038
    13 H(1)   Bbb    -0.0010    -0.507    -0.181    -0.169  0.6642  0.6603  0.3505
              Bcc     0.0036     1.922     0.686     0.641 -0.6152  0.7491 -0.2456
 
              Baa    -0.0015    -0.813    -0.290    -0.271 -0.1035 -0.0242  0.9943
    14 H(1)   Bbb    -0.0013    -0.694    -0.248    -0.231  0.9000  0.4234  0.1040
              Bcc     0.0028     1.507     0.538     0.503 -0.4235  0.9056 -0.0220
 
              Baa    -0.0031    -1.650    -0.589    -0.550 -0.0627 -0.1526  0.9863
    15 H(1)   Bbb    -0.0027    -1.454    -0.519    -0.485  0.2946  0.9414  0.1643
              Bcc     0.0058     3.104     1.108     1.035  0.9536 -0.3008  0.0141
 
              Baa    -0.0278   -14.807    -5.283    -4.939 -0.5466  0.8373 -0.0114
    16 H(1)   Bbb     0.0013     0.675     0.241     0.225 -0.0015  0.0127  0.9999
              Bcc     0.0265    14.132     5.043     4.714  0.8374  0.5465 -0.0057
 
              Baa    -0.0049    -2.598    -0.927    -0.867  0.0018  0.0151  0.9999
    17 H(1)   Bbb     0.0007     0.390     0.139     0.130 -0.4212  0.9069 -0.0129
              Bcc     0.0041     2.208     0.788     0.737  0.9070  0.4211 -0.0080
 
              Baa    -0.0135    -7.215    -2.575    -2.407  0.4172  0.9080 -0.0380
    18 H(1)   Bbb    -0.0028    -1.496    -0.534    -0.499  0.0151  0.0349  0.9993
              Bcc     0.0163     8.711     3.108     2.906  0.9087 -0.4174  0.0008
 
              Baa    -0.0045    -2.394    -0.854    -0.799 -0.0043  0.1116  0.9937
    19 H(1)   Bbb    -0.0036    -1.933    -0.690    -0.645 -0.2233  0.9686 -0.1097
              Bcc     0.0081     4.327     1.544     1.443  0.9747  0.2224 -0.0207
 

 ---------------------------------------------------------------------------------

   1 Symmetry operations used in ECPInt.
 ECPInt:  NShTT=   11781 NPrTT=   36312 LenC2=   11250 LenP2D=   26645.
 LDataN:  DoStor=T MaxTD1= 7 Len=  274
 Calling FoFJK, ICntrl=      2127 FMM=F ISym2X=0 I1Cent= 0 IOpClX= 1 NMat=1 NMatS=1 NMatT=0.
 ***** Axes restored to original set *****
 -------------------------------------------------------------------
 Center     Atomic                   Forces (Hartrees/Bohr)
 Number     Number              X              Y              Z
 -------------------------------------------------------------------
      1        6           0.012737092    0.006503175    0.000178959
      2        8          -0.007519747   -0.025273451   -0.001055583
      3        6          -0.035422718    0.023210346    0.001928399
      4        6           0.013981370   -0.035227947   -0.000180447
      5        6          -0.017897526    0.030005885    0.000567470
      6        6           0.015858653   -0.007493759   -0.000426870
      7        6          -0.006560079    0.040239383   -0.001250686
      8        6           0.055969931   -0.046000154    0.000185815
      9        6          -0.068964717    0.051716745   -0.002948071
     10        8           0.017902135   -0.052555373    0.005109471
     11        8           0.029945837    0.011914103   -0.002822423
     12        1          -0.001791044    0.001145448    0.000783499
     13        1          -0.001820710    0.001171735   -0.000759046
     14        1           0.000182426   -0.001861144   -0.000027756
     15        1          -0.001419708   -0.001209485   -0.000250312
     16        1          -0.000972521    0.000882723    0.000000956
     17        1           0.000381606    0.002416367    0.000099622
     18        1          -0.000108224    0.000687227    0.000106361
     19        1          -0.004482057   -0.000271824    0.000760641
 -------------------------------------------------------------------
 Cartesian Forces:  Max     0.068964717 RMS     0.020612199

 GradGradGradGradGradGradGradGradGradGradGradGradGradGradGradGradGradGrad
 Berny optimization.
 FormGI is forming the generalized inverse of G from B-inverse, IUseBI=4.
 Internal  Forces:  Max     0.054001032 RMS     0.010388854
 Search for a local minimum.
 Step number   1 out of a maximum of   93
 All quantities printed in internal units (Hartrees-Bohrs-Radians)
 Mixed Optimization -- RFO/linear search
 Second derivative matrix not updated -- first step.
 ITU=  0
     Eigenvalues ---    0.00948   0.01353   0.01556   0.01731   0.02051
     Eigenvalues ---    0.02149   0.02206   0.02219   0.02240   0.02277
     Eigenvalues ---    0.02277   0.02284   0.02291   0.02465   0.10133
     Eigenvalues ---    0.10723   0.16000   0.16000   0.16000   0.16000
     Eigenvalues ---    0.16000   0.16000   0.16000   0.16000   0.22000
     Eigenvalues ---    0.22486   0.24471   0.24998   0.24999   0.24999
     Eigenvalues ---    0.25000   0.25000   0.33862   0.34459   0.34476
     Eigenvalues ---    0.35266   0.35673   0.35886   0.35956   0.36083
     Eigenvalues ---    0.41769   0.42784   0.43963   0.45767   0.47228
     Eigenvalues ---    0.47510   0.48184   0.53931   0.54004   0.56861
     Eigenvalues ---    1.05565
 RFO step:  Lambda=-1.75053904D-02 EMin= 9.47598444D-03
 Linear search not attempted -- first point.
 Iteration  1 RMS(Cart)=  0.03656003 RMS(Int)=  0.00088358
 Iteration  2 RMS(Cart)=  0.00109673 RMS(Int)=  0.00011034
 Iteration  3 RMS(Cart)=  0.00000139 RMS(Int)=  0.00011033
 Iteration  4 RMS(Cart)=  0.00000000 RMS(Int)=  0.00011033
 Variable       Old X    -DE/DX   Delta X   Delta X   Delta X     New X
                                 (Linear)    (Quad)   (Total)
    R1        2.66499  -0.01144   0.00000  -0.02503  -0.02503   2.63996
    R2        2.06535   0.00184   0.00000   0.00509   0.00509   2.07044
    R3        2.06563   0.00187   0.00000   0.00515   0.00515   2.07078
    R4        2.05244   0.00186   0.00000   0.00504   0.00504   2.05748
    R5        2.53515   0.01825   0.00000   0.03114   0.03114   2.56629
    R6        2.63760  -0.01070   0.00000  -0.02250  -0.02252   2.61507
    R7        2.66343   0.02347   0.00000   0.05162   0.05165   2.71508
    R8        2.61920   0.02935   0.00000   0.05836   0.05830   2.67751
    R9        2.03952   0.00180   0.00000   0.00475   0.00475   2.04427
   R10        2.61827   0.01272   0.00000   0.02512   0.02508   2.64335
   R11        2.04596   0.00130   0.00000   0.00347   0.00347   2.04943
   R12        2.61549  -0.00352   0.00000  -0.00679  -0.00677   2.60871
   R13        2.04260   0.00244   0.00000   0.00648   0.00648   2.04909
   R14        2.63193   0.03658   0.00000   0.07591   0.07597   2.70790
   R15        2.04150   0.00019   0.00000   0.00051   0.00051   2.04201
   R16        2.80864  -0.02737   0.00000  -0.07685  -0.07685   2.73179
   R17        2.26490   0.05400   0.00000   0.05032   0.05032   2.31522
   R18        2.56095   0.02757   0.00000   0.04951   0.04951   2.61045
   R19        1.82728  -0.00330   0.00000  -0.00591  -0.00591   1.82136
    A1        1.94163   0.00017   0.00000   0.00007   0.00006   1.94169
    A2        1.94215   0.00024   0.00000   0.00051   0.00050   1.94265
    A3        1.84612   0.00066   0.00000   0.00532   0.00530   1.85142
    A4        1.91072  -0.00160   0.00000  -0.01188  -0.01189   1.89883
    A5        1.91061   0.00031   0.00000   0.00335   0.00334   1.91395
    A6        1.91144   0.00032   0.00000   0.00345   0.00344   1.91488
    A7        2.07203  -0.00656   0.00000  -0.02453  -0.02453   2.04749
    A8        2.14450  -0.00307   0.00000  -0.01149  -0.01150   2.13300
    A9        2.05924  -0.00283   0.00000  -0.01059  -0.01061   2.04864
   A10        2.07939   0.00591   0.00000   0.02202   0.02203   2.10142
   A11        2.10137   0.00455   0.00000   0.01697   0.01690   2.11827
   A12        2.09933  -0.00280   0.00000  -0.01142  -0.01139   2.08794
   A13        2.08249  -0.00175   0.00000  -0.00555  -0.00552   2.07697
   A14        2.10937  -0.00713   0.00000  -0.03255  -0.03264   2.07673
   A15        2.07705   0.00376   0.00000   0.01739   0.01743   2.09448
   A16        2.09676   0.00337   0.00000   0.01516   0.01520   2.11196
   A17        2.07598   0.00619   0.00000   0.02534   0.02532   2.10130
   A18        2.10701  -0.00290   0.00000  -0.01159  -0.01158   2.09543
   A19        2.10019  -0.00329   0.00000  -0.01374  -0.01374   2.08646
   A20        2.12160   0.00168   0.00000   0.00848   0.00855   2.13015
   A21        2.09713  -0.00153   0.00000  -0.00810  -0.00814   2.08899
   A22        2.06445  -0.00016   0.00000  -0.00038  -0.00042   2.06403
   A23        2.07862  -0.01120   0.00000  -0.04028  -0.04019   2.03843
   A24        2.11842   0.00504   0.00000   0.01809   0.01804   2.13646
   A25        2.08608   0.00616   0.00000   0.02224   0.02219   2.10827
   A26        2.21764   0.01460   0.00000   0.05452   0.05443   2.27208
   A27        1.95221   0.00215   0.00000   0.00799   0.00793   1.96013
   A28        2.11329  -0.01676   0.00000  -0.06270  -0.06276   2.05053
   A29        1.84763  -0.00568   0.00000  -0.03202  -0.03202   1.81561
    D1       -1.06738   0.00088   0.00000   0.00738   0.00738  -1.06000
    D2        1.06830  -0.00089   0.00000  -0.00748  -0.00748   1.06082
    D3       -3.14050   0.00002   0.00000   0.00014   0.00014  -3.14036
    D4       -0.00286  -0.00008   0.00000  -0.00256  -0.00251  -0.00537
    D5       -3.13344   0.00012   0.00000   0.00352   0.00347  -3.12997
    D6       -3.13129   0.00030   0.00000   0.00740   0.00741  -3.12388
    D7        0.00978   0.00013   0.00000   0.00298   0.00299   0.01277
    D8       -0.00083   0.00006   0.00000   0.00105   0.00105   0.00022
    D9        3.14024  -0.00012   0.00000  -0.00337  -0.00337   3.13687
   D10        3.12550  -0.00036   0.00000  -0.00941  -0.00939   3.11611
   D11       -0.02781  -0.00018   0.00000  -0.00488  -0.00492  -0.03273
   D12       -0.00550  -0.00012   0.00000  -0.00335  -0.00331  -0.00882
   D13        3.12438   0.00006   0.00000   0.00118   0.00116   3.12553
   D14        0.00423   0.00010   0.00000   0.00194   0.00195   0.00618
   D15       -3.13916  -0.00003   0.00000  -0.00103  -0.00102  -3.14019
   D16       -3.13684   0.00027   0.00000   0.00633   0.00634  -3.13050
   D17        0.00295   0.00014   0.00000   0.00336   0.00337   0.00632
   D18       -0.00115  -0.00009   0.00000  -0.00236  -0.00236  -0.00350
   D19        3.14020  -0.00004   0.00000  -0.00077  -0.00077   3.13942
   D20       -3.14092   0.00004   0.00000   0.00064   0.00065  -3.14027
   D21        0.00043   0.00009   0.00000   0.00223   0.00223   0.00266
   D22       -0.00542  -0.00002   0.00000  -0.00016  -0.00017  -0.00559
   D23        3.14091   0.00006   0.00000   0.00177   0.00176  -3.14052
   D24        3.13642  -0.00007   0.00000  -0.00174  -0.00174   3.13468
   D25       -0.00043   0.00000   0.00000   0.00019   0.00018  -0.00025
   D26        0.00874   0.00011   0.00000   0.00291   0.00288   0.01162
   D27       -3.12136  -0.00007   0.00000  -0.00152  -0.00150  -3.12286
   D28       -3.13750   0.00003   0.00000   0.00100   0.00096  -3.13654
   D29        0.01558  -0.00014   0.00000  -0.00343  -0.00341   0.01217
   D30       -0.16321   0.00077   0.00000   0.03068   0.03038  -0.13283
   D31        2.98829   0.00154   0.00000   0.05361   0.05381   3.04211
   D32        2.96662   0.00085   0.00000   0.03481   0.03461   3.00123
   D33       -0.16506   0.00161   0.00000   0.05775   0.05805  -0.10701
   D34        3.12081  -0.00065   0.00000  -0.01998  -0.01940   3.10141
   D35       -0.01155  -0.00013   0.00000   0.00067   0.00009  -0.01146
         Item               Value     Threshold  Converged?
 Maximum Force            0.054001     0.000450     NO 
 RMS     Force            0.010389     0.000300     NO 
 Maximum Displacement     0.135668     0.001800     NO 
 RMS     Displacement     0.036594     0.001200     NO 
 Predicted change in Energy=-9.190104D-03
 GradGradGradGradGradGradGradGradGradGradGradGradGradGradGradGradGradGrad

                          Input orientation:                          
 ---------------------------------------------------------------------
 Center     Atomic      Atomic             Coordinates (Angstroms)
 Number     Number       Type             X           Y           Z
 ---------------------------------------------------------------------
      1          6           0       -2.061164   -2.247055   -0.054997
      2          8           0       -0.792804   -1.661730   -0.038155
      3          6           0       -0.732826   -0.305506   -0.002330
      4          6           0       -1.869918    0.483071    0.010907
      5          6           0       -1.786466    1.897396    0.026964
      6          6           0       -0.525162    2.502150    0.021830
      7          6           0        0.619376    1.730483    0.005586
      8          6           0        0.570866    0.298357    0.000210
      9          6           0        1.786843   -0.483390    0.006376
     10          8           0        1.949611   -1.690933    0.134291
     11          8           0        2.916018    0.302399   -0.119102
     12          1           0       -2.631934   -1.983837    0.842413
     13          1           0       -2.630558   -1.938069   -0.938804
     14          1           0       -1.896428   -3.322956   -0.081893
     15          1           0       -2.845300    0.015270    0.004377
     16          1           0       -2.692053    2.494011    0.038462
     17          1           0       -0.441094    3.583169    0.031867
     18          1           0        1.587928    2.209611    0.002780
     19          1           0        3.645018   -0.325662   -0.063820
 ---------------------------------------------------------------------
                    Distance matrix (angstroms):
                    1          2          3          4          5
     1  C    0.000000
     2  O    1.397006   0.000000
     3  C    2.353055   1.358022   0.000000
     4  C    2.737610   2.400574   1.383838   0.000000
     5  C    4.154353   3.695805   2.442087   1.416875   0.000000
     6  C    4.992009   4.172904   2.815429   2.425936   1.398800
     7  C    4.796851   3.674681   2.444129   2.784358   2.411720
     8  C    3.661933   2.388097   1.436757   2.447787   2.848623
     9  C    4.233372   2.836379   2.525955   3.782323   4.293844
    10  O    4.053569   2.747987   3.022175   4.396626   5.181302
    11  O    5.592510   4.197584   3.700979   4.791109   4.967766
    12  H    1.095631   2.064352   2.671515   2.712509   4.055088
    13  H    1.095809   2.065157   2.672758   2.709695   4.044254
    14  H    1.088772   1.994886   3.235012   3.807251   5.222644
    15  H    2.395101   2.650826   2.136701   1.081782   2.159638
    16  H    4.783770   4.569814   3.417240   2.172681   1.084514
    17  H    6.051751   5.257145   3.899753   3.413588   2.156822
    18  H    5.760303   4.544980   3.422242   3.864932   3.388893
    19  H    6.020992   4.634652   4.378322   5.574419   5.869518
                    6          7          8          9         10
     6  C    0.000000
     7  C    1.380471   0.000000
     8  C    2.461392   1.432958   0.000000
     9  C    3.776117   2.502841   1.445602   0.000000
    10  O    4.870226   3.673170   2.424086   1.225159   0.000000
    11  O    4.086623   2.707312   2.348188   1.381393   2.229691
    12  H    5.023537   5.006742   4.021895   4.740873   4.645189
    13  H    5.007101   4.991215   4.016525   4.745829   4.710686
    14  H    5.985231   5.645722   4.382715   4.651603   4.183570
    15  H    3.401165   3.865998   3.427878   4.658907   5.091088
    16  H    2.166970   3.398473   3.933065   5.378332   6.250439
    17  H    1.084329   2.134885   3.437304   4.636945   5.791556
    18  H    2.133329   1.080585   2.165021   2.700340   3.919484
    19  H    5.039272   3.658833   3.137500   1.866178   2.185776
                   11         12         13         14         15
    11  O    0.000000
    12  H    6.077100   0.000000
    13  H    6.037890   1.781805   0.000000
    14  H    6.025298   1.785651   1.786380   0.000000
    15  H    5.769790   2.178132   2.179733   3.471534   0.000000
    16  H    6.023159   4.549843   4.538961   5.872359   2.483708
    17  H    4.696430   6.037244   6.018308   7.058718   4.302426
    18  H    2.327260   6.008096   5.990448   6.538899   4.946579
    19  H    0.963824   6.555221   6.538220   6.300137   6.499624
                   16         17         18         19
    16  H    0.000000
    17  H    2.500624   0.000000
    18  H    4.289568   2.450396   0.000000
    19  H    6.936821   5.655478   3.265527   0.000000
 Stoichiometry    C8H8O3(1-,2)
 Framework group  C1[X(C8H8O3)]
 Deg. of freedom    51
 Full point group                 C1      NOp   1
 Largest Abelian subgroup         C1      NOp   1
 Largest concise Abelian subgroup C1      NOp   1
                         Standard orientation:                         
 ---------------------------------------------------------------------
 Center     Atomic      Atomic             Coordinates (Angstroms)
 Number     Number       Type             X           Y           Z
 ---------------------------------------------------------------------
      1          6           0        2.049831   -2.260179    0.046707
      2          8           0        0.786704   -1.663618    0.030912
      3          6           0        0.738735   -0.306829   -0.001438
      4          6           0        1.882761    0.471692   -0.012225
      5          6           0        1.811826    1.886736   -0.024666
      6          6           0        0.555918    2.502607   -0.018432
      7          6           0       -0.595406    1.741054   -0.004596
      8          6           0       -0.559565    0.308545   -0.002895
      9          6           0       -1.782404   -0.462399   -0.011522
     10          8           0       -1.955796   -1.668121   -0.142610
     11          8           0       -2.904635    0.333020    0.115571
     12          1           0        2.623254   -1.999709   -0.849813
     13          1           0        2.621593   -1.958519    0.931515
     14          1           0        1.875577   -3.334647    0.070768
     15          1           0        2.853966   -0.004733   -0.006546
     16          1           0        2.722658    2.475346   -0.034294
     17          1           0        0.481417    3.584350   -0.025711
     18          1           0       -1.559684    2.228720   -0.000908
     19          1           0       -3.639139   -0.288424    0.058403
 ---------------------------------------------------------------------
 Rotational constants (GHZ):           1.4121605           1.1307484           0.6314049
 Standard basis: def2TZVP (5D, 7F)
 There are   444 symmetry adapted cartesian basis functions of A   symmetry.
 There are   389 symmetry adapted basis functions of A   symmetry.
   389 basis functions,   625 primitive gaussians,   444 cartesian basis functions
    41 alpha electrons       40 beta electrons
       nuclear repulsion energy       592.6735176334 Hartrees.
 NAtoms=   19 NActive=   19 NUniq=   19 SFac= 1.00D+00 NAtFMM=   60 NAOKFM=F Big=F
 Integral buffers will be    131072 words long.
 Raffenetti 2 integral format.
 Two-electron integral symmetry is turned on.
 One-electron integrals computed using PRISM.
   1 Symmetry operations used in ECPInt.
 ECPInt:  NShTT=   11781 NPrTT=   36312 LenC2=   11237 LenP2D=   26569.
 LDataN:  DoStor=T MaxTD1= 6 Len=  172
 NBasis=   389 RedAO= T EigKep=  8.64D-06  NBF=   389
 NBsUse=   389 1.00D-06 EigRej= -1.00D+00 NBFU=   389
 Initial guess from the checkpoint file:  "/tmp/Gau-2595213.chk"
 B after Tr=     0.000000    0.000000    0.000000
         Rot=    0.999984    0.000236   -0.000308    0.005580 Ang=   0.64 deg.
 Initial guess <Sx>= 0.0000 <Sy>= 0.0000 <Sz>= 0.5000 <S**2>= 0.7628 S= 0.5064
 ExpMin= 9.52D-02 ExpMax= 2.70D+04 ExpMxC= 9.22D+02 IAcc=3 IRadAn=         5 AccDes= 0.00D+00
 Harris functional with IExCor= 1009 and IRadAn=       5 diagonalized for initial guess.
 HarFok:  IExCor= 1009 AccDes= 0.00D+00 IRadAn=         5 IDoV= 1 UseB2=F ITyADJ=14
 ICtDFT=  3500011 ScaDFX=  1.000000  1.000000  1.000000  1.000000
 FoFCou: FMM=F IPFlag=           0 FMFlag=      100000 FMFlg1=           0
         NFxFlg=           0 DoJE=T BraDBF=F KetDBF=T FulRan=T
[...]
 0002806,0.03388355,-0.03945434,-0.00064672,0.09363727,-0.19063683,-0.0
 0181366,-0.00318702,0.64484056,0.00005363,-0.00000767,-0.00145698,0.00
 042024,-0.00063305,0.00887950,0.00164430,-0.00187420,-0.05880962,-0.00
 130528,0.00671373,0.09788744,0.00089667,-0.00082402,-0.00001116,-0.005
 88771,-0.00585613,-0.00005397,0.01727586,0.02719420,0.00030756,-0.1064
 4349,0.02335203,0.00043810,0.68006115,0.00523384,0.00149007,0.00000527
 ,-0.00352491,-0.00996828,-0.00020904,0.03959275,-0.03575452,-0.0005154
 4,-0.02960220,-0.27589112,-0.00295154,-0.05739565,0.61029140,0.0000600
 1,0.00001760,0.00007589,-0.00001455,-0.00018877,0.00670185,0.00044613,
 -0.00050392,0.00084800,-0.00020005,-0.00305046,-0.02933624,-0.00207374
 ,0.00687420,0.05711570,-0.00377633,-0.00131048,-0.00000746,0.00205234,
 0.01406811,0.00017616,-0.02533570,0.00464205,0.00009891,0.00642861,-0.
 06941411,-0.00085415,-0.25038309,-0.03584971,0.00003945,0.62623131,0.0
 0089662,0.00034575,-0.00000146,-0.00089254,-0.00400471,-0.00003650,0.0
 0573738,0.00334068,0.00001308,-0.03225582,-0.02466102,-0.00021682,-0.1
 0509290,-0.15289894,-0.00120783,-0.01975403,0.73163666,0.00002082,0.00
 000361,0.00035664,-0.00001705,-0.00006797,-0.00089022,0.00012144,0.000
 01137,0.00144442,-0.00040427,-0.00013905,-0.00149757,-0.00080750,-0.00
 134907,-0.03482125,-0.00135717,0.00757902,0.10638217,0.00166261,-0.000
 80113,-0.00001317,-0.00816145,-0.00842475,-0.00008184,0.01677503,-0.03
 028234,-0.00040475,-0.00773254,0.03149926,0.00039224,-0.08309287,-0.02
 389402,-0.00009896,-0.27433026,0.15251251,0.00232855,0.74940225,0.0008
 1729,-0.00015135,-0.00001910,0.00192068,0.00361416,0.00000083,-0.05499
 849,-0.01821320,-0.00005523,0.01546789,-0.02193008,-0.00026448,0.01579
 701,0.03834776,0.00032169,0.10523947,-0.20509693,-0.00212088,-0.019859
 74,0.62802160,0.00000769,-0.00001448,0.00101611,0.00004487,0.00001923,
 0.00347936,-0.00070625,-0.00010509,-0.00439026,0.00019533,-0.00029776,
 -0.00265812,0.00039233,0.00040303,0.00918613,0.00174430,-0.00221546,-0
 .04822715,-0.00161431,0.00632639,0.10349961,0.00015570,0.00264202,0.00
 004224,0.00262914,-0.01186262,-0.00014835,-0.23529706,-0.05977523,-0.0
 0037442,-0.04385609,-0.00102015,0.00009041,-0.00477642,0.00006445,0.00
 000079,0.01592847,0.02205434,0.00023811,-0.10935063,0.01533454,0.00032
 335,0.67748347,0.00143738,-0.00388796,-0.00008359,-0.04404672,-0.02857
 009,-0.00028885,-0.01726304,-0.12396039,-0.00084176,-0.00426305,0.0334
 6606,0.00031557,-0.00817132,-0.01595329,-0.00011662,0.02850339,-0.0321
 0457,-0.00047657,-0.01922684,-0.26799813,-0.00265786,-0.04797055,0.638
 75791,0.00002746,-0.00008223,0.00254341,-0.00054277,-0.00036312,0.0026
 9031,0.00013304,-0.00074211,-0.05272217,0.00005369,0.00029764,0.008396
 19,-0.00010267,-0.00013096,-0.00483759,0.00032423,-0.00046574,0.002813
 39,-0.00010567,-0.00272426,-0.04268934,-0.00161312,0.00649301,0.103468
 11,-0.00285130,-0.00124788,-0.00000829,0.00247540,0.01118569,0.0001321
 0,-0.03169793,0.00258761,0.00007296,-0.00145193,0.00684296,0.00008647,
 0.00454985,-0.00871877,-0.00011588,-0.00405200,-0.00593953,-0.00006067
 ,0.00834521,0.01103425,0.00011097,-0.24643617,0.09744974,0.00149652,0.
 60841489,-0.00057380,-0.00201904,-0.00001723,0.00219591,-0.01089037,-0
 .00013016,-0.00552096,0.03371773,0.00044176,-0.00481013,-0.01745577,-0
 .00022506,-0.00464728,0.01081158,0.00016108,0.00249724,-0.00645114,-0.
 00010709,0.03126266,-0.01082607,-0.00018750,0.07227220,-0.16216844,-0.
 00135796,-0.15998005,0.83058661,-0.00000350,-0.00001794,-0.00032256,0.
 00002060,-0.00013671,-0.00079033,-0.00001322,0.00040757,-0.00154618,-0
 .00004878,-0.00024664,0.00200485,-0.00007096,0.00016883,-0.00176452,0.
 00004614,-0.00009478,0.00220452,0.00036281,-0.00015252,0.00058055,0.00
 119061,-0.00139331,-0.05968158,-0.00270798,0.00821910,0.16649168,0.001
 14019,0.00206830,0.00001987,-0.00969040,-0.00279466,-0.00001428,0.0033
 2469,-0.00132154,-0.00002531,0.00014249,-0.00157180,-0.00001831,-0.001
 72166,0.00188283,0.00002594,0.00261926,0.00243758,0.00002488,-0.007092
 21,0.00023836,0.00002562,0.00562916,0.03947699,0.00048420,-0.12408586,
 0.07943517,0.00105392,0.11429871,-0.00050948,0.00083234,0.00000896,-0.
 00168333,0.01297908,0.00014480,0.00433507,-0.01564640,-0.00017563,-0.0
 0278136,0.01814114,0.00022537,0.01157293,-0.01062238,-0.00015606,-0.01
 669888,0.00016597,0.00003038,0.00820135,-0.01519455,-0.00026113,0.0251
 8190,-0.03222109,-0.00058755,0.07503271,-0.56054608,-0.00607823,-0.061
 86336,0.68142072,-0.00000812,0.00000437,0.00021972,-0.00000136,0.00013
 993,0.00153410,0.00004294,-0.00014900,-0.00285016,-0.00003470,0.000220
 93,-0.00010756,0.00014454,-0.00013410,0.00037407,-0.00020598,-0.000007
 21,0.00045950,0.00011834,-0.00024160,0.00482453,0.00030921,-0.00062209
 ,0.01464315,0.00100960,-0.00608373,-0.06228684,-0.00088085,0.00790212,
 0.02797287,0.00107379,0.00051644,0.00000324,-0.00117148,-0.00116693,-0
 .00001234,-0.00083139,0.00864309,0.00011556,-0.00192499,-0.01010116,-0
 .00011703,-0.00002653,0.00762144,0.00009228,-0.00088610,-0.00042999,-0
 .00000265,-0.00113043,0.00550798,0.00006542,-0.05540895,-0.02396774,-0
 .00017519,-0.16373182,-0.04402422,-0.00033486,0.00683091,-0.04216423,-
 0.00047878,0.49769872,0.00044527,0.00045790,0.00000680,-0.00114458,0.0
 0128024,0.00002004,-0.00137737,-0.00351913,-0.00008041,0.00212354,-0.0
 0558915,-0.00007233,-0.00188476,0.00454293,0.00005509,0.00395133,0.001
 35497,0.00000726,0.00163024,0.00064503,0.00002645,0.00871198,0.0098012
 2,-0.00003027,-0.00417232,-0.12826227,-0.00093335,-0.06173343,-0.07126
 588,-0.00099739,-0.16412383,0.47173268,0.00000347,0.00000715,-0.000211
 64,-0.00001246,0.00001915,-0.00022632,-0.00000489,-0.00010066,0.003781
 73,0.00002827,-0.00005101,0.00009973,-0.00002068,0.00003761,0.00030944
 ,0.00004760,0.00001538,0.00011092,0.00002139,0.00001724,-0.00164046,0.
 00021169,0.00003108,0.01087195,0.00016627,-0.00084991,-0.05120728,-0.0
 0070873,-0.00102908,0.02118288,-0.00300080,0.00583394,0.02563533,-0.10
 512157,0.03087692,0.09639871,-0.03546413,-0.00522280,0.02732242,0.0003
 5665,0.00758818,0.00024667,0.00103486,0.00020532,-0.00056826,-0.000318
 94,-0.00109908,-0.00013578,0.00079075,-0.00021467,-0.00000198,-0.00045
 596,0.00017096,-0.00018052,0.00005368,-0.00057156,-0.00041584,0.000568
 45,0.00079499,0.00012638,-0.00061929,-0.00038046,-0.00020755,-0.000207
 15,-0.00014513,0.00002233,0.13081025,0.03362994,-0.06874809,-0.0562734
 5,-0.01297599,0.00234553,0.01456460,-0.00091291,0.00500610,0.00124522,
 0.00172648,-0.00024709,0.00012042,-0.00018064,-0.00027755,-0.00039414,
 0.00017341,-0.00000091,-0.00014103,-0.00018888,0.00044931,-0.00010183,
 -0.00037911,-0.00078411,-0.00040627,-0.00023250,0.00040423,0.00007268,
 0.00001675,-0.00049491,-0.00000508,0.00013667,0.00006618,0.00003508,-0
 .03141922,0.06795457,0.09843827,-0.05246564,-0.22065974,0.00714808,0.0
 0608972,0.00697689,-0.00021571,-0.00208814,0.00037640,0.00154001,-0.00
 088919,-0.00026725,-0.00034256,0.00093450,0.00025079,-0.00044682,-0.00
 004484,-0.00006934,0.00020803,0.00008968,-0.00004631,-0.00037911,0.000
 15032,-0.00005929,-0.00023613,-0.00050458,-0.00002086,0.00019797,0.000
 24294,0.00008466,0.00003215,0.00007822,0.00000947,-0.11545316,0.056517
 64,0.23479017,-0.10608304,0.03342690,-0.09619963,-0.03563600,-0.004611
 05,-0.02722324,0.00035257,0.00760156,-0.00006178,0.00103003,0.00019580
 ,0.00056653,-0.00031658,-0.00110760,0.00011199,0.00079310,-0.00021411,
 -0.00000727,-0.00045697,0.00016515,0.00018662,0.00005944,-0.00058273,0
 .00040065,0.00056954,0.00080205,-0.00010891,-0.00062084,-0.00038714,0.
 00020032,-0.00020753,-0.00014527,-0.00002510,0.00979434,-0.00346606,0.
 01215910,0.13195477,0.03623767,-0.07139338,0.05960473,-0.01287759,0.00
 284444,-0.01461009,-0.00092369,0.00497994,-0.00112357,0.00176309,-0.00
 026466,-0.00012923,-0.00018771,-0.00026421,0.00038288,0.00016349,-0.00
 000547,0.00014227,-0.00018379,0.00044776,0.00011448,-0.00038485,-0.000
 78973,0.00039111,-0.00023752,0.00039345,-0.00006217,0.00002054,-0.0004
 8796,-0.00000860,0.00013711,0.00006881,-0.00003411,-0.00321814,0.00241
 298,-0.00809089,-0.03443673,0.07071054,-0.09816303,0.05581490,-0.21701
 333,-0.00724397,-0.00617228,0.00666515,0.00019377,0.00216076,0.0003982
 8,-0.00150699,0.00088674,-0.00024733,0.00034239,-0.00094005,0.00023560
 ,0.00044533,0.00004769,-0.00006723,-0.00020996,-0.00007865,-0.00004537
 ,0.00036896,-0.00016494,-0.00005772,0.00022757,0.00051092,-0.00001036,
 -0.00019426,-0.00025519,0.00007832,-0.00002813,-0.00007636,0.00000701,
 -0.01240065,0.00869577,-0.02242122,0.11517505,-0.06020727,0.23085185,-
 0.05679586,0.06290740,0.00076121,-0.00387270,-0.04577803,-0.00053835,-
 0.00513026,0.00054217,0.00002589,-0.00135815,0.00073992,0.00001199,0.0
 0055037,-0.00047602,-0.00000657,0.00018816,0.00013547,0.00000149,-0.00
 059215,0.00008265,0.00000182,0.00050944,-0.00146175,-0.00001846,0.0002
 7754,-0.00049482,-0.00000629,0.00003327,0.00049171,0.00000565,0.000027
 60,0.00017798,0.00000209,-0.00173359,0.01440757,-0.00163199,-0.0017497
 6,0.01449723,0.00198742,0.06854496,0.05080200,-0.30477103,-0.00311848,
 -0.00746027,-0.02207784,-0.00025732,-0.00216059,0.00325263,0.00004053,
 0.00015858,0.00007867,-0.00000683,-0.00030249,-0.00004998,-0.00000255,
 0.00029163,-0.00012832,-0.00000240,-0.00045727,0.00012607,0.00000199,0
 .00005932,-0.00076368,-0.00001216,0.00084958,-0.00083818,-0.00001050,-
 0.00041909,0.00091717,0.00001254,-0.00040472,-0.00003004,0.00000012,0.
 00274684,-0.00604979,-0.00008272,0.00286769,-0.00666687,-0.00011633,-0
 .04629786,0.33725179,0.00061644,-0.00314800,-0.05185496,-0.00007731,-0
 .00015479,0.00052608,-0.00001222,0.00002507,0.00079570,0.00000536,-0.0
 0000902,0.00061115,-0.00000441,-0.00000223,0.00024621,0.00000307,-0.00
 000220,0.00002625,-0.00000392,0.00000074,0.00002169,0.00000036,-0.0000
 0810,0.00024379,0.00000962,-0.00000833,-0.00008074,-0.00000528,0.00001
 131,-0.00007551,-0.00000492,-0.00000092,0.00001367,0.00505366,-0.02606
 905,0.00122375,-0.00497437,0.02581288,0.00184878,-0.00059901,0.0035494
 3,0.04710992,-0.00073780,-0.00186144,-0.00002057,0.00118766,-0.0009054
 1,-0.00002333,-0.02128781,-0.01569372,-0.00014530,-0.28945385,-0.10519
 973,-0.00078418,0.00076621,0.00022358,-0.00000143,0.00204694,-0.000343
 83,0.00000022,0.00006369,0.00056428,0.00000565,-0.00140718,0.00488955,
 0.00007318,-0.00011872,-0.00150948,-0.00001261,-0.00013638,0.00039223,
 0.00000443,-0.00061340,0.00038865,0.00000450,0.00041750,-0.00031463,-0
 .00092029,0.00042258,-0.00034520,0.00090975,0.00108602,-0.00030786,-0.
 00000731,0.30726961,0.00149828,-0.00506679,-0.00005996,-0.00226651,0.0
 0048509,0.00006710,0.01461163,0.01200724,0.00008155,-0.11050321,-0.106
 49024,-0.00079120,-0.02926713,-0.00761296,-0.00001179,0.00115739,-0.00
 587620,-0.00013717,0.00078702,-0.00068037,-0.00000250,0.00225501,-0.00
 166706,-0.00009486,0.00087386,0.00021743,-0.00002109,-0.00020215,0.000
 53614,0.00000914,0.00007996,-0.00031739,0.00000186,0.00008027,-0.00208
 659,-0.00002269,0.00008222,-0.00204179,-0.00002290,0.00075115,0.000016
 43,0.00000517,0.12072304,0.11810953,0.00001657,-0.00005502,-0.00024525
 ,-0.00003918,0.00006678,-0.00457173,0.00022739,0.00014364,0.00312798,-
 0.00084884,-0.00081259,-0.02478376,-0.00035971,-0.00006163,-0.00193486
 ,0.00001835,-0.00013257,0.00504055,0.00001037,-0.00000230,-0.00056148,
 0.00003808,-0.00010041,0.00568550,0.00001798,-0.00001887,0.00177437,-0
 .00000329,0.00001224,-0.00019164,-0.00000055,-0.00000062,-0.00047350,0
 .00009118,0.00196101,-0.00014327,-0.00009217,-0.00200566,-0.00019125,0
 .00000609,0.00000727,-0.00059354,0.00093062,0.00096837,0.01992486,-0.0
 0016289,-0.00004367,-0.00000006,0.00026323,0.00009848,0.00000336,0.000
 80475,-0.00119814,-0.00000737,0.00436538,-0.00373232,-0.00006779,-0.25
 509834,0.13110774,0.00215847,-0.01704822,0.01954834,0.00026439,-0.0036
 0932,-0.00466922,-0.00003565,0.00055350,-0.00050913,-0.00001042,0.0001
 0540,-0.00016477,-0.00000256,-0.00014209,0.00025852,0.00000332,-0.0001
 5298,0.00021327,0.00000255,0.00002858,-0.00001181,0.00000680,0.0000285
 1,-0.00001172,-0.00000749,-0.00002238,0.00003730,0.00000045,0.00077851
 ,0.00074016,0.00000462,0.26940073,0.00086649,0.00045668,0.00000345,0.0
 0127322,-0.00230793,-0.00004680,-0.00350803,-0.00415021,-0.00009068,0.
 02710178,-0.01131634,-0.00013044,0.13053358,-0.14427126,-0.00196681,-0
 .01118483,0.01099729,0.00022488,-0.00281426,-0.00097868,-0.00007116,-0
 .00004314,-0.00000066,0.00001786,-0.00033797,0.00020176,0.00000617,0.0
 0015289,-0.00000733,-0.00000058,0.00037555,0.00016820,0.00000278,-0.00
 011142,0.00004145,0.00008595,-0.00011174,0.00004428,-0.00008302,-0.000
 07115,-0.00007901,-0.00000044,-0.00057740,0.00110167,0.00003034,-0.141
 92156,0.14899547,0.00001135,0.00000594,-0.00001956,0.00001665,-0.00004
 538,0.00138583,-0.00003485,-0.00009223,0.00371000,0.00030595,-0.000059
 74,-0.00549297,0.00216154,-0.00197197,-0.00737658,-0.00011982,0.000158
 00,-0.00537264,-0.00001291,-0.00006693,0.00535888,-0.00000320,0.000016
 95,-0.00146969,-0.00000772,0.00000871,-0.00027114,0.00000302,-0.000004
 82,0.00002750,0.00000620,0.00000392,-0.00011136,0.00000607,0.00003595,
 -0.00005584,-0.00000941,-0.00003361,-0.00005886,-0.00000098,-0.0000007
 5,-0.00002980,-0.00001080,0.00002719,-0.00124185,-0.00231330,0.0019967
 8,0.01178983,-0.00016433,-0.00006642,-0.00000101,0.00033724,0.00027090
 ,0.00000125,-0.00110566,0.00017269,0.00000211,-0.00504777,-0.00164356,
 0.00000609,0.00428491,-0.02818591,-0.00035263,-0.06119934,-0.02500273,
 -0.00022887,0.00639727,0.02741782,0.00031485,-0.00366548,0.00124479,0.
 00004054,0.00059015,0.00146424,0.00001940,-0.00044562,-0.00036190,-0.0
 0000524,0.00000883,0.00006762,0.00000086,0.00002727,0.00000345,-0.0000
 7388,0.00002755,0.00000118,0.00007389,0.00007071,-0.00001516,-0.000000
 41,-0.00012219,-0.00146600,-0.00001735,0.00090894,0.00091808,0.0000042
 3,0.05823166,0.00020734,0.00006442,0.00000306,-0.00018579,-0.00050371,
 0.00000259,0.00010254,0.00100453,0.00002083,-0.00325046,0.00108553,-0.
 00006125,0.00186781,-0.01083216,-0.00012038,-0.02343595,-0.32758539,-0
 .00353945,-0.00448634,-0.01612556,-0.00018696,0.00388298,0.00096330,-0
 .00009332,-0.00160813,-0.00033656,-0.00001591,0.00075137,-0.00071803,-
 0.00000181,0.00065104,0.00018717,0.00000103,-0.00004396,0.00001349,-0.
 00001454,-0.00004321,0.00001547,0.00001468,0.00002313,-0.00006335,-0.0
 0000049,0.00003384,-0.00076432,-0.00001224,-0.00065270,0.00077235,0.00
 003903,0.02573870,0.35175939,0.00000245,0.00000376,-0.00024039,-0.0000
 0436,0.00000105,-0.00069118,0.00000241,0.00002107,-0.00075614,-0.00001
 368,-0.00006551,0.00685075,0.00000398,-0.00006044,-0.00128255,-0.00020
 114,-0.00353320,-0.02906200,-0.00007215,-0.00025420,0.00021974,0.00007
 079,-0.00008698,0.00804574,-0.00001727,-0.00002245,0.00114279,0.000008
 66,0.00000141,-0.00062928,0.00000726,0.00000148,0.00001477,0.00002978,
 0.00009993,0.00001852,-0.00003085,-0.00010005,0.00001638,0.00000006,-0
 .00000045,-0.00002827,0.00000102,-0.00000850,0.00024505,-0.00001519,0.
 00003598,-0.00235301,0.00023472,0.00389649,0.02319375,0.00013537,0.000
 06613,-0.00000018,-0.00011020,0.00009880,0.00000075,0.00145714,0.00032
 992,0.00001073,0.00031808,-0.00004657,-0.00000153,-0.00091435,0.004851
 78,0.00007462,-0.01957532,-0.01338518,-0.00011596,-0.28738213,-0.11811
 759,-0.00085594,0.00055663,0.00019475,0.00000499,-0.00015655,-0.000448
 64,-0.00000766,0.00029891,-0.00015878,-0.00000275,-0.00400747,0.003961
 73,0.00005367,-0.00001312,0.00000203,-0.00000551,-0.00001332,0.0000016
 6,0.00000568,0.00000244,-0.00001810,-0.00000026,-0.00005121,-0.0000580
 7,-0.00000209,-0.00105122,-0.00053155,-0.00000163,0.00090648,0.0005030
 8,-0.00000602,0.30936169,0.00027949,-0.00032660,-0.00000158,-0.0022318
 4,-0.00096525,0.00000032,0.00289223,-0.00469780,-0.00011184,0.00016268
 ,-0.00052033,-0.00000542,0.00317507,-0.00125544,-0.00009539,0.01696686
 ,0.01074466,0.00007862,-0.11535180,-0.11392784,-0.00078629,-0.02743157
 ,-0.00899588,-0.00007373,-0.00533200,0.00007716,0.00001725,0.00125147,
 -0.00066583,-0.00000611,0.00330771,0.00050760,0.00000242,-0.00007130,-
 0.00000530,0.00003597,-0.00007038,-0.00000324,-0.00003618,-0.00015842,
 -0.00011401,-0.00000087,-0.00009191,0.00009459,0.00000948,0.00086775,0
 .00031483,-0.00001626,-0.00056366,0.00110087,0.00007115,0.12233139,0.1
 1822162,0.00000183,-0.00000021,-0.00032090,-0.00002739,-0.00000498,-0.
 00055131,0.00004282,-0.00010809,0.00421540,-0.00000087,-0.00000482,-0.
 00006475,0.00005499,-0.00009920,0.00608475,0.00024807,0.00014263,0.001
 20059,-0.00082103,-0.00077541,-0.02775213,-0.00033044,-0.00013668,0.00
 190145,-0.00006145,0.00000681,-0.00058915,0.00001320,-0.00000131,-0.00
 033904,0.00004450,-0.00000051,-0.00009449,0.00005484,0.00005615,0.0000
 1937,-0.00005632,-0.00005685,0.00001746,-0.00000189,-0.00000120,-0.000
 01062,-0.00000233,0.00000972,-0.00068254,0.00001532,-0.00001348,0.0015
 0512,-0.00001868,0.00006915,-0.00471159,0.00084481,0.00091279,0.020316
 54,-0.00020188,-0.00017753,-0.00000155,0.00043150,0.00005620,-0.000000
 11,-0.00043306,0.00141001,0.00001918,-0.00047164,0.00049789,0.00000655
 ,0.00059496,-0.00072454,-0.00001008,-0.00049259,0.00020311,0.00000349,
 0.00074085,-0.00211329,-0.00002616,-0.00336066,-0.00516216,-0.00005437
 ,-0.05131415,0.03144970,0.00049748,0.01023679,0.00152250,-0.00001300,-
 0.27533963,0.21305510,0.00320797,0.00005142,-0.00001454,-0.00002524,0.
 00005161,-0.00001504,0.00002466,-0.00003566,0.00003047,0.00000045,-0.0
 0011017,0.00012309,0.00000193,0.00004992,-0.00000856,-0.00000039,-0.00
 004064,-0.00005531,-0.00000044,0.00023816,0.00006824,0.00000001,0.3194
 0487,-0.00009176,-0.00007611,-0.00000100,0.00022490,0.00013294,0.00000
 250,-0.00054398,0.00072390,-0.00001191,-0.00022992,-0.00050708,-0.0000
 0556,0.00031741,0.00016832,0.00000219,-0.00000639,0.00022761,0.0000032
 6,0.00007812,-0.00052893,-0.00000354,-0.00359153,-0.00312341,-0.000035
 07,-0.01804975,0.02338396,0.00027156,0.00217378,-0.00712215,-0.0000317
 2,0.25940583,-0.28182906,-0.00394007,0.00003423,0.00000048,-0.00002172
 ,0.00003467,-0.00000037,0.00002173,-0.00001833,-0.00001065,-0.00000016
 ,-0.00006456,0.00003559,0.00000280,0.00004349,0.00001745,-0.00000077,0
 .00000586,-0.00003744,-0.00000055,0.00042323,0.00041616,0.00000549,-0.
 24014531,0.26812881,-0.00000057,-0.00000077,0.00002812,0.00000180,0.00
 000285,-0.00010569,-0.00000399,-0.00001458,0.00175454,-0.00000183,-0.0
 0000482,-0.00000745,0.00000194,0.00000225,-0.00007484,0.00000091,0.000
 00279,-0.00003155,-0.00000305,-0.00000102,-0.00017596,-0.00003595,-0.0
 0002915,0.00021441,-0.00011464,0.00016452,0.00437280,-0.00000696,-0.00
 003053,-0.00492125,0.00378863,-0.00384104,-0.00807185,0.00001172,-0.00
 001360,-0.00000690,-0.00001120,0.00001377,-0.00000615,-0.00000016,-0.0
 0000021,0.00000644,-0.00000121,0.00000256,-0.00018366,0.00000051,-0.00
 000076,0.00007615,0.00000010,-0.00000049,0.00000691,0.00000429,0.00000
 566,-0.00014415,-0.00363037,0.00374255,0.00727007\\0.00000462,0.000003
 98,0.00000321,-0.00000382,-0.00001681,-0.00001130,0.00002160,0.0000109
 6,0.00000927,-0.00001374,0.00002561,0.00000270,0.,-0.00002882,-0.00000
 675,-0.00000035,0.00001488,0.00000523,0.00000255,-0.00000908,0.0000001
 9,-0.00002464,0.00002185,-0.00000833,-0.00003216,-0.00009247,0.0000081
 8,-0.00000075,0.00005437,0.00000197,0.00004732,0.00001571,0.00000784,0
 .00000178,0.00000009,-0.00000043,0.00000006,-0.00000326,-0.00000090,0.
 00000068,-0.00000211,0.00000033,0.00000284,-0.00000002,-0.00000198,-0.
 00000270,0.00000339,0.00000380,0.00000039,-0.00000361,-0.00000162,-0.0
 0000598,0.00000213,-0.00000387,0.00000229,0.00000323,-0.00000754\\\@
 The archive entry for this job was punched.


 I SUPPOSE A BABY LLAMA HAS A MMAMA AND A PPOPA.
     -- RICHARD AMOUR
 Job cpu time:       0 days  3 hours 40 minutes 35.2 seconds.
 Elapsed time:       0 days  0 hours 27 minutes 49.2 seconds.
 File lengths (MBytes):  RWF=    465 Int=      0 D2E=      0 Chk=     18 Scr=      1
 Normal termination of Gaussian 16 at Mon Jan 29 13:54:34 2024.
