Job Start Time: Mon Jan 29 12:53:47 MST 2024
SLURM Job ID: 229719
SLURM Job Name: Ac5_rdkit_conf_2_AD_IE
 Entering Gaussian System, Link 0=/opt/apps/Gaussian/G16C/g16/g16
 Initial command:
 /opt/apps/Gaussian/G16C/g16/l1.exe "/tmp/Gau-2416458.inp" -scrdir="/tmp/"
 Entering Link 1 = /opt/apps/Gaussian/G16C/g16/l1.exe PID=   2416464.
  
 Copyright (c) 1988-2019, Gaussian, Inc.  All Rights Reserved.
  
 This is part of the Gaussian(R) 16 program.  It is based on
 the Gaussian(R) 09 system (copyright 2009, Gaussian, Inc.),
 the Gaussian(R) 03 system (copyright 2003, Gaussian, Inc.),
 the Gaussian(R) 98 system (copyright 1998, Gaussian, Inc.),
 the Gaussian(R) 94 system (copyright 1995, Gaussian, Inc.),
 the Gaussian 92(TM) system (copyright 1992, Gaussian, Inc.),
 the Gaussian 90(TM) system (copyright 1990, Gaussian, Inc.),
 the Gaussian 88(TM) system (copyright 1988, Gaussian, Inc.),
 the Gaussian 86(TM) system (copyright 1986, Carnegie Mellon
 University), and the Gaussian 82(TM) system (copyright 1983,
 Carnegie Mellon University). Gaussian is a federally registered
 trademark of Gaussian, Inc.
  
 This software contains proprietary and confidential information,
 including trade secrets, belonging to Gaussian, Inc.
  
 This software is provided under written license and may be
 used, copied, transmitted, or stored only in accord with that
 written license.
  
 The following legend is applicable only to US Government
 contracts under FAR:
  
                    RESTRICTED RIGHTS LEGEND
  
 Use, reproduction and disclosure by the US Government is
 subject to restrictions as set forth in subparagraphs (a)
 and (c) of the Commercial Computer Software - Restricted
 Rights clause in FAR 52.227-19.
  
 Gaussian, Inc.
 340 Quinnipiac St., Bldg. 40, Wallingford CT 06492
  
  
 ---------------------------------------------------------------
 Warning -- This program may not be used in any manner that
 competes with the business of Gaussian, Inc. or will provide
 assistance to any competitor of Gaussian, Inc.  The licensee
 of this program is prohibited from giving any competitor of
 Gaussian, Inc. access to this program.  By using this program,
 the user acknowledges that Gaussian, Inc. is engaged in the
 business of creating and licensing software in the field of
 computational chemistry and represents and warrants to the
 licensee that it is not a competitor of Gaussian, Inc. and that
 it will not use this program in any manner prohibited above.
 ---------------------------------------------------------------
  

 Cite this work as:
 Gaussian 16, Revision C.01,
 M. J. Frisch, G. W. Trucks, H. B. Schlegel, G. E. Scuseria, 
 M. A. Robb, J. R. Cheeseman, G. Scalmani, V. Barone, 
 G. A. Petersson, H. Nakatsuji, X. Li, M. Caricato, A. V. Marenich, 
 J. Bloino, B. G. Janesko, R. Gomperts, B. Mennucci, H. P. Hratchian, 
 J. V. Ortiz, A. F. Izmaylov, J. L. Sonnenberg, D. Williams-Young, 
 F. Ding, F. Lipparini, F. Egidi, J. Goings, B. Peng, A. Petrone, 
 T. Henderson, D. Ranasinghe, V. G. Zakrzewski, J. Gao, N. Rega, 
 G. Zheng, W. Liang, M. Hada, M. Ehara, K. Toyota, R. Fukuda, 
 J. Hasegawa, M. Ishida, T. Nakajima, Y. Honda, O. Kitao, H. Nakai, 
 T. Vreven, K. Throssell, J. A. Montgomery, Jr., J. E. Peralta, 
 F. Ogliaro, M. J. Bearpark, J. J. Heyd, E. N. Brothers, K. N. Kudin, 
 V. N. Staroverov, T. A. Keith, R. Kobayashi, J. Normand, 
 K. Raghavachari, A. P. Rendell, J. C. Burant, S. S. Iyengar, 
 J. Tomasi, M. Cossi, J. M. Millam, M. Klene, C. Adamo, R. Cammi, 
 J. W. Ochterski, R. L. Martin, K. Morokuma, O. Farkas, 
 J. B. Foresman, and D. J. Fox, Gaussian, Inc., Wallingford CT, 2019.
 
 ******************************************
 Gaussian 16:  AS64L-G16RevC.01  3-Jul-2019
                29-Jan-2024 
 ******************************************
 %nprocshared=8
 Will use up to    8 processors via shared memory.
 %mem=16GB
 ---------------------------------
 # m062x/def2tzvp opt freq=noraman
 ---------------------------------
 1/18=20,19=15,26=3,38=1/1,3;
 2/9=110,12=2,17=6,18=5,40=1/2;
 3/5=44,7=101,11=2,25=1,30=1,71=1,74=-55/1,2,3;
 4//1;
 5/5=2,38=5/2;
 6/7=2,8=2,9=2,10=2,28=1/1;
 7//1,2,3,16;
 1/18=20,19=15,26=3/3(2);
 2/9=110/2;
 99//99;
 2/9=110/2;
 3/5=44,7=101,11=2,25=1,30=1,71=1,74=-55/1,2,3;
 4/5=5,16=3,69=1/1;
 5/5=2,38=5/2;
 7//1,2,3,16;
 1/18=20,19=15,26=3/3(-5);
 2/9=110/2;
 6/7=2,8=2,9=2,10=2,19=2,28=1/1;
 99/9=1/99;
 ----------------------
 Ac5_rdkit_conf_2_AD_IE
 ----------------------
 Symbolic Z-matrix:
 Charge =  1 Multiplicity = 2
 C                     1.32151   0.58391   1.7169 
 C                     0.96652   0.48245   0.22414 
 C                     1.40881   1.77534  -0.47803 
 C                     1.76481  -0.63503  -0.44265 
 O                     1.36379  -1.38899  -1.28181 
 O                     3.04698  -0.65924  -0.02092 
 C                    -0.52267   0.20173   0.07876 
 C                    -1.41346   1.13728  -0.43184 
 C                    -2.77643   0.86511  -0.4927 
 C                    -3.26726  -0.34908  -0.04551 
 C                    -2.38502  -1.29525   0.46288 
 C                    -1.03078  -1.01928   0.52341 
 H                     1.10676  -0.34746   2.2408 
 H                     2.37562   0.82171   1.84963 
 H                     0.71842   1.3726    2.16763 
 H                     0.93319   2.63568  -0.00655 
 H                     1.14511   1.7631   -1.5361 
 H                     2.48779   1.89337  -0.38558 
 H                     3.49451  -1.35006  -0.53004 
 H                    -1.05809   2.0921   -0.79389 
 H                    -3.45145   1.60899  -0.89599 
 H                    -4.327    -0.56242  -0.09542 
 H                    -2.75425  -2.25247   0.80765 
 H                    -0.35285  -1.77242   0.90769 
 

 GradGradGradGradGradGradGradGradGradGradGradGradGradGradGradGradGradGrad
 Berny optimization.
 Initialization pass.
                           ----------------------------
                           !    Initial Parameters    !
                           ! (Angstroms and Degrees)  !
 --------------------------                            --------------------------
 ! Name  Definition              Value          Derivative Info.                !
 --------------------------------------------------------------------------------
 ! R1    R(1,2)                  1.5377         estimate D2E/DX2                !
 ! R2    R(1,13)                 1.09           estimate D2E/DX2                !
 ! R3    R(1,14)                 1.0887         estimate D2E/DX2                !
 ! R4    R(1,15)                 1.0904         estimate D2E/DX2                !
 ! R5    R(2,3)                  1.5363         estimate D2E/DX2                !
 ! R6    R(2,4)                  1.5266         estimate D2E/DX2                !
 ! R7    R(2,7)                  1.5224         estimate D2E/DX2                !
 ! R8    R(3,16)                 1.0903         estimate D2E/DX2                !
 ! R9    R(3,17)                 1.0905         estimate D2E/DX2                !
 ! R10   R(3,18)                 1.0893         estimate D2E/DX2                !
 ! R11   R(4,5)                  1.1973         estimate D2E/DX2                !
 ! R12   R(4,6)                  1.35           estimate D2E/DX2                !
 ! R13   R(6,19)                 0.9678         estimate D2E/DX2                !
 ! R14   R(7,8)                  1.3891         estimate D2E/DX2                !
 ! R15   R(7,12)                 1.3953         estimate D2E/DX2                !
 ! R16   R(8,9)                  1.3912         estimate D2E/DX2                !
 ! R17   R(8,20)                 1.0812         estimate D2E/DX2                !
 ! R18   R(9,10)                 1.3839         estimate D2E/DX2                !
 ! R19   R(9,21)                 1.0824         estimate D2E/DX2                !
 ! R20   R(10,11)                1.39           estimate D2E/DX2                !
 ! R21   R(10,22)                1.0821         estimate D2E/DX2                !
 ! R22   R(11,12)                1.3834         estimate D2E/DX2                !
 ! R23   R(11,23)                1.0823         estimate D2E/DX2                !
 ! R24   R(12,24)                1.0837         estimate D2E/DX2                !
 ! A1    A(2,1,13)             111.3914         estimate D2E/DX2                !
 ! A2    A(2,1,14)             110.8716         estimate D2E/DX2                !
 ! A3    A(2,1,15)             108.743          estimate D2E/DX2                !
 ! A4    A(13,1,14)            108.59           estimate D2E/DX2                !
 ! A5    A(13,1,15)            108.084          estimate D2E/DX2                !
 ! A6    A(14,1,15)            109.0947         estimate D2E/DX2                !
 ! A7    A(1,2,3)              108.7655         estimate D2E/DX2                !
 ! A8    A(1,2,4)              110.5836         estimate D2E/DX2                !
 ! A9    A(1,2,7)              109.3106         estimate D2E/DX2                !
 ! A10   A(3,2,4)              105.4167         estimate D2E/DX2                !
 ! A11   A(3,2,7)              113.1508         estimate D2E/DX2                !
 ! A12   A(4,2,7)              109.5621         estimate D2E/DX2                !
 ! A13   A(2,3,16)             109.9276         estimate D2E/DX2                !
 ! A14   A(2,3,17)             111.3702         estimate D2E/DX2                !
 ! A15   A(2,3,18)             109.7271         estimate D2E/DX2                !
 ! A16   A(16,3,17)            108.8417         estimate D2E/DX2                !
 ! A17   A(16,3,18)            108.0527         estimate D2E/DX2                !
 ! A18   A(17,3,18)            108.8493         estimate D2E/DX2                !
 ! A19   A(2,4,5)              126.2946         estimate D2E/DX2                !
 ! A20   A(2,4,6)              111.9211         estimate D2E/DX2                !
 ! A21   A(5,4,6)              121.7214         estimate D2E/DX2                !
 ! A22   A(4,6,19)             106.7171         estimate D2E/DX2                !
 ! A23   A(2,7,8)              122.5626         estimate D2E/DX2                !
 ! A24   A(2,7,12)             119.1546         estimate D2E/DX2                !
 ! A25   A(8,7,12)             118.2297         estimate D2E/DX2                !
 ! A26   A(7,8,9)              120.8367         estimate D2E/DX2                !
 ! A27   A(7,8,20)             120.4704         estimate D2E/DX2                !
 ! A28   A(9,8,20)             118.6925         estimate D2E/DX2                !
 ! A29   A(8,9,10)             120.33           estimate D2E/DX2                !
 ! A30   A(8,9,21)             119.5258         estimate D2E/DX2                !
 ! A31   A(10,9,21)            120.1439         estimate D2E/DX2                !
 ! A32   A(9,10,11)            119.3609         estimate D2E/DX2                !
 ! A33   A(9,10,22)            120.3574         estimate D2E/DX2                !
 ! A34   A(11,10,22)           120.281          estimate D2E/DX2                !
 ! A35   A(10,11,12)           120.1024         estimate D2E/DX2                !
 ! A36   A(10,11,23)           120.1324         estimate D2E/DX2                !
 ! A37   A(12,11,23)           119.7643         estimate D2E/DX2                !
 ! A38   A(7,12,11)            121.1397         estimate D2E/DX2                !
 ! A39   A(7,12,24)            119.5611         estimate D2E/DX2                !
 ! A40   A(11,12,24)           119.2911         estimate D2E/DX2                !
 ! D1    D(13,1,2,3)          -174.9358         estimate D2E/DX2                !
 ! D2    D(13,1,2,4)           -59.6266         estimate D2E/DX2                !
 ! D3    D(13,1,2,7)            61.0756         estimate D2E/DX2                !
 ! D4    D(14,1,2,3)           -53.8858         estimate D2E/DX2                !
 ! D5    D(14,1,2,4)            61.4234         estimate D2E/DX2                !
 ! D6    D(14,1,2,7)          -177.8744         estimate D2E/DX2                !
 ! D7    D(15,1,2,3)            66.0541         estimate D2E/DX2                !
 ! D8    D(15,1,2,4)          -178.6368         estimate D2E/DX2                !
 ! D9    D(15,1,2,7)           -57.9346         estimate D2E/DX2                !
 ! D10   D(1,2,3,16)           -57.3072         estimate D2E/DX2                !
 ! D11   D(1,2,3,17)          -178.0208         estimate D2E/DX2                !
 ! D12   D(1,2,3,18)            61.3901         estimate D2E/DX2                !
 ! D13   D(4,2,3,16)          -175.9183         estimate D2E/DX2                !
 ! D14   D(4,2,3,17)            63.368          estimate D2E/DX2                !
 ! D15   D(4,2,3,18)           -57.221          estimate D2E/DX2                !
 ! D16   D(7,2,3,16)            64.3688         estimate D2E/DX2                !
 ! D17   D(7,2,3,17)           -56.3449         estimate D2E/DX2                !
 ! D18   D(7,2,3,18)          -176.9339         estimate D2E/DX2                !
 ! D19   D(1,2,4,5)            141.5798         estimate D2E/DX2                !
 ! D20   D(1,2,4,6)            -41.286          estimate D2E/DX2                !
 ! D21   D(3,2,4,5)           -101.0318         estimate D2E/DX2                !
 ! D22   D(3,2,4,6)             76.1024         estimate D2E/DX2                !
 ! D23   D(7,2,4,5)             21.0276         estimate D2E/DX2                !
 ! D24   D(7,2,4,6)           -161.8382         estimate D2E/DX2                !
 ! D25   D(1,2,7,8)            110.801          estimate D2E/DX2                !
 ! D26   D(1,2,7,12)           -66.499          estimate D2E/DX2                !
 ! D27   D(3,2,7,8)            -10.5683         estimate D2E/DX2                !
 ! D28   D(3,2,7,12)           172.1317         estimate D2E/DX2                !
 ! D29   D(4,2,7,8)           -127.8759         estimate D2E/DX2                !
 ! D30   D(4,2,7,12)            54.8241         estimate D2E/DX2                !
 ! D31   D(2,4,6,19)          -176.2934         estimate D2E/DX2                !
 ! D32   D(5,4,6,19)             0.9913         estimate D2E/DX2                !
 ! D33   D(2,7,8,9)           -177.0646         estimate D2E/DX2                !
 ! D34   D(2,7,8,20)             3.1693         estimate D2E/DX2                !
 ! D35   D(12,7,8,9)             0.2592         estimate D2E/DX2                !
 ! D36   D(12,7,8,20)         -179.5069         estimate D2E/DX2                !
 ! D37   D(2,7,12,11)          177.2633         estimate D2E/DX2                !
 ! D38   D(2,7,12,24)           -3.7824         estimate D2E/DX2                !
 ! D39   D(8,7,12,11)           -0.154          estimate D2E/DX2                !
 ! D40   D(8,7,12,24)          178.8003         estimate D2E/DX2                !
 ! D41   D(7,8,9,10)            -0.1268         estimate D2E/DX2                !
 ! D42   D(7,8,9,21)          -179.9115         estimate D2E/DX2                !
 ! D43   D(20,8,9,10)          179.6434         estimate D2E/DX2                !
 ! D44   D(20,8,9,21)           -0.1413         estimate D2E/DX2                !
 ! D45   D(8,9,10,11)           -0.1167         estimate D2E/DX2                !
 ! D46   D(8,9,10,22)         -179.8138         estimate D2E/DX2                !
 ! D47   D(21,9,10,11)         179.6667         estimate D2E/DX2                !
 ! D48   D(21,9,10,22)          -0.0304         estimate D2E/DX2                !
 ! D49   D(9,10,11,12)           0.2211         estimate D2E/DX2                !
 ! D50   D(9,10,11,23)        -179.4389         estimate D2E/DX2                !
 ! D51   D(22,10,11,12)        179.9184         estimate D2E/DX2                !
 ! D52   D(22,10,11,23)          0.2584         estimate D2E/DX2                !
 ! D53   D(10,11,12,7)          -0.0852         estimate D2E/DX2                !
 ! D54   D(10,11,12,24)       -179.0423         estimate D2E/DX2                !
 ! D55   D(23,11,12,7)         179.5761         estimate D2E/DX2                !
 ! D56   D(23,11,12,24)          0.619          estimate D2E/DX2                !
 --------------------------------------------------------------------------------
 Trust Radius=3.00D-01 FncErr=1.00D-07 GrdErr=1.00D-06 EigMax=2.50D+02 EigMin=1.00D-04
 Number of steps in this run=    130 maximum allowed number of steps=    144.
 GradGradGradGradGradGradGradGradGradGradGradGradGradGradGradGradGradGrad

                          Input orientation:                          
 ---------------------------------------------------------------------
 Center     Atomic      Atomic             Coordinates (Angstroms)
 Number     Number       Type             X           Y           Z
 ---------------------------------------------------------------------
      1          6           0        1.321507    0.583906    1.716899
      2          6           0        0.966515    0.482447    0.224139
      3          6           0        1.408811    1.775344   -0.478034
      4          6           0        1.764810   -0.635028   -0.442652
      5          8           0        1.363794   -1.388985   -1.281814
      6          8           0        3.046975   -0.659240   -0.020920
      7          6           0       -0.522671    0.201729    0.078761
      8          6           0       -1.413457    1.137278   -0.431842
      9          6           0       -2.776432    0.865113   -0.492702
     10          6           0       -3.267260   -0.349082   -0.045514
     11          6           0       -2.385022   -1.295248    0.462875
     12          6           0       -1.030784   -1.019277    0.523406
     13          1           0        1.106764   -0.347461    2.240800
     14          1           0        2.375615    0.821706    1.849632
     15          1           0        0.718423    1.372597    2.167632
     16          1           0        0.933189    2.635681   -0.006546
     17          1           0        1.145112    1.763103   -1.536097
     18          1           0        2.487786    1.893367   -0.385577
     19          1           0        3.494506   -1.350061   -0.530038
     20          1           0       -1.058094    2.092101   -0.793887
     21          1           0       -3.451449    1.608985   -0.895989
     22          1           0       -4.326995   -0.562420   -0.095424
     23          1           0       -2.754247   -2.252468    0.807653
     24          1           0       -0.352852   -1.772417    0.907692
 ---------------------------------------------------------------------
                    Distance matrix (angstroms):
                    1          2          3          4          5
     1  C    0.000000
     2  C    1.537740   0.000000
     3  C    2.498975   1.536312   0.000000
     4  C    2.519122   1.526642   2.436777   0.000000
     5  O    3.589759   2.434745   3.265129   1.197271   0.000000
     6  O    2.746392   2.385753   2.969804   1.349960   2.226091
     7  C    2.496107   1.522371   2.552823   2.490904   2.817851
     8  C    3.521837   2.554091   2.893866   3.639034   3.849361
     9  C    4.664174   3.830137   4.283106   4.782866   4.779658
    10  C    5.003334   4.323078   5.154212   5.055810   4.904742
    11  C    4.340755   3.801315   4.970615   4.298485   4.135982
    12  C    3.086729   2.516732   3.842449   2.982660   3.021507
    13  H    1.089968   2.185255   3.462599   2.777883   3.682342
    14  H    1.088720   2.177817   2.694840   2.783832   3.964453
    15  H    1.090369   2.151995   2.763764   3.455295   4.465593
    16  H    2.707551   2.165812   1.090274   3.402840   4.243780
    17  H    3.464622   2.184126   1.090497   2.707523   3.169880
    18  H    2.737755   2.162571   1.089341   2.630348   3.583355
    19  H    3.675715   3.212103   3.757790   1.873701   2.259782
    20  H    3.773751   2.779641   2.507134   3.940734   4.268674
    21  H    5.537064   4.694910   4.881034   5.696531   5.685354
    22  H    6.041867   5.405101   6.205723   6.102125   5.871611
    23  H    5.048120   4.654494   5.933575   4.959965   4.697844
    24  H    3.001758   2.700442   4.196463   2.757095   2.808528
                    6          7          8          9         10
     6  O    0.000000
     7  C    3.673360   0.000000
     8  C    4.826157   1.389053   0.000000
     9  C    6.038071   2.417868   1.391215   0.000000
    10  C    6.321896   2.802072   2.407302   1.383893   0.000000
    11  C    5.490460   2.420090   2.767967   2.394470   1.389976
    12  C    4.129653   1.395258   2.389491   2.762370   2.403051
    13  H    2.996165   2.762441   3.962194   4.901181   4.935516
    14  H    2.478485   3.452596   4.434160   5.659682   6.066660
    15  H    3.786856   2.697152   3.370097   4.421417   4.873178
    16  H    3.914691   2.837416   2.816529   4.139148   5.153067
    17  H    3.432286   2.797705   2.856101   4.156148   5.113921
    18  H    2.638460   3.484265   3.974105   5.364771   6.185853
    19  H    0.967842   4.349299   5.503144   6.650793   6.852605
    20  H    5.001894   2.149814   1.081224   2.132814   3.376367
    21  H    6.938307   3.392381   2.142744   1.082420   2.142722
    22  H    7.374982   3.884217   3.389816   2.144744   1.082147
    23  H    6.072815   3.396218   3.850252   3.377977   2.148012
    24  H    3.695985   2.147840   3.374249   3.845960   3.380571
                   11         12         13         14         15
    11  C    0.000000
    12  C    1.383396   0.000000
    13  H    4.031363   2.823099   0.000000
    14  H    5.391498   4.092878   1.769166   0.000000
    15  H    4.433392   3.388844   1.764869   1.775075   0.000000
    16  H    5.165567   4.182913   3.738961   2.969258   2.523600
    17  H    5.080477   4.088730   4.326766   3.723376   3.748622
    18  H    5.884844   4.657261   3.718385   2.481370   3.149718
    19  H    5.963030   4.658048   3.792633   3.410472   4.732539
    20  H    3.848938   3.378858   4.455042   4.515800   3.527647
    21  H    3.379105   3.844745   5.868938   6.489447   5.179719
    22  H    2.149417   3.384771   5.918605   7.115056   5.858494
    23  H    1.082344   2.138196   4.537661   6.070564   5.200969
    24  H    2.134307   1.083738   2.436833   3.880884   3.553335
                   16         17         18         19         20
    16  H    0.000000
    17  H    1.773649   0.000000
    18  H    1.763935   1.772974   0.000000
    19  H    4.766605   4.027853   3.399144   0.000000
    20  H    2.209206   2.348027   3.574839   5.713516   0.000000
    21  H    4.590236   4.643475   5.967906   7.558847   2.443762
    22  H    6.156727   6.117806   7.249574   7.873065   4.268495
    23  H    6.176901   6.068194   6.789010   6.453733   4.931242
    24  H    4.681993   4.551473   4.814534   4.128876   4.281032
                   21         22         23         24
    21  H    0.000000
    22  H    2.474366   0.000000
    23  H    4.277769   2.478981   0.000000
    24  H    4.928331   4.273657   2.450950   0.000000
 Stoichiometry    C10H12O2(1+,2)
 Framework group  C1[X(C10H12O2)]
 Deg. of freedom    66
 Full point group                 C1      NOp   1
 Largest Abelian subgroup         C1      NOp   1
 Largest concise Abelian subgroup C1      NOp   1
                         Standard orientation:                         
 ---------------------------------------------------------------------
 Center     Atomic      Atomic             Coordinates (Angstroms)
 Number     Number       Type             X           Y           Z
 ---------------------------------------------------------------------
      1          6           0        1.321507    0.583906    1.716899
      2          6           0        0.966515    0.482447    0.224139
      3          6           0        1.408811    1.775344   -0.478034
      4          6           0        1.764810   -0.635028   -0.442652
      5          8           0        1.363794   -1.388985   -1.281814
      6          8           0        3.046975   -0.659240   -0.020920
      7          6           0       -0.522671    0.201729    0.078761
      8          6           0       -1.413457    1.137278   -0.431842
      9          6           0       -2.776432    0.865113   -0.492702
     10          6           0       -3.267260   -0.349082   -0.045514
     11          6           0       -2.385022   -1.295248    0.462875
     12          6           0       -1.030784   -1.019277    0.523406
     13          1           0        1.106764   -0.347461    2.240800
     14          1           0        2.375615    0.821706    1.849632
     15          1           0        0.718423    1.372597    2.167632
     16          1           0        0.933189    2.635681   -0.006546
     17          1           0        1.145112    1.763103   -1.536097
     18          1           0        2.487786    1.893367   -0.385577
     19          1           0        3.494506   -1.350061   -0.530038
     20          1           0       -1.058094    2.092101   -0.793887
     21          1           0       -3.451449    1.608985   -0.895989
     22          1           0       -4.326995   -0.562420   -0.095424
     23          1           0       -2.754247   -2.252468    0.807653
     24          1           0       -0.352852   -1.772417    0.907692
 ---------------------------------------------------------------------
 Rotational constants (GHZ):           1.8226471           0.6600857           0.5953216
 Standard basis: def2TZVP (5D, 7F)
 There are   504 symmetry adapted cartesian basis functions of A   symmetry.
 There are   444 symmetry adapted basis functions of A   symmetry.
   444 basis functions,   708 primitive gaussians,   504 cartesian basis functions
    44 alpha electrons       43 beta electrons
       nuclear repulsion energy       700.5680087193 Hartrees.
 NAtoms=   24 NActive=   24 NUniq=   24 SFac= 1.00D+00 NAtFMM=   60 NAOKFM=F Big=F
 Integral buffers will be    131072 words long.
 Raffenetti 2 integral format.
 Two-electron integral symmetry is turned on.
 One-electron integrals computed using PRISM.
   1 Symmetry operations used in ECPInt.
 ECPInt:  NShTT=   16290 NPrTT=   49128 LenC2=   15614 LenP2D=   36284.
 LDataN:  DoStor=T MaxTD1= 6 Len=  172
 NBasis=   444 RedAO= T EigKep=  7.54D-06  NBF=   444
 NBsUse=   444 1.00D-06 EigRej= -1.00D+00 NBFU=   444
 ExpMin= 9.52D-02 ExpMax= 2.70D+04 ExpMxC= 9.22D+02 IAcc=3 IRadAn=         5 AccDes= 0.00D+00
 Harris functional with IExCor= 1009 and IRadAn=       5 diagonalized for initial guess.
 HarFok:  IExCor= 1009 AccDes= 0.00D+00 IRadAn=         5 IDoV= 1 UseB2=F ITyADJ=14
 ICtDFT=  3500011 ScaDFX=  1.000000  1.000000  1.000000  1.000000
 FoFCou: FMM=F IPFlag=           0 FMFlag=      100000 FMFlg1=           0
         NFxFlg=           0 DoJE=T BraDBF=F KetDBF=T FulRan=T
         wScrn=  0.000000 ICntrl=       500 IOpCl=  0 I1Cent=   200000004 NGrid=           0
         NMat0=    1 NMatS0=      1 NMatT0=    0 NMatD0=    1 NMtDS0=    0 NMtDT0=    0
 Petite list used in FoFCou.
 Initial guess <Sx>= 0.0000 <Sy>= 0.0000 <Sz>= 0.5000 <S**2>= 0.7500 S= 0.5000
 Requested convergence on RMS density matrix=1.00D-08 within 128 cycles.
 Requested convergence on MAX density matrix=1.00D-06.
 Requested convergence on             energy=1.00D-06.
 No special actions if energy rises.
 Integral accuracy reduced to 1.0D-05 until final iterations.
 Initial convergence to 1.0D-05 achieved.  Increase integral accuracy.
 SCF Done:  E(UM062X) =  -538.406380909     A.U. after   23 cycles
            NFock= 23  Conv=0.42D-08     -V/T= 2.0044
 <Sx>= 0.0000 <Sy>= 0.0000 <Sz>= 0.5000 <S**2>= 0.7689 S= 0.5094
 <L.S>=  0.00000000000    
 Annihilation of the first spin contaminant:
 S**2 before annihilation     0.7689,   after     0.7501

 **********************************************************************

            Population analysis using the SCF Density.

 **********************************************************************

 Orbital symmetries:
 Alpha Orbitals:
       Occupied  (A) (A) (A) (A) (A) (A) (A) (A) (A) (A) (A) (A)
                 (A) (A) (A) (A) (A) (A) (A) (A) (A) (A) (A) (A)
                 (A) (A) (A) (A) (A) (A) (A) (A) (A) (A) (A) (A)
                 (A) (A) (A) (A) (A) (A) (A) (A)
       Virtual   (A) (A) (A) (A) (A) (A) (A) (A) (A) (A) (A) (A)
                 (A) (A) (A) (A) (A) (A) (A) (A) (A) (A) (A) (A)
                 (A) (A) (A) (A) (A) (A) (A) (A) (A) (A) (A) (A)
                 (A) (A) (A) (A) (A) (A) (A) (A) (A) (A) (A) (A)
                 (A) (A) (A) (A) (A) (A) (A) (A) (A) (A) (A) (A)
                 (A) (A) (A) (A) (A) (A) (A) (A) (A) (A) (A) (A)
                 (A) (A) (A) (A) (A) (A) (A) (A) (A) (A) (A) (A)
                 (A) (A) (A) (A) (A) (A) (A) (A) (A) (A) (A) (A)
                 (A) (A) (A) (A) (A) (A) (A) (A) (A) (A) (A) (A)
                 (A) (A) (A) (A) (A) (A) (A) (A) (A) (A) (A) (A)
                 (A) (A) (A) (A) (A) (A) (A) (A) (A) (A) (A) (A)
                 (A) (A) (A) (A) (A) (A) (A) (A) (A) (A) (A) (A)
                 (A) (A) (A) (A) (A) (A) (A) (A) (A) (A) (A) (A)
                 (A) (A) (A) (A) (A) (A) (A) (A) (A) (A) (A) (A)
                 (A) (A) (A) (A) (A) (A) (A) (A) (A) (A) (A) (A)
                 (A) (A) (A) (A) (A) (A) (A) (A) (A) (A) (A) (A)
                 (A) (A) (A) (A) (A) (A) (A) (A) (A) (A) (A) (A)
                 (A) (A) (A) (A) (A) (A) (A) (A) (A) (A) (A) (A)
                 (A) (A) (A) (A) (A) (A) (A) (A) (A) (A) (A) (A)
                 (A) (A) (A) (A) (A) (A) (A) (A) (A) (A) (A) (A)
                 (A) (A) (A) (A) (A) (A) (A) (A) (A) (A) (A) (A)
                 (A) (A) (A) (A) (A) (A) (A) (A) (A) (A) (A) (A)
                 (A) (A) (A) (A) (A) (A) (A) (A) (A) (A) (A) (A)
                 (A) (A) (A) (A) (A) (A) (A) (A) (A) (A) (A) (A)
                 (A) (A) (A) (A) (A) (A) (A) (A) (A) (A) (A) (A)
                 (A) (A) (A) (A) (A) (A) (A) (A) (A) (A) (A) (A)
                 (A) (A) (A) (A) (A) (A) (A) (A) (A) (A) (A) (A)
                 (A) (A) (A) (A) (A) (A) (A) (A) (A) (A) (A) (A)
                 (A) (A) (A) (A) (A) (A) (A) (A) (A) (A) (A) (A)
                 (A) (A) (A) (A) (A) (A) (A) (A) (A) (A) (A) (A)
                 (A) (A) (A) (A) (A) (A) (A) (A) (A) (A) (A) (A)
                 (A) (A) (A) (A) (A) (A) (A) (A) (A) (A) (A) (A)
                 (A) (A) (A) (A) (A) (A) (A) (A) (A) (A) (A) (A)
                 (A) (A) (A) (A)
 Beta  Orbitals:
       Occupied  (A) (A) (A) (A) (A) (A) (A) (A) (A) (A) (A) (A)
                 (A) (A) (A) (A) (A) (A) (A) (A) (A) (A) (A) (A)
                 (A) (A) (A) (A) (A) (A) (A) (A) (A) (A) (A) (A)
                 (A) (A) (A) (A) (A) (A) (A)
       Virtual   (A) (A) (A) (A) (A) (A) (A) (A) (A) (A) (A) (A)
                 (A) (A) (A) (A) (A) (A) (A) (A) (A) (A) (A) (A)
                 (A) (A) (A) (A) (A) (A) (A) (A) (A) (A) (A) (A)
                 (A) (A) (A) (A) (A) (A) (A) (A) (A) (A) (A) (A)
                 (A) (A) (A) (A) (A) (A) (A) (A) (A) (A) (A) (A)
                 (A) (A) (A) (A) (A) (A) (A) (A) (A) (A) (A) (A)
                 (A) (A) (A) (A) (A) (A) (A) (A) (A) (A) (A) (A)
                 (A) (A) (A) (A) (A) (A) (A) (A) (A) (A) (A) (A)
                 (A) (A) (A) (A) (A) (A) (A) (A) (A) (A) (A) (A)
                 (A) (A) (A) (A) (A) (A) (A) (A) (A) (A) (A) (A)
                 (A) (A) (A) (A) (A) (A) (A) (A) (A) (A) (A) (A)
                 (A) (A) (A) (A) (A) (A) (A) (A) (A) (A) (A) (A)
                 (A) (A) (A) (A) (A) (A) (A) (A) (A) (A) (A) (A)
                 (A) (A) (A) (A) (A) (A) (A) (A) (A) (A) (A) (A)
                 (A) (A) (A) (A) (A) (A) (A) (A) (A) (A) (A) (A)
                 (A) (A) (A) (A) (A) (A) (A) (A) (A) (A) (A) (A)
                 (A) (A) (A) (A) (A) (A) (A) (A) (A) (A) (A) (A)
                 (A) (A) (A) (A) (A) (A) (A) (A) (A) (A) (A) (A)
                 (A) (A) (A) (A) (A) (A) (A) (A) (A) (A) (A) (A)
                 (A) (A) (A) (A) (A) (A) (A) (A) (A) (A) (A) (A)
                 (A) (A) (A) (A) (A) (A) (A) (A) (A) (A) (A) (A)
                 (A) (A) (A) (A) (A) (A) (A) (A) (A) (A) (A) (A)
                 (A) (A) (A) (A) (A) (A) (A) (A) (A) (A) (A) (A)
                 (A) (A) (A) (A) (A) (A) (A) (A) (A) (A) (A) (A)
                 (A) (A) (A) (A) (A) (A) (A) (A) (A) (A) (A) (A)
                 (A) (A) (A) (A) (A) (A) (A) (A) (A) (A) (A) (A)
                 (A) (A) (A) (A) (A) (A) (A) (A) (A) (A) (A) (A)
                 (A) (A) (A) (A) (A) (A) (A) (A) (A) (A) (A) (A)
                 (A) (A) (A) (A) (A) (A) (A) (A) (A) (A) (A) (A)
                 (A) (A) (A) (A) (A) (A) (A) (A) (A) (A) (A) (A)
                 (A) (A) (A) (A) (A) (A) (A) (A) (A) (A) (A) (A)
                 (A) (A) (A) (A) (A) (A) (A) (A) (A) (A) (A) (A)
                 (A) (A) (A) (A) (A) (A) (A) (A) (A) (A) (A) (A)
                 (A) (A) (A) (A) (A)
 The electronic state is 2-A.
 Alpha  occ. eigenvalues --  -19.80529 -19.76235 -10.82173 -10.79279 -10.78138
 Alpha  occ. eigenvalues --  -10.75552 -10.75436 -10.74764 -10.74311 -10.73926
 Alpha  occ. eigenvalues --  -10.68582 -10.68072  -1.37825  -1.28338  -1.19103
 Alpha  occ. eigenvalues --   -1.11206  -1.05273  -1.04041  -0.94332  -0.91016
 Alpha  occ. eigenvalues --   -0.89867  -0.88401  -0.82484  -0.78511  -0.74510
 Alpha  occ. eigenvalues --   -0.73040  -0.71826  -0.71243  -0.69146  -0.68792
 Alpha  occ. eigenvalues --   -0.67534  -0.66246  -0.64205  -0.62667  -0.62089
 Alpha  occ. eigenvalues --   -0.60995  -0.59943  -0.59078  -0.57622  -0.55926
 Alpha  occ. eigenvalues --   -0.53749  -0.52764  -0.51250  -0.49548
 Alpha virt. eigenvalues --   -0.19610  -0.17709  -0.09763  -0.07627  -0.06134
 Alpha virt. eigenvalues --   -0.04517  -0.03489  -0.03264  -0.01703  -0.01361
 Alpha virt. eigenvalues --   -0.01020  -0.00357   0.00488   0.00897   0.01902
 Alpha virt. eigenvalues --    0.03739   0.04683   0.05514   0.06043   0.07308
 Alpha virt. eigenvalues --    0.07599   0.07730   0.08314   0.08824   0.09463
 Alpha virt. eigenvalues --    0.10264   0.11754   0.12205   0.12715   0.13904
 Alpha virt. eigenvalues --    0.14092   0.15467   0.17141   0.17711   0.17957
 Alpha virt. eigenvalues --    0.20346   0.20559   0.21013   0.21548   0.22753
 Alpha virt. eigenvalues --    0.23744   0.24206   0.24710   0.25705   0.26948
 Alpha virt. eigenvalues --    0.27211   0.27940   0.28438   0.28635   0.29522
 Alpha virt. eigenvalues --    0.30269   0.30930   0.31260   0.32002   0.33198
 Alpha virt. eigenvalues --    0.33421   0.34629   0.35244   0.35693   0.36490
 Alpha virt. eigenvalues --    0.37100   0.37270   0.37716   0.38288   0.38941
 Alpha virt. eigenvalues --    0.40983   0.41955   0.43321   0.45548   0.45628
 Alpha virt. eigenvalues --    0.47470   0.47805   0.48925   0.49952   0.51995
 Alpha virt. eigenvalues --    0.52579   0.52973   0.55072   0.55927   0.57313
 Alpha virt. eigenvalues --    0.57831   0.58349   0.59637   0.60348   0.63579
 Alpha virt. eigenvalues --    0.63748   0.64230   0.66362   0.66661   0.68190
 Alpha virt. eigenvalues --    0.68937   0.70427   0.72358   0.73550   0.74671
 Alpha virt. eigenvalues --    0.75407   0.76604   0.78501   0.79993   0.80122
 Alpha virt. eigenvalues --    0.82615   0.84147   0.85734   0.86930   0.88022
 Alpha virt. eigenvalues --    0.89760   0.90502   0.91232   0.93746   0.94815
 Alpha virt. eigenvalues --    0.96448   0.97334   0.98381   0.99794   1.00823
 Alpha virt. eigenvalues --    1.02050   1.05187   1.05687   1.06317   1.06913
 Alpha virt. eigenvalues --    1.09053   1.10479   1.10680   1.11691   1.14174
 Alpha virt. eigenvalues --    1.15412   1.17465   1.19210   1.20199   1.23274
 Alpha virt. eigenvalues --    1.24186   1.25363   1.26267   1.28960   1.31171
 Alpha virt. eigenvalues --    1.32780   1.33220   1.34840   1.35149   1.37610
 Alpha virt. eigenvalues --    1.38410   1.39431   1.41208   1.42773   1.44627
 Alpha virt. eigenvalues --    1.45462   1.46326   1.46936   1.48151   1.49095
 Alpha virt. eigenvalues --    1.50597   1.50896   1.52361   1.52735   1.53660
 Alpha virt. eigenvalues --    1.54328   1.54849   1.55949   1.57042   1.57841
 Alpha virt. eigenvalues --    1.59724   1.61660   1.62245   1.64137   1.68493
 Alpha virt. eigenvalues --    1.69196   1.70298   1.73729   1.76069   1.76799
 Alpha virt. eigenvalues --    1.77577   1.79412   1.81003   1.83188   1.83704
 Alpha virt. eigenvalues --    1.85692   1.87037   1.89382   1.89963   1.92246
 Alpha virt. eigenvalues --    1.92579   1.94601   1.96673   1.97742   2.00940
 Alpha virt. eigenvalues --    2.02040   2.02298   2.04156   2.04908   2.06873
 Alpha virt. eigenvalues --    2.07740   2.09997   2.10197   2.12318   2.15810
 Alpha virt. eigenvalues --    2.16718   2.17758   2.19863   2.20184   2.23336
 Alpha virt. eigenvalues --    2.24357   2.25336   2.26021   2.27445   2.28734
 Alpha virt. eigenvalues --    2.28914   2.31839   2.33486   2.35475   2.35821
 Alpha virt. eigenvalues --    2.37706   2.37999   2.39838   2.41009   2.43868
 Alpha virt. eigenvalues --    2.43915   2.44856   2.45511   2.46603   2.47309
 Alpha virt. eigenvalues --    2.47938   2.49081   2.50025   2.51003   2.52933
 Alpha virt. eigenvalues --    2.53315   2.54776   2.56963   2.57494   2.57638
 Alpha virt. eigenvalues --    2.58240   2.61025   2.62090   2.62527   2.63666
 Alpha virt. eigenvalues --    2.64114   2.65186   2.66597   2.67303   2.69667
 Alpha virt. eigenvalues --    2.71753   2.73242   2.74141   2.75044   2.77107
 Alpha virt. eigenvalues --    2.78616   2.80279   2.82665   2.84153   2.85722
 Alpha virt. eigenvalues --    2.86002   2.88492   2.90356   2.90583   2.92832
 Alpha virt. eigenvalues --    2.93956   2.94243   2.95777   2.95910   2.97824
 Alpha virt. eigenvalues --    2.98888   2.99804   3.01951   3.02460   3.03579
 Alpha virt. eigenvalues --    3.05279   3.05746   3.06305   3.07824   3.09409
 Alpha virt. eigenvalues --    3.10287   3.11089   3.11904   3.12376   3.13199
 Alpha virt. eigenvalues --    3.16765   3.17118   3.17817   3.18300   3.19334
 Alpha virt. eigenvalues --    3.21645   3.21960   3.22513   3.24206   3.25374
 Alpha virt. eigenvalues --    3.26795   3.27282   3.28065   3.28385   3.28839
 Alpha virt. eigenvalues --    3.30406   3.32990   3.33690   3.35485   3.37311
 Alpha virt. eigenvalues --    3.38697   3.39728   3.41186   3.44334   3.45809
 Alpha virt. eigenvalues --    3.46226   3.49074   3.49739   3.52302   3.55759
 Alpha virt. eigenvalues --    3.57395   3.59693   3.61059   3.64758   3.67297
 Alpha virt. eigenvalues --    3.71600   3.73464   3.75992   3.77738   3.78285
 Alpha virt. eigenvalues --    3.81384   3.85148   3.85718   3.85843   3.88472
 Alpha virt. eigenvalues --    3.92008   3.92165   3.93448   3.95964   3.97591
 Alpha virt. eigenvalues --    3.98110   3.98896   4.00862   4.02598   4.03551
 Alpha virt. eigenvalues --    4.03895   4.06891   4.09547   4.10430   4.12379
 Alpha virt. eigenvalues --    4.18034   4.18202   4.20921   4.22312   4.28504
 Alpha virt. eigenvalues --    4.31569   4.33036   4.36439   4.37353   4.39998
 Alpha virt. eigenvalues --    4.42980   4.45171   4.48756   4.52499   4.52816
 Alpha virt. eigenvalues --    4.57285   4.63786   4.66366   4.68974   4.71788
 Alpha virt. eigenvalues --    4.76869   4.83001   4.86947   4.98743   4.99523
 Alpha virt. eigenvalues --    5.04200   5.08072   5.09028   5.11517   5.14655
 Alpha virt. eigenvalues --    5.24815   5.28446   5.29255   5.39695   5.41448
 Alpha virt. eigenvalues --    5.49383   5.63549   5.75014   5.76747   6.07546
 Alpha virt. eigenvalues --    6.11114   6.23140   6.25291   6.34798   6.37912
 Alpha virt. eigenvalues --    6.55697   6.58744   6.64363   6.70605   6.78592
 Alpha virt. eigenvalues --    6.97206   7.00424   7.17426  21.99734  22.40359
 Alpha virt. eigenvalues --   22.44060  22.46612  22.53896  22.69608  22.72947
 Alpha virt. eigenvalues --   22.75039  23.13060  23.28659  43.90110  43.95894
  Beta  occ. eigenvalues --  -19.80527 -19.76215 -10.82149 -10.79082 -10.77927
  Beta  occ. eigenvalues --  -10.75496 -10.75421 -10.74770 -10.74361 -10.73942
  Beta  occ. eigenvalues --  -10.68541 -10.68072  -1.37791  -1.28299  -1.18009
  Beta  occ. eigenvalues --   -1.10286  -1.05076  -1.02882  -0.94157  -0.90585
  Beta  occ. eigenvalues --   -0.89226  -0.88100  -0.82191  -0.78071  -0.74028
  Beta  occ. eigenvalues --   -0.72600  -0.71622  -0.70759  -0.68961  -0.68613
  Beta  occ. eigenvalues --   -0.67329  -0.64126  -0.63177  -0.62454  -0.61235
  Beta  occ. eigenvalues --   -0.60276  -0.59838  -0.58742  -0.57006  -0.55735
  Beta  occ. eigenvalues --   -0.53550  -0.51029  -0.49459
  Beta virt. eigenvalues --   -0.35528  -0.16111  -0.15100  -0.09667  -0.07534
  Beta virt. eigenvalues --   -0.06005  -0.04451  -0.03340  -0.03181  -0.01630
  Beta virt. eigenvalues --   -0.00987  -0.00668  -0.00065   0.00758   0.00992
  Beta virt. eigenvalues --    0.01861   0.03731   0.04710   0.05449   0.06280
  Beta virt. eigenvalues --    0.07092   0.07694   0.07878   0.08152   0.08666
  Beta virt. eigenvalues --    0.09623   0.10427   0.11645   0.12127   0.12714
  Beta virt. eigenvalues --    0.14237   0.14267   0.15228   0.17250   0.17526
  Beta virt. eigenvalues --    0.17918   0.20480   0.20729   0.20991   0.21774
  Beta virt. eigenvalues --    0.22809   0.23960   0.24328   0.25034   0.25874
  Beta virt. eigenvalues --    0.27067   0.27286   0.27965   0.28704   0.28753
  Beta virt. eigenvalues --    0.29604   0.30457   0.30905   0.31274   0.32007
  Beta virt. eigenvalues --    0.33396   0.33633   0.34751   0.35464   0.35866
  Beta virt. eigenvalues --    0.36385   0.37176   0.37457   0.38064   0.38429
  Beta virt. eigenvalues --    0.39003   0.41086   0.42002   0.43353   0.45590
  Beta virt. eigenvalues --    0.45791   0.47777   0.47827   0.48899   0.50077
  Beta virt. eigenvalues --    0.52279   0.52811   0.53224   0.55361   0.56398
  Beta virt. eigenvalues --    0.57291   0.57789   0.58673   0.59888   0.60440
  Beta virt. eigenvalues --    0.63339   0.63785   0.64315   0.66428   0.66783
  Beta virt. eigenvalues --    0.68691   0.69036   0.70879   0.72205   0.73767
  Beta virt. eigenvalues --    0.74750   0.75615   0.76831   0.78582   0.80098
  Beta virt. eigenvalues --    0.80154   0.82753   0.84300   0.85791   0.87166
  Beta virt. eigenvalues --    0.88095   0.89955   0.90537   0.91388   0.93823
  Beta virt. eigenvalues --    0.95052   0.96703   0.97466   0.98485   1.00155
  Beta virt. eigenvalues --    1.01039   1.02237   1.05462   1.06153   1.06644
  Beta virt. eigenvalues --    1.07207   1.09636   1.10718   1.10904   1.11998
  Beta virt. eigenvalues --    1.14419   1.16043   1.17729   1.19473   1.20476
  Beta virt. eigenvalues --    1.23964   1.24597   1.25983   1.26968   1.30232
  Beta virt. eigenvalues --    1.31740   1.32995   1.33544   1.35053   1.35644
  Beta virt. eigenvalues --    1.37853   1.38521   1.39703   1.42191   1.43052
  Beta virt. eigenvalues --    1.44795   1.45748   1.46530   1.47492   1.48578
  Beta virt. eigenvalues --    1.49405   1.50803   1.51651   1.52579   1.53538
  Beta virt. eigenvalues --    1.54347   1.54730   1.55085   1.56360   1.57474
  Beta virt. eigenvalues --    1.58332   1.60096   1.61961   1.62736   1.64376
  Beta virt. eigenvalues --    1.68877   1.69449   1.71145   1.73955   1.76429
  Beta virt. eigenvalues --    1.77148   1.77866   1.79684   1.81544   1.83661
  Beta virt. eigenvalues --    1.84120   1.86093   1.87229   1.89964   1.90399
  Beta virt. eigenvalues --    1.92499   1.93137   1.95040   1.97133   1.98577
  Beta virt. eigenvalues --    2.01197   2.03014   2.03207   2.04822   2.05106
  Beta virt. eigenvalues --    2.07474   2.08182   2.10279   2.10881   2.12835
  Beta virt. eigenvalues --    2.16220   2.17088   2.18245   2.20324   2.20875
  Beta virt. eigenvalues --    2.23504   2.24611   2.25597   2.26471   2.27836
  Beta virt. eigenvalues --    2.28898   2.29203   2.32365   2.34116   2.35848
  Beta virt. eigenvalues --    2.36524   2.37928   2.38407   2.40318   2.41556
  Beta virt. eigenvalues --    2.44249   2.44909   2.45786   2.46606   2.47982
  Beta virt. eigenvalues --    2.48299   2.49543   2.49683   2.51383   2.52081
  Beta virt. eigenvalues --    2.53561   2.53921   2.55528   2.58034   2.58280
  Beta virt. eigenvalues --    2.58754   2.60109   2.62158   2.62682   2.63229
  Beta virt. eigenvalues --    2.64087   2.65416   2.66415   2.67299   2.68336
  Beta virt. eigenvalues --    2.70214   2.72158   2.73957   2.74845   2.75720
  Beta virt. eigenvalues --    2.77775   2.79528   2.80974   2.83356   2.85229
  Beta virt. eigenvalues --    2.86339   2.86461   2.89192   2.90831   2.91115
  Beta virt. eigenvalues --    2.93334   2.94378   2.94642   2.96373   2.96694
  Beta virt. eigenvalues --    2.98315   2.99522   3.00802   3.02645   3.03024
  Beta virt. eigenvalues --    3.04605   3.05864   3.06775   3.07017   3.08584
  Beta virt. eigenvalues --    3.10279   3.10847   3.11697   3.12243   3.13290
  Beta virt. eigenvalues --    3.13992   3.17335   3.17973   3.18591   3.19168
  Beta virt. eigenvalues --    3.20290   3.22247   3.22626   3.23140   3.24912
  Beta virt. eigenvalues --    3.25916   3.27389   3.27749   3.29133   3.29636
  Beta virt. eigenvalues --    3.29690   3.31444   3.33604   3.34733   3.36723
  Beta virt. eigenvalues --    3.37756   3.38932   3.40825   3.41694   3.45320
  Beta virt. eigenvalues --    3.46419   3.47398   3.50133   3.50661   3.53170
  Beta virt. eigenvalues --    3.56348   3.58112   3.60866   3.61998   3.65153
  Beta virt. eigenvalues --    3.67849   3.72547   3.74240   3.77013   3.78345
  Beta virt. eigenvalues --    3.78618   3.81984   3.85714   3.86736   3.87624
  Beta virt. eigenvalues --    3.89448   3.93358   3.94211   3.94988   3.97712
  Beta virt. eigenvalues --    3.98525   3.99777   4.00299   4.02332   4.03871
  Beta virt. eigenvalues --    4.04528   4.05050   4.08425   4.10755   4.11661
  Beta virt. eigenvalues --    4.13655   4.19451   4.19827   4.21554   4.23119
  Beta virt. eigenvalues --    4.28607   4.32466   4.34410   4.37028   4.38491
  Beta virt. eigenvalues --    4.42218   4.44706   4.46732   4.50150   4.53909
  Beta virt. eigenvalues --    4.53998   4.59640   4.66829   4.67816   4.69892
  Beta virt. eigenvalues --    4.73466   4.76959   4.85028   4.90126   5.01380
  Beta virt. eigenvalues --    5.01650   5.04323   5.08331   5.09468   5.15169
  Beta virt. eigenvalues --    5.17883   5.27038   5.29217   5.29625   5.40211
  Beta virt. eigenvalues --    5.42718   5.49440   5.63630   5.75049   5.76799
  Beta virt. eigenvalues --    6.07582   6.11112   6.23177   6.25302   6.34830
  Beta virt. eigenvalues --    6.37965   6.55718   6.58746   6.64380   6.70651
  Beta virt. eigenvalues --    6.78599   6.97242   7.00479   7.17444  22.00055
  Beta virt. eigenvalues --   22.40407  22.44071  22.47165  22.54074  22.70118
  Beta virt. eigenvalues --   22.73243  22.75330  23.14139  23.28692  43.90110
  Beta virt. eigenvalues --   43.95892
          Condensed to atoms (all electrons):
               1          2          3          4          5          6
     1  C    5.164042   0.253294  -0.074723  -0.085558   0.003121  -0.002355
     2  C    0.253294   6.034414   0.294987   0.108961  -0.120601  -0.115315
     3  C   -0.074723   0.294987   5.293061  -0.085871  -0.005260  -0.016345
     4  C   -0.085558   0.108961  -0.085871   4.752074   0.632618   0.396377
     5  O    0.003121  -0.120601  -0.005260   0.632618   7.779754  -0.084625
     6  O   -0.002355  -0.115315  -0.016345   0.396377  -0.084625   7.890096
     7  C   -0.035952  -0.214596  -0.124809   0.031668   0.054890   0.020637
     8  C   -0.009408  -0.051531  -0.005903   0.018168   0.002998  -0.000320
     9  C   -0.000273   0.005263   0.000009   0.001007   0.000172  -0.000001
    10  C   -0.000805   0.000467   0.000456  -0.001445  -0.000156   0.000002
    11  C    0.004036  -0.001610  -0.000694   0.004285  -0.000443  -0.000090
    12  C   -0.013094   0.033982   0.018074  -0.059959   0.006527  -0.001809
    13  H    0.406915   0.007574   0.009447  -0.017930   0.000221   0.000617
    14  H    0.405356  -0.014682  -0.007512  -0.015252   0.000118   0.001031
    15  H    0.405674  -0.038214  -0.015691   0.016775  -0.000324   0.000435
    16  H   -0.019822  -0.015398   0.417263   0.013630  -0.000332   0.000059
    17  H    0.012004  -0.044114   0.425616  -0.017422   0.002699   0.000022
    18  H   -0.010389  -0.029340   0.402390  -0.007722   0.000008   0.004639
    19  H   -0.001374   0.013808   0.000650  -0.020977   0.004531   0.300900
    20  H   -0.000452  -0.008361  -0.003230   0.000379   0.000037  -0.000016
    21  H    0.000004  -0.000242   0.000077   0.000024   0.000003  -0.000000
    22  H   -0.000003  -0.000020  -0.000004  -0.000002   0.000001   0.000000
    23  H    0.000012  -0.000351  -0.000009   0.000139   0.000030   0.000000
    24  H   -0.005334   0.023565   0.000168  -0.006970  -0.000447  -0.000054
               7          8          9         10         11         12
     1  C   -0.035952  -0.009408  -0.000273  -0.000805   0.004036  -0.013094
     2  C   -0.214596  -0.051531   0.005263   0.000467  -0.001610   0.033982
     3  C   -0.124809  -0.005903   0.000009   0.000456  -0.000694   0.018074
     4  C    0.031668   0.018168   0.001007  -0.001445   0.004285  -0.059959
     5  O    0.054890   0.002998   0.000172  -0.000156  -0.000443   0.006527
     6  O    0.020637  -0.000320  -0.000001   0.000002  -0.000090  -0.001809
     7  C    5.555201   0.364556  -0.044584  -0.034937  -0.043676   0.348540
     8  C    0.364556   5.015460   0.550353  -0.030384  -0.035681  -0.084965
     9  C   -0.044584   0.550353   4.856288   0.429866  -0.044157  -0.029477
    10  C   -0.034937  -0.030384   0.429866   4.864969   0.441012  -0.022471
    11  C   -0.043676  -0.035681  -0.044157   0.441012   4.891223   0.532740
    12  C    0.348540  -0.084965  -0.029477  -0.022471   0.532740   5.010038
    13  H   -0.041865   0.001458  -0.000029   0.000128   0.000888   0.009693
    14  H    0.012813  -0.000571   0.000012   0.000008  -0.000041   0.000780
    15  H    0.003335   0.002969   0.000146  -0.000241   0.000299  -0.011009
    16  H   -0.032237   0.005569   0.000899   0.000002  -0.000073  -0.001425
    17  H    0.008944  -0.010326  -0.000513  -0.000045  -0.000051   0.000340
    18  H    0.021232  -0.000555  -0.000002  -0.000005   0.000029  -0.000348
    19  H   -0.002035   0.000058  -0.000002   0.000001  -0.000009  -0.000140
    20  H   -0.017171   0.394050  -0.009029   0.001657  -0.000117   0.001749
    21  H    0.005191  -0.015730   0.400497  -0.027522   0.002629  -0.000148
    22  H   -0.000132   0.003121  -0.027583   0.407701  -0.025479   0.003391
    23  H    0.005632  -0.000111   0.002690  -0.027728   0.403695  -0.018207
    24  H   -0.049891   0.004317  -0.001159   0.003505  -0.010451   0.400418
              13         14         15         16         17         18
     1  C    0.406915   0.405356   0.405674  -0.019822   0.012004  -0.010389
     2  C    0.007574  -0.014682  -0.038214  -0.015398  -0.044114  -0.029340
     3  C    0.009447  -0.007512  -0.015691   0.417263   0.425616   0.402390
     4  C   -0.017930  -0.015252   0.016775   0.013630  -0.017422  -0.007722
     5  O    0.000221   0.000118  -0.000324  -0.000332   0.002699   0.000008
     6  O    0.000617   0.001031   0.000435   0.000059   0.000022   0.004639
     7  C   -0.041865   0.012813   0.003335  -0.032237   0.008944   0.021232
     8  C    0.001458  -0.000571   0.002969   0.005569  -0.010326  -0.000555
     9  C   -0.000029   0.000012   0.000146   0.000899  -0.000513  -0.000002
    10  C    0.000128   0.000008  -0.000241   0.000002  -0.000045  -0.000005
    11  C    0.000888  -0.000041   0.000299  -0.000073  -0.000051   0.000029
    12  C    0.009693   0.000780  -0.011009  -0.001425   0.000340  -0.000348
    13  H    0.487252  -0.014674  -0.022563   0.000092  -0.000242  -0.000088
    14  H   -0.014674   0.436860  -0.016069  -0.000010  -0.000073   0.001771
    15  H   -0.022563  -0.016069   0.492223   0.003126  -0.000189   0.000113
    16  H    0.000092  -0.000010   0.003126   0.489314  -0.030495  -0.012829
    17  H   -0.000242  -0.000073  -0.000189  -0.030495   0.462551  -0.009959
    18  H   -0.000088   0.001771   0.000113  -0.012829  -0.009959   0.431206
    19  H   -0.000185  -0.000026   0.000071   0.000078  -0.000167  -0.000470
    20  H   -0.000022  -0.000026   0.000339  -0.002318  -0.004425   0.000528
    21  H   -0.000002  -0.000000   0.000006  -0.000011   0.000015   0.000000
    22  H   -0.000000   0.000000  -0.000002  -0.000000   0.000000   0.000000
    23  H   -0.000018  -0.000001   0.000012  -0.000001  -0.000000   0.000000
    24  H   -0.000545   0.000072   0.000062  -0.000003   0.000003  -0.000011
              19         20         21         22         23         24
     1  C   -0.001374  -0.000452   0.000004  -0.000003   0.000012  -0.005334
     2  C    0.013808  -0.008361  -0.000242  -0.000020  -0.000351   0.023565
     3  C    0.000650  -0.003230   0.000077  -0.000004  -0.000009   0.000168
     4  C   -0.020977   0.000379   0.000024  -0.000002   0.000139  -0.006970
     5  O    0.004531   0.000037   0.000003   0.000001   0.000030  -0.000447
     6  O    0.300900  -0.000016  -0.000000   0.000000   0.000000  -0.000054
     7  C   -0.002035  -0.017171   0.005191  -0.000132   0.005632  -0.049891
     8  C    0.000058   0.394050  -0.015730   0.003121  -0.000111   0.004317
     9  C   -0.000002  -0.009029   0.400497  -0.027583   0.002690  -0.001159
    10  C    0.000001   0.001657  -0.027522   0.407701  -0.027728   0.003505
    11  C   -0.000009  -0.000117   0.002629  -0.025479   0.403695  -0.010451
    12  C   -0.000140   0.001749  -0.000148   0.003391  -0.018207   0.400418
    13  H   -0.000185  -0.000022  -0.000002  -0.000000  -0.000018  -0.000545
    14  H   -0.000026  -0.000026  -0.000000   0.000000  -0.000001   0.000072
    15  H    0.000071   0.000339   0.000006  -0.000002   0.000012   0.000062
    16  H    0.000078  -0.002318  -0.000011  -0.000000  -0.000001  -0.000003
    17  H   -0.000167  -0.004425   0.000015   0.000000  -0.000000   0.000003
    18  H   -0.000470   0.000528   0.000000   0.000000   0.000000  -0.000011
    19  H    0.341717   0.000003   0.000000  -0.000000  -0.000000   0.000033
    20  H    0.000003   0.425790  -0.002018  -0.000099   0.000030  -0.000061
    21  H    0.000000  -0.002018   0.430762  -0.001952  -0.000092   0.000020
    22  H   -0.000000  -0.000099  -0.001952   0.423262  -0.002038  -0.000082
    23  H   -0.000000   0.000030  -0.000092  -0.002038   0.432129  -0.002507
    24  H    0.000033  -0.000061   0.000020  -0.000082  -0.002507   0.420358
          Atomic-Atomic Spin Densities.
               1          2          3          4          5          6
     1  C    0.037392   0.020310  -0.000680  -0.010636   0.000263   0.000317
     2  C    0.020310  -0.043686   0.005622  -0.001480   0.004503   0.001927
     3  C   -0.000680   0.005622   0.002311  -0.000652  -0.000610  -0.000212
     4  C   -0.010636  -0.001480  -0.000652   0.033432  -0.002836  -0.001171
     5  O    0.000263   0.004503  -0.000610  -0.002836   0.009933   0.000439
     6  O    0.000317   0.001927  -0.000212  -0.001171   0.000439  -0.000407
     7  C   -0.019542  -0.004440  -0.004159  -0.008669  -0.005705  -0.000445
     8  C   -0.000425   0.005004  -0.000683  -0.001903   0.000494   0.000031
     9  C   -0.000136   0.000691   0.000251   0.000043  -0.000001  -0.000001
    10  C    0.000279  -0.000549  -0.000043   0.000143   0.000044   0.000001
    11  C    0.000157   0.001340   0.000093  -0.000008   0.000104  -0.000006
    12  C   -0.000080  -0.003357  -0.000257  -0.000406  -0.000201   0.000039
    13  H   -0.000277   0.000478  -0.000023  -0.000207  -0.000006   0.000022
    14  H    0.000811  -0.001974  -0.000235   0.001112  -0.000024  -0.000488
    15  H   -0.001294   0.003633  -0.000104  -0.000200   0.000002   0.000008
    16  H   -0.001111  -0.000293  -0.000284   0.000515  -0.000007  -0.000006
    17  H    0.000356   0.002069  -0.000769  -0.001208   0.000061   0.000006
    18  H    0.000091   0.000395  -0.000654   0.000029  -0.000001  -0.000007
    19  H   -0.000117  -0.000370   0.000044   0.000219  -0.000177   0.000236
    20  H    0.000036   0.000496  -0.000179   0.000038   0.000024   0.000001
    21  H   -0.000001   0.000017   0.000005  -0.000001  -0.000000  -0.000000
    22  H    0.000000  -0.000000  -0.000000   0.000000  -0.000000   0.000000
    23  H   -0.000002   0.000036   0.000000  -0.000003   0.000000  -0.000000
    24  H    0.000220  -0.001027  -0.000034   0.000069   0.000032   0.000024
               7          8          9         10         11         12
     1  C   -0.019542  -0.000425  -0.000136   0.000279   0.000157  -0.000080
     2  C   -0.004440   0.005004   0.000691  -0.000549   0.001340  -0.003357
     3  C   -0.004159  -0.000683   0.000251  -0.000043   0.000093  -0.000257
     4  C   -0.008669  -0.001903   0.000043   0.000143  -0.000008  -0.000406
     5  O   -0.005705   0.000494  -0.000001   0.000044   0.000104  -0.000201
     6  O   -0.000445   0.000031  -0.000001   0.000001  -0.000006   0.000039
     7  C    0.423032   0.055343  -0.008740  -0.015924  -0.008024   0.063983
     8  C    0.055343  -0.044702  -0.028740  -0.008651   0.001097   0.013373
     9  C   -0.008740  -0.028740   0.027175   0.059891  -0.003701  -0.003254
    10  C   -0.015924  -0.008651   0.059891   0.404468   0.035326  -0.008301
    11  C   -0.008024   0.001097  -0.003701   0.035326  -0.090049  -0.019073
    12  C    0.063983   0.013373  -0.003254  -0.008301  -0.019073   0.067268
    13  H    0.000421   0.000051   0.000009  -0.000010   0.000041  -0.000876
    14  H    0.001509   0.000008   0.000001  -0.000004  -0.000002   0.000054
    15  H   -0.002558   0.000134  -0.000031   0.000035  -0.000067   0.000226
    16  H    0.001216  -0.000093   0.000015  -0.000011   0.000002   0.000008
    17  H   -0.000386   0.000293  -0.000037   0.000000  -0.000012   0.000116
    18  H    0.000009  -0.000003  -0.000001  -0.000000   0.000000  -0.000012
    19  H   -0.000008  -0.000007   0.000000   0.000000   0.000001  -0.000018
    20  H    0.000656  -0.002274  -0.000037   0.000207  -0.000108   0.000172
    21  H    0.000127  -0.001138   0.001016  -0.000213  -0.000047  -0.000010
    22  H    0.000293  -0.000344   0.003927  -0.007403   0.003634  -0.000516
    23  H    0.000140  -0.000056   0.000023  -0.001079   0.001124  -0.001106
    24  H    0.001346   0.000293  -0.000132   0.000250   0.000844  -0.002572
              13         14         15         16         17         18
     1  C   -0.000277   0.000811  -0.001294  -0.001111   0.000356   0.000091
     2  C    0.000478  -0.001974   0.003633  -0.000293   0.002069   0.000395
     3  C   -0.000023  -0.000235  -0.000104  -0.000284  -0.000769  -0.000654
     4  C   -0.000207   0.001112  -0.000200   0.000515  -0.001208   0.000029
     5  O   -0.000006  -0.000024   0.000002  -0.000007   0.000061  -0.000001
     6  O    0.000022  -0.000488   0.000008  -0.000006   0.000006  -0.000007
     7  C    0.000421   0.001509  -0.002558   0.001216  -0.000386   0.000009
     8  C    0.000051   0.000008   0.000134  -0.000093   0.000293  -0.000003
     9  C    0.000009   0.000001  -0.000031   0.000015  -0.000037  -0.000001
    10  C   -0.000010  -0.000004   0.000035  -0.000011   0.000000  -0.000000
    11  C    0.000041  -0.000002  -0.000067   0.000002  -0.000012   0.000000
    12  C   -0.000876   0.000054   0.000226   0.000008   0.000116  -0.000012
    13  H   -0.001096  -0.000161   0.000103   0.000002   0.000002   0.000002
    14  H   -0.000161   0.008304  -0.000121   0.000144  -0.000033  -0.000112
    15  H    0.000103  -0.000121  -0.001866  -0.000044   0.000004   0.000006
    16  H    0.000002   0.000144  -0.000044  -0.000440  -0.000154   0.000101
    17  H    0.000002  -0.000033   0.000004  -0.000154  -0.000963   0.000162
    18  H    0.000002  -0.000112   0.000006   0.000101   0.000162  -0.000585
    19  H   -0.000003   0.000063  -0.000001   0.000003  -0.000012   0.000004
    20  H   -0.000000  -0.000003   0.000026  -0.000035   0.000021  -0.000001
    21  H    0.000000   0.000000  -0.000000   0.000000  -0.000001  -0.000000
    22  H    0.000000  -0.000000   0.000000   0.000000   0.000000   0.000000
    23  H    0.000002   0.000000  -0.000001   0.000000  -0.000000   0.000000
    24  H   -0.000034  -0.000007   0.000018   0.000000   0.000001  -0.000000
              19         20         21         22         23         24
     1  C   -0.000117   0.000036  -0.000001   0.000000  -0.000002   0.000220
     2  C   -0.000370   0.000496   0.000017  -0.000000   0.000036  -0.001027
     3  C    0.000044  -0.000179   0.000005  -0.000000   0.000000  -0.000034
     4  C    0.000219   0.000038  -0.000001   0.000000  -0.000003   0.000069
     5  O   -0.000177   0.000024  -0.000000  -0.000000   0.000000   0.000032
     6  O    0.000236   0.000001  -0.000000   0.000000  -0.000000   0.000024
     7  C   -0.000008   0.000656   0.000127   0.000293   0.000140   0.001346
     8  C   -0.000007  -0.002274  -0.001138  -0.000344  -0.000056   0.000293
     9  C    0.000000  -0.000037   0.001016   0.003927   0.000023  -0.000132
    10  C    0.000000   0.000207  -0.000213  -0.007403  -0.001079   0.000250
    11  C    0.000001  -0.000108  -0.000047   0.003634   0.001124   0.000844
    12  C   -0.000018   0.000172  -0.000010  -0.000516  -0.001106  -0.002572
    13  H   -0.000003  -0.000000   0.000000   0.000000   0.000002  -0.000034
    14  H    0.000063  -0.000003   0.000000  -0.000000   0.000000  -0.000007
    15  H   -0.000001   0.000026  -0.000000   0.000000  -0.000001   0.000018
    16  H    0.000003  -0.000035   0.000000   0.000000   0.000000   0.000000
    17  H   -0.000012   0.000021  -0.000001   0.000000  -0.000000   0.000001
    18  H    0.000004  -0.000001  -0.000000   0.000000   0.000000  -0.000000
    19  H    0.000676  -0.000000   0.000000  -0.000000   0.000000  -0.000002
    20  H   -0.000000  -0.003472   0.000128  -0.000007  -0.000000  -0.000000
    21  H    0.000000   0.000128  -0.001276  -0.000145  -0.000001  -0.000000
    22  H   -0.000000  -0.000007  -0.000145  -0.007600  -0.000015  -0.000006
    23  H    0.000000  -0.000000  -0.000001  -0.000015   0.000634   0.000127
    24  H   -0.000002  -0.000000  -0.000000  -0.000006   0.000127  -0.007400
 Mulliken charges and spin densities:
               1          2
     1  C   -0.394917   0.025933
     2  C   -0.121939  -0.010657
     3  C   -0.522147  -0.001251
     4  C    0.343005   0.006221
     5  O   -0.275538   0.006330
     6  O   -0.393885   0.000305
     7  C    0.209246   0.469475
     8  C   -0.117593  -0.012896
     9  C   -0.090391   0.048230
    10  C   -0.004034   0.458456
    11  C   -0.118263  -0.077332
    12  C   -0.123220   0.105201
    13  H    0.173880  -0.001560
    14  H    0.210114   0.008841
    15  H    0.178716  -0.002091
    16  H    0.184921  -0.000473
    17  H    0.205827  -0.000484
    18  H    0.209801  -0.000577
    19  H    0.363536   0.000531
    20  H    0.222783  -0.004312
    21  H    0.208489  -0.001541
    22  H    0.219919  -0.008182
    23  H    0.206695  -0.000177
    24  H    0.224995  -0.007991
 Sum of Mulliken charges =   1.00000   1.00000
 Mulliken charges and spin densities with hydrogens summed into heavy atoms:
               1          2
     1  C    0.167793   0.031124
     2  C   -0.121939  -0.010657
     3  C    0.078402  -0.002785
     4  C    0.343005   0.006221
     5  O   -0.275538   0.006330
     6  O   -0.030349   0.000837
     7  C    0.209246   0.469475
     8  C    0.105190  -0.017208
     9  C    0.118098   0.046689
    10  C    0.215885   0.450274
    11  C    0.088433  -0.077509
    12  C    0.101775   0.097210
 Electronic spatial extent (au):  <R**2>=           2016.7040
 Charge=              1.0000 electrons
 Dipole moment (field-independent basis, Debye):
    X=             -5.3664    Y=              1.0893    Z=              1.4012  Tot=              5.6523
 Quadrupole moment (field-independent basis, Debye-Ang):
   XX=            -28.5432   YY=            -57.5484   ZZ=            -68.1070
   XY=              0.5072   XZ=              1.1685   YZ=             -5.7676
 Traceless Quadrupole moment (field-independent basis, Debye-Ang):
   XX=             22.8563   YY=             -6.1489   ZZ=            -16.7075
   XY=              0.5072   XZ=              1.1685   YZ=             -5.7676
 Octapole moment (field-independent basis, Debye-Ang**2):
  XXX=            -53.4727  YYY=             -4.6454  ZZZ=              2.8580  XYY=             -1.7392
  XXY=            -22.4151  XXZ=            -16.6945  XZZ=              7.7346  YZZ=              3.8119
  YYZ=              3.0315  XYZ=              9.9230
 Hexadecapole moment (field-independent basis, Debye-Ang**3):
 XXXX=          -1148.1359 YYYY=           -504.4157 ZZZZ=           -333.3142 XXXY=            -56.5594
 XXXZ=            -19.4917 YYYX=            -11.2867 YYYZ=            -20.9919 ZZZX=              5.8734
 ZZZY=             -2.2872 XXYY=           -289.1747 XXZZ=           -332.3182 YYZZ=           -143.6585
 XXYZ=             -5.6342 YYXZ=             -2.7766 ZZXY=             -0.3341
 N-N= 7.005680087193D+02 E-N=-2.640831120048D+03  KE= 5.360375569607D+02
                          Isotropic Fermi Contact Couplings
        Atom                 a.u.       MegaHertz       Gauss      10(-4) cm-1
     1  C(13)              0.02205      24.78771       8.84487       8.26829
     2  C(13)             -0.01145     -12.87064      -4.59256      -4.29318
     3  C(13)              0.00012       0.13123       0.04683       0.04377
     4  C(13)              0.01573      17.68610       6.31084       5.89945
     5  O(17)              0.00486      -2.94658      -1.05141      -0.98287
     6  O(17)              0.00222      -1.34613      -0.48033      -0.44902
     7  C(13)              0.05941      66.78485      23.83050      22.27703
     8  C(13)             -0.01218     -13.69687      -4.88738      -4.56878
     9  C(13)             -0.00704      -7.91057      -2.82269      -2.63868
    10  C(13)              0.06070      68.23279      24.34716      22.76001
    11  C(13)             -0.02124     -23.87625      -8.51964      -7.96426
    12  C(13)              0.00247       2.77662       0.99077       0.92618
    13  H(1)              -0.00033      -1.47864      -0.52761      -0.49322
    14  H(1)               0.00487      21.74645       7.75967       7.25384
    15  H(1)              -0.00036      -1.60076      -0.57119      -0.53395
    16  H(1)              -0.00016      -0.73007      -0.26051      -0.24352
    17  H(1)              -0.00018      -0.79666      -0.28427      -0.26574
    18  H(1)              -0.00029      -1.28482      -0.45845      -0.42857
    19  H(1)               0.00038       1.67656       0.59824       0.55924
    20  H(1)              -0.00126      -5.63592      -2.01104      -1.87994
    21  H(1)              -0.00171      -7.64499      -2.72792      -2.55009
    22  H(1)              -0.00749     -33.49762     -11.95279     -11.17360
    23  H(1)              -0.00003      -0.15549      -0.05548      -0.05186
    24  H(1)              -0.00298     -13.31739      -4.75198      -4.44220
 --------------------------------------------------------
       Center         ----  Spin Dipole Couplings  ----
                      3XX-RR        3YY-RR        3ZZ-RR
 --------------------------------------------------------
     1   Atom        0.005833     -0.023775      0.017942
     2   Atom       -0.009982     -0.010344      0.020326
     3   Atom        0.002616      0.001097     -0.003713
     4   Atom        0.006521      0.000326     -0.006847
     5   Atom        0.030661     -0.011736     -0.018925
     6   Atom        0.001768      0.001322     -0.003090
     7   Atom       -0.228171     -0.131916      0.360087
     8   Atom       -0.019800     -0.004389      0.024188
     9   Atom       -0.041318     -0.014523      0.055840
    10   Atom       -0.226659     -0.136355      0.363013
    11   Atom        0.017452      0.013335     -0.030788
    12   Atom       -0.079143     -0.033825      0.112968
    13   Atom        0.000067     -0.002441      0.002374
    14   Atom        0.006067     -0.003640     -0.002427
    15   Atom       -0.000683     -0.001289      0.001972
    16   Atom        0.000069      0.002880     -0.002949
    17   Atom        0.001040     -0.000054     -0.000986
    18   Atom        0.001954     -0.000454     -0.001500
    19   Atom        0.002045     -0.000905     -0.001141
    20   Atom       -0.007036      0.010131     -0.003095
    21   Atom       -0.007137      0.009570     -0.002432
    22   Atom        0.034946     -0.024363     -0.010584
    23   Atom       -0.002477      0.005782     -0.003305
    24   Atom       -0.008417      0.010749     -0.002332
 --------------------------------------------------------
                        XY            XZ            YZ
 --------------------------------------------------------
     1   Atom        0.006612      0.036319      0.008155
     2   Atom        0.002170      0.000193      0.006591
     3   Atom        0.005562     -0.001293     -0.001606
     4   Atom       -0.012951     -0.009115      0.011130
     5   Atom        0.019738     -0.013670      0.000333
     6   Atom       -0.002933     -0.003115      0.005643
     7   Atom       -0.026645     -0.068457      0.249942
     8   Atom       -0.009697     -0.007154      0.016511
     9   Atom       -0.005589     -0.016173      0.037303
    10   Atom       -0.029670     -0.078129      0.252910
    11   Atom       -0.001211      0.008075     -0.022642
    12   Atom       -0.010672     -0.025870      0.076677
    13   Atom       -0.000364      0.005237     -0.004190
    14   Atom        0.002333      0.001525      0.000448
    15   Atom        0.001170      0.003266      0.006457
    16   Atom        0.004314     -0.000272     -0.000770
    17   Atom        0.003645     -0.003004     -0.002762
    18   Atom        0.002377     -0.000800     -0.000569
    19   Atom       -0.001158     -0.000473      0.000376
    20   Atom       -0.001532      0.000574     -0.006781
    21   Atom       -0.007064      0.002877     -0.007725
    22   Atom        0.014229     -0.000696      0.009238
    23   Atom       -0.002713      0.001547     -0.005056
    24   Atom       -0.010874      0.004532     -0.008719
 --------------------------------------------------------


 ---------------------------------------------------------------------------------
              Anisotropic Spin Dipole Couplings in Principal Axis System
 ---------------------------------------------------------------------------------

       Atom             a.u.   MegaHertz   Gauss  10(-4) cm-1        Axes

              Baa    -0.0254    -3.405    -1.215    -1.136  0.2619  0.8845 -0.3861
     1 C(13)  Bbb    -0.0248    -3.331    -1.188    -1.111  0.7227 -0.4448 -0.5290
              Bcc     0.0502     6.736     2.404     2.247  0.6396  0.1405  0.7557
 
              Baa    -0.0131    -1.758    -0.627    -0.586 -0.5573  0.8152 -0.1575
     2 C(13)  Bbb    -0.0086    -1.153    -0.411    -0.385  0.8301  0.5425 -0.1292
              Bcc     0.0217     2.911     1.039     0.971  0.0199  0.2027  0.9790
 
              Baa    -0.0043    -0.577    -0.206    -0.193 -0.2515  0.5048  0.8258
     3 C(13)  Bbb    -0.0035    -0.473    -0.169    -0.158  0.6256 -0.5662  0.5367
              Bcc     0.0078     1.050     0.375     0.350  0.7384  0.6516 -0.1734
 
              Baa    -0.0150    -2.008    -0.716    -0.670 -0.0239 -0.6016  0.7984
     4 C(13)  Bbb    -0.0084    -1.125    -0.401    -0.375  0.7277  0.5372  0.4265
              Bcc     0.0233     3.132     1.118     1.045  0.6855 -0.5912 -0.4249
 
              Baa    -0.0258     1.870     0.667     0.624  0.3708 -0.5365  0.7581
     5 O(17)  Bbb    -0.0152     1.103     0.394     0.368 -0.1477  0.7718  0.6185
              Bcc     0.0411    -2.973    -1.061    -0.992  0.9169  0.3413 -0.2069
 
              Baa    -0.0071     0.511     0.182     0.170  0.1231 -0.5244  0.8425
     6 O(17)  Bbb    -0.0009     0.068     0.024     0.023  0.8193  0.5327  0.2119
              Bcc     0.0080    -0.579    -0.207    -0.193 -0.5599  0.6643  0.4952
 
              Baa    -0.2381   -31.956   -11.403   -10.659 -0.6307  0.6877 -0.3595
     7 C(13)  Bbb    -0.2343   -31.446   -11.221   -10.489  0.7690  0.6161 -0.1705
              Bcc     0.4725    63.402    22.623    21.149 -0.1042  0.3840  0.9174
 
              Baa    -0.0245    -3.287    -1.173    -1.096  0.8938  0.4480 -0.0206
     8 C(13)  Bbb    -0.0093    -1.253    -0.447    -0.418 -0.4037  0.7837 -0.4721
              Bcc     0.0338     4.540     1.620     1.514 -0.1953  0.4302  0.8813
 
              Baa    -0.0440    -5.898    -2.105    -1.967  0.9849 -0.0290  0.1705
     9 C(13)  Bbb    -0.0305    -4.093    -1.460    -1.365  0.0929  0.9202 -0.3802
              Bcc     0.0745     9.991     3.565     3.332 -0.1458  0.3903  0.9091
 
              Baa    -0.2432   -32.634   -11.645   -10.886 -0.3783  0.8360 -0.3975
    10 C(13)  Bbb    -0.2354   -31.592   -11.273   -10.538  0.9182  0.3934 -0.0464
              Bcc     0.4786    64.226    22.917    21.423 -0.1176  0.3826  0.9164
 
              Baa    -0.0412    -5.525    -1.971    -1.843 -0.1186  0.3787  0.9179
    11 C(13)  Bbb     0.0158     2.117     0.755     0.706  0.8534  0.5115 -0.1007
              Bcc     0.0254     3.408     1.216     1.137 -0.5076  0.7714 -0.3838
 
              Baa    -0.0826   -11.081    -3.954    -3.696  0.9923  0.0280  0.1203
    12 C(13)  Bbb    -0.0666    -8.932    -3.187    -2.979  0.0213  0.9205 -0.3901
              Bcc     0.1491    20.014     7.141     6.676 -0.1217  0.3897  0.9129
 
              Baa    -0.0061    -3.277    -1.169    -1.093 -0.4734  0.6394  0.6058
    13 H(1)   Bbb    -0.0017    -0.899    -0.321    -0.300  0.6976  0.6921 -0.1854
              Bcc     0.0078     4.176     1.490     1.393  0.5378 -0.3348  0.7737
 
              Baa    -0.0042    -2.229    -0.796    -0.744 -0.2124  0.9750 -0.0647
    14 H(1)   Bbb    -0.0027    -1.436    -0.512    -0.479 -0.1783  0.0264  0.9836
              Bcc     0.0069     3.665     1.308     1.223  0.9608  0.2205  0.1683
 
              Baa    -0.0066    -3.495    -1.247    -1.166  0.2090  0.7392 -0.6402
    15 H(1)   Bbb    -0.0017    -0.897    -0.320    -0.299  0.9134 -0.3815 -0.1423
              Bcc     0.0082     4.392     1.567     1.465  0.3494  0.5550  0.7549
 
              Baa    -0.0033    -1.746    -0.623    -0.582 -0.5668  0.4811  0.6688
    16 H(1)   Bbb    -0.0028    -1.498    -0.534    -0.500  0.5817 -0.3413  0.7384
              Bcc     0.0061     3.244     1.157     1.082  0.5835  0.8075 -0.0864
 
              Baa    -0.0033    -1.777    -0.634    -0.593 -0.1474  0.7283  0.6692
    17 H(1)   Bbb    -0.0031    -1.651    -0.589    -0.551  0.7372 -0.3702  0.5653
              Bcc     0.0064     3.428     1.223     1.143  0.6594  0.5767 -0.4823
 
              Baa    -0.0019    -1.031    -0.368    -0.344 -0.4672  0.8479  0.2505
    18 H(1)   Bbb    -0.0017    -0.892    -0.318    -0.297  0.2892 -0.1212  0.9496
              Bcc     0.0036     1.922     0.686     0.641  0.8355  0.5161 -0.1885
 
              Baa    -0.0015    -0.784    -0.280    -0.262  0.1652  0.7586 -0.6302
    19 H(1)   Bbb    -0.0011    -0.568    -0.203    -0.190  0.3249  0.5615  0.7611
              Bcc     0.0025     1.352     0.483     0.451  0.9312 -0.3305 -0.1537
 
              Baa    -0.0072    -3.827    -1.365    -1.276  0.9953  0.0953  0.0183
    20 H(1)   Bbb    -0.0060    -3.175    -1.133    -1.059 -0.0537  0.3836  0.9219
              Bcc     0.0131     7.002     2.498     2.335 -0.0809  0.9185 -0.3870
 
              Baa    -0.0097    -5.188    -1.851    -1.731  0.9404  0.3399 -0.0109
    21 H(1)   Bbb    -0.0061    -3.278    -1.170    -1.094 -0.1302  0.3896  0.9117
              Bcc     0.0159     8.467     3.021     2.824 -0.3142  0.8559 -0.4107
 
              Baa    -0.0316   -16.860    -6.016    -5.624 -0.1956  0.8954 -0.4001
    22 H(1)   Bbb    -0.0066    -3.534    -1.261    -1.179 -0.1161  0.3839  0.9160
              Bcc     0.0382    20.394     7.277     6.803  0.9738  0.2256  0.0288
 
              Baa    -0.0056    -2.987    -1.066    -0.996 -0.1265  0.3774  0.9174
    23 H(1)   Bbb    -0.0033    -1.754    -0.626    -0.585  0.9562  0.2925  0.0115
              Bcc     0.0089     4.741     1.692     1.582 -0.2639  0.8787 -0.3979
 
              Baa    -0.0134    -7.132    -2.545    -2.379  0.9186  0.3889 -0.0700
    24 H(1)   Bbb    -0.0066    -3.527    -1.259    -1.176 -0.0984  0.3967  0.9126
              Bcc     0.0200    10.659     3.803     3.555 -0.3827  0.8315 -0.4027
 

 ---------------------------------------------------------------------------------

   1 Symmetry operations used in ECPInt.
 ECPInt:  NShTT=   16290 NPrTT=   49128 LenC2=   15614 LenP2D=   36284.
 LDataN:  DoStor=T MaxTD1= 7 Len=  274
 Calling FoFJK, ICntrl=      2127 FMM=F ISym2X=0 I1Cent= 0 IOpClX= 1 NMat=1 NMatS=1 NMatT=0.
 ***** Axes restored to original set *****
 -------------------------------------------------------------------
 Center     Atomic                   Forces (Hartrees/Bohr)
 Number     Number              X              Y              Z
 -------------------------------------------------------------------
      1        6          -0.010068893   -0.002169126    0.007582942
      2        6           0.001521946    0.003667569   -0.009057237
      3        6          -0.003284050    0.002129093   -0.001253493
      4        6           0.017756943   -0.009250384    0.001476047
      5        8          -0.010876783    0.003156110    0.001532481
      6        8          -0.014664219    0.004946091   -0.000417364
      7        6           0.037503364    0.012203388    0.000375391
      8        6          -0.040056188    0.021009502   -0.012866154
      9        6           0.033144659    0.037852520   -0.011977970
     10        6          -0.014346044   -0.015858053    0.004604207
     11        6           0.028285138   -0.016861032    0.010495872
     12        6          -0.030259991   -0.040412956    0.011022756
     13        1           0.001369672   -0.000096744    0.001144352
     14        1          -0.000691174   -0.000282841   -0.003460297
     15        1           0.001226524    0.000787025    0.001377684
     16        1           0.001083451    0.000787612    0.000324012
     17        1           0.001233853    0.000104398   -0.000499464
     18        1          -0.001234816   -0.000838151    0.000095733
     19        1           0.002694169   -0.001197767   -0.000720989
     20        1          -0.000027435   -0.000816789    0.000409002
     21        1           0.000436987   -0.000144849   -0.000067916
     22        1          -0.000584416   -0.000115425    0.000157044
     23        1           0.000338047    0.000708268   -0.000214660
     24        1          -0.000500744    0.000692543   -0.000061979
 -------------------------------------------------------------------
 Cartesian Forces:  Max     0.040412956 RMS     0.012842289

 GradGradGradGradGradGradGradGradGradGradGradGradGradGradGradGradGradGrad
 Berny optimization.
 FormGI is forming the generalized inverse of G from B-inverse, IUseBI=4.
 Internal  Forces:  Max     0.039603697 RMS     0.007402154
 Search for a local minimum.
 Step number   1 out of a maximum of  130
 All quantities printed in internal units (Hartrees-Bohrs-Radians)
 Mixed Optimization -- RFO/linear search
 Second derivative matrix not updated -- first step.
 ITU=  0
     Eigenvalues ---    0.00267   0.00286   0.00414   0.00470   0.00868
     Eigenvalues ---    0.01493   0.02190   0.02219   0.02230   0.02237
[...]
 8,-0.21838332,-0.09558187,-0.00421439,-0.00083179,0.00490234,0.0002496
 2,-0.00150288,-0.00197278,0.00084620,-0.00002833,-0.00047110,0.0011551
 8,0.00058184,-0.00059377,0.00060124,-0.00037202,0.00061708,0.00005150,
 0.00065571,-0.00021171,0.00032497,-0.00072494,0.00028953,-0.00072461,0
 .00028452,-0.00025773,0.00020499,-0.00010525,0.00004488,-0.00030583,0.
 00040522,-0.00003506,0.00004628,-0.00010022,0.00018168,-0.00004975,0.0
 0028401,0.00095322,-0.09778792,0.23868105,-0.00060504,0.00072158,0.001
 68419,-0.00814393,0.01442204,0.00487769,0.05040314,-0.09754674,-0.1013
 9585,0.00220138,0.00155034,-0.00295741,-0.00020752,0.00082640,0.001590
 41,-0.00089026,0.00025288,0.00044486,0.00012798,-0.00048260,0.00034812
 ,0.00031295,-0.00072077,0.00034852,0.00015313,0.00042909,-0.00016173,0
 .00015012,-0.00016209,0.00006591,-0.00016009,0.00003931,-0.00004208,-0
 .00004422,0.00011729,-0.00012299,-0.00005092,-0.00016949,0.00009927,-0
 .00020838,-0.00008831,-0.00005577,0.00044749,0.00000645,-0.00012940,-0
 .05536362,0.10207657,0.10603798,-0.00067851,-0.00199092,0.00067793,0.0
 0051909,0.00043817,0.01108094,-0.06335001,-0.00065825,-0.06436456,0.00
 041217,0.00078741,-0.00044026,-0.00030645,-0.00004574,-0.00000237,-0.0
 0033297,-0.00005122,0.00031464,0.00074702,0.00088825,0.00055366,0.0001
 8842,-0.00034265,0.00033547,0.00006328,0.00031917,-0.00011981,0.000128
 62,-0.00061490,0.00025533,-0.00047726,0.00019348,-0.00014035,0.0002121
 8,-0.00012046,-0.00019522,0.00068538,-0.00007034,0.00060350,0.00033221
 ,-0.00001288,0.00025625,-0.00000392,-0.00011824,-0.00033380,0.00252146
 ,-0.00090218,0.01389256,0.06518691,-0.00190292,-0.00481620,0.00223829,
 0.00731404,-0.00052831,0.02606316,-0.00087438,-0.04930128,-0.00573819,
 0.00033290,0.00172487,0.00225798,-0.00025070,-0.00006668,-0.00083546,0
 .00011649,-0.00010968,-0.00043026,0.00097438,0.00122032,0.00014286,0.0
 0011655,0.00033209,0.00016425,-0.00018242,-0.00013155,-0.00000122,0.00
 003032,-0.00017616,0.00007767,-0.00020358,0.00009996,-0.00007599,0.000
 16101,-0.00015882,-0.00021052,0.00010704,0.00053852,0.00170232,-0.0000
 3849,-0.00016649,-0.00031734,-0.00021586,0.00001491,0.00021579,-0.0077
 8851,0.00111646,-0.02443826,0.00228777,0.05142348,0.00102122,0.0029389
 2,-0.00090895,-0.00208331,-0.00002401,-0.01027054,-0.06268609,-0.00409
 384,-0.30443642,0.00009502,-0.00052122,-0.00090740,0.00006089,0.000620
 54,0.00047090,-0.00019114,0.00027842,0.00014270,-0.00103400,-0.0006330
 1,-0.00006231,-0.00042804,0.00061548,-0.00009726,0.00001921,-0.0003558
 4,0.00018917,-0.00020289,0.00043876,-0.00031902,0.00051970,-0.00022680
 ,0.00020788,-0.00007781,0.00009485,0.00009872,-0.00018740,-0.00012489,
 -0.00054324,0.00009650,-0.00014489,0.00034872,-0.00008310,-0.00000830,
 0.00033528,-0.00371647,0.00065392,-0.01129017,0.06851029,0.00140291,0.
 32837423,0.00042707,0.00069801,-0.00067991,-0.00884489,-0.00171390,-0.
 00046371,-0.32531790,-0.02199530,-0.02456503,-0.00104746,-0.00020825,0
 .00008625,0.00028512,0.00013989,0.00001022,-0.00018820,0.00221384,-0.0
 0000638,0.00067306,-0.00087731,0.00041945,0.00001460,0.00020298,-0.000
 12903,-0.00002220,-0.00015129,0.00006931,-0.00005111,0.00018507,-0.000
 07344,0.00015070,-0.00016688,0.00009231,-0.00029321,0.00019621,-0.0000
 1690,0.00034365,0.00002632,-0.00007111,0.00035978,-0.00001042,0.000449
 94,-0.00000775,-0.00010152,0.00002133,-0.01109663,-0.00110411,-0.00140
 791,-0.00493274,-0.00003335,-0.00006611,0.34923001,-0.00014655,0.00085
 860,-0.00160494,-0.02869759,-0.00474929,-0.00140732,-0.01704481,-0.046
 05644,-0.00167737,-0.00393524,0.00016938,-0.00092825,0.00090033,0.0001
 2267,0.00049016,0.00138073,-0.00075665,0.00002357,-0.00024167,-0.00507
 980,0.00292840,0.00049331,-0.00064122,0.00043151,0.00009627,0.00046667
 ,-0.00012466,0.00019756,-0.00024176,0.00011351,-0.00031276,-0.00038868
 ,0.00008411,-0.00163255,0.00019876,-0.00041051,0.00021168,-0.00008090,
 -0.00014463,0.00023586,0.00031862,0.00048541,0.00014738,0.00000729,0.0
 0011739,0.02587567,0.00267979,0.00319581,-0.00051353,-0.00095805,-0.00
 049225,0.02282513,0.05378450,0.00099785,-0.00039433,0.00092548,0.01533
 802,0.00071952,-0.00066796,-0.02657253,-0.00207873,-0.04952930,-0.0006
 9864,-0.00063310,0.00042388,0.00015570,0.00002329,0.00004882,0.0004633
 0,0.00018014,-0.00035413,0.00030159,0.00256906,-0.00122458,-0.00030828
 ,0.00051464,0.00011025,0.00000555,-0.00011469,0.00010805,-0.00009725,0
 .00024863,-0.00018061,0.00030478,0.00014876,-0.00001381,0.00082142,0.0
 0007499,0.00042638,-0.00024744,-0.00012430,0.00008727,-0.00009512,0.00
 051648,-0.00061099,0.00006666,0.00005267,-0.00009754,0.01482081,0.0017
 1303,0.00072838,-0.03161150,-0.00219592,-0.00111574,0.02645365,-0.0007
 3828,0.05109445,0.00054995,-0.00078863,-0.00035326,-0.00609313,-0.0017
 6379,-0.00221626,0.00016034,-0.00046667,-0.00013020,-0.03521273,0.0430
 6219,0.02356291,0.00964039,-0.00281051,-0.00008299,-0.12564886,0.13143
 431,0.07407337,-0.00034889,0.00121925,0.00094596,-0.00063227,-0.000160
 12,-0.00026368,-0.00000589,0.00022167,-0.00013940,-0.00057731,0.000776
 05,-0.00038362,0.00130435,-0.00055254,0.00047631,-0.00065108,0.0003064
 1,0.00005396,0.00002896,0.00003539,0.00016561,0.00013071,0.00013549,0.
 00039786,0.00018845,-0.00003020,-0.00015140,0.00020599,-0.00005200,0.0
 0004998,0.00007529,0.00009558,-0.00001399,0.00025755,0.00036706,-0.000
 14100,0.15685991,-0.00026326,0.00001620,-0.00032232,-0.00076112,0.0026
 6106,-0.00106247,-0.00031234,0.00042133,0.00020139,0.00919433,0.005926
 62,0.00294609,-0.00521995,-0.00574763,-0.00057896,0.16817062,-0.305599
 57,-0.17327099,0.00004045,0.00028781,-0.00018244,0.00000604,-0.0000777
 7,-0.00007571,-0.00007390,-0.00011932,0.00004400,0.00017390,-0.0001009
 2,0.00004985,-0.00031334,0.00013971,-0.00011569,0.00004675,-0.00000608
 ,0.00003152,0.00006149,-0.00005435,-0.00000562,-0.00003234,-0.00006860
 ,-0.00002848,-0.00015807,-0.00001501,0.00005838,-0.00000829,0.00014003
 ,0.00000236,0.00014530,-0.00010284,0.00006908,0.00015141,-0.00004124,-
 0.00017716,-0.17089544,0.30221857,0.00004081,0.00008331,0.00046738,-0.
 00283140,-0.00121365,0.00298241,0.00010076,-0.00032279,-0.00000685,0.0
 0040718,0.00710100,0.00839160,-0.00133842,-0.00017450,-0.00605394,0.09
 914899,-0.17826761,-0.12306749,0.00041279,0.00024092,0.00054581,-0.000
 19524,-0.00000500,-0.00023204,0.00003786,-0.00000378,-0.00000774,-0.00
 000064,0.00000766,0.00001468,-0.00005275,0.00007907,-0.00000673,0.0000
 8369,-0.00011234,0.00001430,0.00011926,0.00010326,-0.00009060,0.000225
 36,-0.00004770,0.00019563,0.00016211,0.00010346,-0.00000935,-0.0001884
 7,-0.00006738,-0.00007483,-0.00006668,0.00008276,-0.00009273,-0.000220
 78,-0.00003102,0.00008811,-0.09595481,0.17244167,0.11690338,-0.0001434
 2,-0.00017093,0.00020726,0.00068688,-0.00038446,0.00013975,-0.00271337
 ,0.00071069,-0.00049767,0.00016252,0.00041869,0.00057839,-0.00014333,-
 0.00040309,-0.00024495,-0.00004524,-0.00014657,-0.00006348,0.01118479,
 0.01887105,-0.00606957,-0.09035737,-0.08968520,0.02777622,-0.00575242,
 -0.02804646,0.00866473,-0.00580552,-0.00084258,-0.00222908,0.00014480,
 -0.00002008,0.00019082,-0.00325953,0.00297477,-0.00209353,0.00003695,-
 0.00003900,0.00011815,-0.00001020,0.00002250,-0.00010319,0.00006911,-0
 .00000545,-0.00005348,-0.00221680,-0.00072093,-0.00060813,-0.00098654,
 -0.00004546,0.00045616,0.00008692,-0.00003203,-0.00004299,-0.00002160,
 0.00005430,-0.00002417,0.09777344,-0.00005618,0.00006109,-0.00005211,-
 0.00106009,-0.00087851,-0.00059622,-0.00160690,0.00011028,-0.00005266,
 0.00013887,0.00016898,0.00027855,-0.00017668,-0.00003172,-0.00009098,-
 0.00005495,-0.00002878,-0.00005961,-0.00684313,-0.01239776,0.00501528,
 -0.08744283,-0.29281691,0.08446024,-0.00014959,0.00131569,0.00297931,-
 0.00023719,-0.00007794,0.00396753,-0.00218185,0.00093761,-0.00122153,0
 .00342159,-0.00021267,0.00174399,-0.00000088,0.00000183,-0.00002810,-0
 .00000201,-0.00002128,0.00001208,0.00004771,-0.00002149,0.00004155,-0.
 00122832,0.00052597,-0.00007849,0.00027810,-0.00001322,-0.00037448,-0.
 00021946,0.00033442,-0.00027706,0.00005298,-0.00000607,0.00000528,0.09
 730721,0.30386960,-0.00029949,0.00025514,0.00014718,0.00075395,-0.0007
 7524,-0.00200505,0.00039887,0.00035410,0.00069418,0.00028938,0.0004540
 5,0.00047943,-0.00012576,-0.00021416,-0.00020182,0.00007550,-0.0002172
 9,-0.00011432,0.00372472,0.00969230,-0.00028231,0.02774808,0.08502042,
 -0.06992674,-0.00196338,-0.00166889,0.00874750,-0.00258793,0.00262533,
 0.00833918,0.00034470,-0.00051457,-0.00082468,-0.00239450,0.00179690,0
 .00256340,0.00002018,-0.00004616,-0.00003454,-0.00002783,-0.00005156,-
 0.00010927,-0.00003265,-0.00002611,-0.00013124,-0.00090600,-0.00052103
 ,-0.00002871,0.00073757,-0.00019401,-0.00014032,0.00009967,-0.00030347
 ,-0.00025607,0.00002131,0.00000339,0.00002310,-0.02720221,-0.09333619,
 0.05866857,0.00014982,-0.00000050,-0.00005129,-0.00015563,0.00147807,0
 .00047410,0.00005300,0.00005560,-0.00004543,-0.00031148,-0.00040431,-0
 .00034724,0.00009403,0.00011554,0.00006892,-0.00010482,0.00016834,0.00
 010923,-0.00539182,-0.00172936,-0.00212757,-0.01272889,0.01982322,-0.0
 1191820,-0.18229142,0.12590070,-0.07249371,0.01191606,-0.01128338,0.00
 561771,-0.00078530,-0.00294384,0.00054052,-0.00049853,-0.00068733,0.00
 034996,-0.00000222,-0.00000623,0.00000200,-0.00003011,-0.00003357,0.00
 002816,-0.00000070,-0.00001261,-0.00005012,-0.00000316,-0.00003547,-0.
 00001384,-0.00003662,-0.00001077,0.00001909,0.00000223,-0.00003572,0.0
 0001687,-0.00004420,-0.00000608,-0.00000807,0.00082902,0.00035508,0.00
 092918,0.18832379,-0.00036700,-0.00000002,0.00019072,0.00000753,0.0001
 1448,-0.00110405,0.00009584,0.00007747,0.00001454,0.00000138,-0.000122
 44,-0.00010487,0.00007016,0.00011817,0.00001020,-0.00002142,0.00002356
 ,0.00003395,-0.00289437,-0.00015674,0.00358886,-0.00786476,0.01172422,
 -0.00191943,0.12503624,-0.18743506,0.07732516,0.01826938,-0.01303290,0
 .00994987,-0.00220161,-0.00341293,0.00211795,-0.00076947,0.00037893,-0
 .00067742,-0.00001333,0.00001429,-0.00003910,0.00001920,0.00002954,-0.
 00013710,0.00001376,0.00000599,0.00002811,-0.00001973,0.00000958,-0.00
 000459,0.00002779,0.00000950,0.00001482,-0.00001093,-0.00000248,0.0000
 0834,0.00000022,0.00000111,0.00001000,0.00045809,-0.00015855,-0.002117
 04,-0.13079117,0.19164815,-0.00091895,0.00005730,0.00023905,0.00076228
 ,-0.00112788,-0.00257497,0.00019229,0.00009559,0.00005878,0.00021588,0
 .00072402,0.00031285,-0.00019623,-0.00014172,-0.00005323,0.00015132,-0
 .00025474,-0.00011793,-0.00240220,0.00428948,0.00807290,0.00127774,0.0
 0326738,0.00983259,-0.07255087,0.07690209,-0.08611066,-0.00561115,0.00
 396074,0.00219861,-0.00090974,0.00205312,0.00162269,0.00056687,-0.0003
 5519,-0.00099966,0.00000717,0.00001522,-0.00002657,0.00007365,0.000027
 17,-0.00025900,-0.00000401,-0.00000883,0.00004345,-0.00008732,-0.00001
 789,0.00001681,0.00003410,-0.00001669,0.00006107,0.00000072,0.00001394
 ,0.00002972,0.00004475,0.00001162,0.00003887,0.00080911,-0.00225323,-0
 .00477262,0.07859181,-0.08679021,0.07305737,0.00010873,0.00002848,-0.0
 0014851,0.00009795,-0.00009724,0.00008733,-0.00000015,-0.00004196,-0.0
 0000460,-0.00005179,0.00013431,-0.00001124,0.00004256,-0.00006749,0.00
 004918,0.00010444,-0.00004082,-0.00001811,0.00012957,0.00003851,0.0001
 0971,0.00124328,-0.00120132,0.00029541,-0.00338505,-0.00060501,-0.0021
 9994,-0.33777869,-0.05752332,-0.02354610,-0.01082607,-0.00613375,-0.00
 151501,-0.00075934,0.00282704,-0.00196762,-0.00000942,-0.00000345,0.00
 000284,-0.00000304,-0.00000238,0.00004638,-0.00001323,-0.00001080,-0.0
 0000526,-0.00000685,0.00000504,0.00000770,-0.00000080,-0.00000084,-0.0
 0000581,0.00000265,0.00001136,-0.00000195,-0.00001400,0.00001066,0.000
 00859,-0.00018593,0.00023935,0.00008925,0.00048154,0.00000076,0.000306
 72,0.35075746,0.00017821,0.00002581,-0.00001600,-0.00019991,0.00018726
 ,0.00037195,-0.00007866,-0.00004405,0.00000256,-0.00018170,-0.00021115
 ,-0.00011852,0.00014667,0.00010597,-0.00006610,0.00002909,0.00004567,0
 .00003623,0.00068375,-0.00078934,0.00011603,-0.00156731,-0.00478823,0.
 00244035,-0.02798222,0.00065032,-0.00013795,-0.05794228,-0.07182550,0.
 00088647,0.02100538,0.01131346,0.00407906,0.00304171,-0.00288556,0.003
 45746,-0.00000933,0.00000216,-0.00002329,-0.00001052,-0.00000631,0.000
 04809,-0.00000326,0.00000096,-0.00000810,0.00000417,0.00005035,0.00003
 759,0.00001488,-0.00000545,-0.00003925,-0.00001256,0.00003570,-0.00001
 240,-0.00001702,0.00000310,-0.00000049,-0.00113731,-0.00021725,-0.0006
 2848,0.00048790,0.00059079,-0.00075690,0.06262577,0.06723793,0.0003813
 6,0.00006606,-0.00002537,-0.00050161,0.00029016,0.00091592,-0.00004078
 ,0.00002658,0.00002323,-0.00014174,-0.00031758,-0.00018909,0.00021382,
 0.00010587,-0.00008979,-0.00001157,0.00007408,0.00006869,0.00086215,0.
 00028946,-0.00075812,-0.00060970,0.00272942,0.00102775,0.00895206,0.00
 471377,0.01119220,-0.02394540,0.00072518,-0.05058026,-0.01125341,0.000
 21236,0.01213632,-0.00272450,0.00234626,0.00324032,0.00001185,-0.00002
 874,0.00005795,-0.00003555,-0.00005631,0.00011189,-0.00001592,-0.00002
 520,-0.00003773,0.00000275,-0.00001590,-0.00000789,-0.00002001,0.00000
 238,0.00000495,0.00000319,-0.00002487,0.00000582,-0.00001846,0.0000029
 4,-0.00001695,0.00067663,-0.00041007,-0.00097753,0.00014684,-0.0009069
 0,-0.00114673,0.02760165,-0.00778119,0.02924038,0.00020038,0.00003681,
 0.00010977,0.00011441,-0.00118297,0.00093597,-0.00046043,0.00012910,-0
 .00011165,-0.00000951,-0.00046681,-0.00026203,0.00014599,0.00027655,0.
 00010400,0.00002886,0.00011291,0.00005576,-0.00556899,-0.00040876,-0.0
 0250838,-0.00012310,0.00002890,0.00010144,-0.00266651,0.00288887,-0.00
 228453,0.01076483,0.02064216,-0.00693855,-0.09440517,-0.09311339,0.028
 11110,-0.00662642,-0.02813028,0.00884786,-0.00000394,0.00000358,-0.000
 04349,-0.00001591,0.00000341,0.00000272,-0.00000802,0.00000421,-0.0000
 2815,0.00001150,-0.00001153,-0.00001306,-0.00000088,-0.00000434,0.0000
 1686,-0.00002042,-0.00014778,0.00008289,-0.00002814,-0.00001375,0.0000
 0820,0.00007120,-0.00005255,0.00014746,0.00050590,0.00087297,-0.000381
 35,0.00061680,-0.00025856,0.00062566,0.09660219,-0.00014347,-0.0000604
 4,-0.00002774,0.00026239,-0.00003636,-0.00021588,-0.00000750,-0.000019
 03,-0.00006984,-0.00013122,-0.00025714,-0.00020036,0.00031293,0.000150
 84,-0.00004145,0.00013054,0.00003244,0.00005816,-0.00023930,0.00068453
 ,0.00345567,-0.00108245,0.00081762,-0.00091837,0.00286265,0.00015699,0
 .00235704,-0.00820174,-0.01215641,0.00472814,-0.09151234,-0.29014853,0
 .08325241,-0.00040936,0.00105041,0.00250074,-0.00003866,0.00000881,-0.
 00001983,0.00000892,0.00001534,-0.00005000,-0.00000694,-0.00001566,0.0
 0000745,-0.00000101,-0.00000059,0.00000428,0.00001642,0.00001629,-0.00
 000912,0.00000269,-0.00000397,-0.00001567,-0.00003610,0.00002341,0.000
 00206,-0.00002742,-0.00006922,-0.00027480,-0.00049064,-0.00046178,0.00
 036877,0.00012512,0.00030976,-0.00119154,0.09835303,0.30009260,-0.0004
 0573,-0.00011925,-0.00014781,0.00051469,-0.00026421,-0.00051086,-0.000
 05999,-0.00013626,-0.00011664,0.00031054,0.00013939,0.00003160,-0.0000
 3815,-0.00000455,-0.00015864,-0.00008362,-0.00003529,-0.00003545,-0.00
 292637,0.00321384,0.00779304,0.00046149,-0.00067000,-0.00067131,-0.002
 47165,0.00255703,0.00367996,0.00469074,0.00957882,0.00025268,0.0268020
 4,0.08296445,-0.07039202,-0.00085933,-0.00260150,0.00796701,-0.0000154
 3,-0.00004390,0.00005248,0.00003482,-0.00003485,-0.00006667,-0.0000016
 6,-0.00001689,-0.00000833,-0.00000934,-0.00001998,0.00000439,0.0000171
 3,0.00003291,-0.00001279,-0.00001233,-0.00002220,-0.00002840,0.0000144
 3,0.00000021,0.00001307,0.00013303,-0.00028432,-0.00068882,0.00017277,
 0.00059086,0.00044115,0.00049123,-0.00127806,-0.00221985,-0.02743061,-
 0.09162674,0.05922396,-0.00047034,-0.00029855,-0.00003032,0.00049697,0
 .00031548,-0.00045100,-0.00012521,0.00010032,0.00012191,-0.00125948,-0
 .00130528,0.00139627,-0.00206689,0.00006077,0.00200853,0.00013696,0.00
 016022,-0.00020102,0.01126850,-0.00970255,0.00567801,-0.00105385,-0.00
 303957,0.00058997,-0.00045081,-0.00054193,0.00017280,-0.00568642,-0.00
 146143,-0.00175178,-0.01191634,0.02009503,-0.01162423,-0.17921497,0.12
 620664,-0.07494975,-0.00029595,-0.00079108,-0.00056700,-0.00000683,0.0
 0000305,-0.00002782,0.00005082,0.00007529,0.00001282,0.00004818,0.0001
 0678,-0.00002950,0.00003466,0.00001554,-0.00003878,-0.00001084,-0.0000
 0210,-0.00001238,-0.00012378,0.00000265,0.00012584,0.00059564,-0.00052
 827,0.00015993,0.00002952,0.00008045,0.00002743,-0.00055063,0.00118311
 ,-0.00015933,0.00087538,0.00025346,0.00067132,0.18969569,0.00014032,-0
 .00037914,0.00041175,0.00082510,0.00060259,-0.00053960,-0.00016671,-0.
 00005646,0.00000261,-0.00144961,-0.00068396,-0.00030425,0.00176670,0.0
 0063915,-0.00115882,0.00044357,-0.00000563,0.00033395,0.01723030,-0.01
 404559,0.00998965,-0.00307059,-0.00319907,0.00164693,-0.00005994,0.000
 50292,-0.00064971,-0.00338027,0.00059443,0.00255451,-0.00700969,0.0114
 7963,-0.00162596,0.12516669,-0.18949974,0.08200825,-0.00053303,-0.0000
 1209,-0.00079723,0.00003695,0.00026923,-0.00019412,0.00001742,0.000103
 76,-0.00004432,0.00005964,0.00008890,0.00000936,0.00004455,0.00003833,
 -0.00007980,-0.00003626,0.00002408,-0.00000792,-0.00013355,0.00010046,
 -0.00001421,0.00088967,-0.00037410,0.00068738,0.00008656,0.00003711,-0
 .00006316,-0.00031803,0.00021358,-0.00082621,0.00043820,-0.00012992,-0
 .00191951,-0.13098802,0.19369152,0.00007706,-0.00028329,-0.00000640,-0
 .00083710,-0.00016160,-0.00050149,0.00005083,-0.00013589,-0.00026812,0
 .00188130,0.00058275,-0.00022552,0.00150146,-0.00035006,-0.00124002,-0
 .00055045,0.00005873,-0.00009162,-0.00497404,0.00343632,0.00160422,-0.
 00145586,0.00218448,0.00037462,0.00033386,-0.00030117,-0.00087644,-0.0
 0331778,0.00593303,0.00600909,0.00355424,0.00281933,0.01170792,-0.0751
 6668,0.07867804,-0.08475389,-0.00066699,-0.00084284,-0.00017745,0.0000
 2962,0.00003692,0.00001524,-0.00006783,-0.00007824,-0.00009564,0.00000
 505,-0.00005695,0.00002030,0.00002519,0.00007058,-0.00003673,0.0000065
 8,0.00002597,0.00000254,0.00004264,-0.00004266,-0.00001910,-0.00051780
 ,0.00061121,0.00083150,-0.00001171,-0.00008268,0.00003547,0.00032817,-
 0.00060907,-0.00197611,0.00085214,-0.00207336,-0.00440174,0.07887809,-
 0.08941956,0.07406939\\-0.00000423,0.00001225,0.00005250,0.00002233,-0
 .00001170,-0.00003654,-0.00000627,0.00000647,0.00000150,-0.00012451,-0
 .00004730,-0.00006060,0.00004416,0.00005271,0.00004244,0.00006563,0.00
 000302,0.00002250,0.00005105,-0.00000437,-0.00000258,-0.00004125,0.000
 01784,-0.00000146,0.00002893,0.00002669,-0.00000714,-0.00004787,0.0000
 0360,-0.00001168,0.00005189,-0.00003164,0.00001905,-0.00003141,-0.0000
 1050,0.00000323,-0.00000113,-0.00000247,-0.00000793,-0.00000199,-0.000
 00286,-0.00001435,-0.00000120,-0.00000505,-0.00000306,-0.00000398,-0.0
 0000216,0.00000321,0.00000260,-0.00000043,0.00000165,-0.00000069,-0.00
 000203,0.00000026,0.00000388,-0.00000366,-0.00000986,-0.00000224,0.000
 00258,0.00000602,0.00000083,-0.00000064,-0.00000010,0.00000022,-0.0000
 0167,0.00000251,-0.00000162,0.00000269,-0.00000509,-0.00000314,-0.0000
 0135,0.00000554\\\@
 The archive entry for this job was punched.


            ARSENIC

 FOR SMELTER FUMES HAVE I BEEN NAMED,
    I AM AN EVIL POISONOUS SMOKE...
 BUT WHEN FROM POISON I AM FREED,
    THROUGH ART AND SLEIGHT OF HAND,
 THEN CAN I CURE BOTH MAN AND BEAST,
    FROM DIRE DISEASE OFTTIMES DIRECT THEM;
 BUT PREPARE ME CORRECTLY, AND TAKE GREAT CARE
    THAT YOU FAITHFULLY KEEP WATCHFUL GUARD OVER ME;
 FOR ELSE I AM POISON, AND POISON REMAIN,
    THAT PIERCES THE HEART OF MANY A ONE.

 ATTRIBUTED TO THE PROBABLY MYTHICAL 15TH
 CENTURY MONK, BASILIUS VALENTINUS
 Job cpu time:       0 days  6 hours 53 minutes  3.0 seconds.
 Elapsed time:       0 days  0 hours 52 minutes  2.9 seconds.
 File lengths (MBytes):  RWF=    709 Int=      0 D2E=      0 Chk=     23 Scr=      1
 Normal termination of Gaussian 16 at Mon Jan 29 14:54:41 2024.
