Job Start Time: Mon Jan 29 12:53:41 MST 2024
SLURM Job ID: 229709
SLURM Job Name: Ac7_rdkit_conf_2_AD_EA
 Entering Gaussian System, Link 0=/opt/apps/Gaussian/G16C/g16/g16
 Initial command:
 /opt/apps/Gaussian/G16C/g16/l1.exe "/tmp/Gau-1822577.inp" -scrdir="/tmp/"
 Entering Link 1 = /opt/apps/Gaussian/G16C/g16/l1.exe PID=   1822578.
  
 Copyright (c) 1988-2019, Gaussian, Inc.  All Rights Reserved.
  
 This is part of the Gaussian(R) 16 program.  It is based on
 the Gaussian(R) 09 system (copyright 2009, Gaussian, Inc.),
 the Gaussian(R) 03 system (copyright 2003, Gaussian, Inc.),
 the Gaussian(R) 98 system (copyright 1998, Gaussian, Inc.),
 the Gaussian(R) 94 system (copyright 1995, Gaussian, Inc.),
 the Gaussian 92(TM) system (copyright 1992, Gaussian, Inc.),
 the Gaussian 90(TM) system (copyright 1990, Gaussian, Inc.),
 the Gaussian 88(TM) system (copyright 1988, Gaussian, Inc.),
 the Gaussian 86(TM) system (copyright 1986, Carnegie Mellon
 University), and the Gaussian 82(TM) system (copyright 1983,
 Carnegie Mellon University). Gaussian is a federally registered
 trademark of Gaussian, Inc.
  
 This software contains proprietary and confidential information,
 including trade secrets, belonging to Gaussian, Inc.
  
 This software is provided under written license and may be
 used, copied, transmitted, or stored only in accord with that
 written license.
  
 The following legend is applicable only to US Government
 contracts under FAR:
  
                    RESTRICTED RIGHTS LEGEND
  
 Use, reproduction and disclosure by the US Government is
 subject to restrictions as set forth in subparagraphs (a)
 and (c) of the Commercial Computer Software - Restricted
 Rights clause in FAR 52.227-19.
  
 Gaussian, Inc.
 340 Quinnipiac St., Bldg. 40, Wallingford CT 06492
  
  
 ---------------------------------------------------------------
 Warning -- This program may not be used in any manner that
 competes with the business of Gaussian, Inc. or will provide
 assistance to any competitor of Gaussian, Inc.  The licensee
 of this program is prohibited from giving any competitor of
 Gaussian, Inc. access to this program.  By using this program,
 the user acknowledges that Gaussian, Inc. is engaged in the
 business of creating and licensing software in the field of
 computational chemistry and represents and warrants to the
 licensee that it is not a competitor of Gaussian, Inc. and that
 it will not use this program in any manner prohibited above.
 ---------------------------------------------------------------
  

 Cite this work as:
 Gaussian 16, Revision C.01,
 M. J. Frisch, G. W. Trucks, H. B. Schlegel, G. E. Scuseria, 
 M. A. Robb, J. R. Cheeseman, G. Scalmani, V. Barone, 
 G. A. Petersson, H. Nakatsuji, X. Li, M. Caricato, A. V. Marenich, 
 J. Bloino, B. G. Janesko, R. Gomperts, B. Mennucci, H. P. Hratchian, 
 J. V. Ortiz, A. F. Izmaylov, J. L. Sonnenberg, D. Williams-Young, 
 F. Ding, F. Lipparini, F. Egidi, J. Goings, B. Peng, A. Petrone, 
 T. Henderson, D. Ranasinghe, V. G. Zakrzewski, J. Gao, N. Rega, 
 G. Zheng, W. Liang, M. Hada, M. Ehara, K. Toyota, R. Fukuda, 
 J. Hasegawa, M. Ishida, T. Nakajima, Y. Honda, O. Kitao, H. Nakai, 
 T. Vreven, K. Throssell, J. A. Montgomery, Jr., J. E. Peralta, 
 F. Ogliaro, M. J. Bearpark, J. J. Heyd, E. N. Brothers, K. N. Kudin, 
 V. N. Staroverov, T. A. Keith, R. Kobayashi, J. Normand, 
 K. Raghavachari, A. P. Rendell, J. C. Burant, S. S. Iyengar, 
 J. Tomasi, M. Cossi, J. M. Millam, M. Klene, C. Adamo, R. Cammi, 
 J. W. Ochterski, R. L. Martin, K. Morokuma, O. Farkas, 
 J. B. Foresman, and D. J. Fox, Gaussian, Inc., Wallingford CT, 2019.
 
 ******************************************
 Gaussian 16:  AS64L-G16RevC.01  3-Jul-2019
                29-Jan-2024 
 ******************************************
 %nprocshared=8
 Will use up to    8 processors via shared memory.
 %mem=16GB
 ---------------------------------
 # m062x/def2tzvp opt freq=noraman
 ---------------------------------
 1/18=20,19=15,26=3,38=1/1,3;
 2/9=110,12=2,17=6,18=5,40=1/2;
 3/5=44,7=101,11=2,25=1,30=1,71=1,74=-55/1,2,3;
 4//1;
 5/5=2,38=5/2;
 6/7=2,8=2,9=2,10=2,28=1/1;
 7//1,2,3,16;
 1/18=20,19=15,26=3/3(2);
 2/9=110/2;
 99//99;
 2/9=110/2;
 3/5=44,7=101,11=2,25=1,30=1,71=1,74=-55/1,2,3;
 4/5=5,16=3,69=1/1;
 5/5=2,38=5/2;
 7//1,2,3,16;
 1/18=20,19=15,26=3/3(-5);
 2/9=110/2;
 6/7=2,8=2,9=2,10=2,19=2,28=1/1;
 99/9=1/99;
 ----------------------
 Ac7_rdkit_conf_2_AD_EA
 ----------------------
 Symbolic Z-matrix:
 Charge = -1 Multiplicity = 2
 O                    -2.28437  -0.99799   0.69211 
 C                    -1.80866  -0.13873   0.00369 
 O                    -2.55396   0.86296  -0.50763 
 C                    -0.35582  -0.00734  -0.37273 
 C                     0.41134  -1.29277  -0.08242 
 C                     1.88856  -1.13551  -0.43229 
 C                     2.50973   0.04594   0.30901 
 C                     1.74037   1.33411   0.0277 
 C                     0.26167   1.1863    0.37588 
 H                    -3.46099   0.7279   -0.19784 
 H                    -0.32048   0.21614  -1.44461 
 H                    -0.03335  -2.1239   -0.63208 
 H                     0.30179  -1.52919   0.97953 
 H                     1.99139  -0.97658  -1.5113 
 H                     2.42544  -2.05619  -0.1975 
 H                     3.55792   0.16291   0.02769 
 H                     2.48967  -0.15579   1.38525 
 H                     1.83354   1.5854   -1.03423 
 H                     2.17005   2.16627   0.58841 
 H                     0.15511   1.0134    1.4523 
 H                    -0.28662   2.09786   0.1355 
 

 GradGradGradGradGradGradGradGradGradGradGradGradGradGradGradGradGradGrad
 Berny optimization.
 Initialization pass.
                           ----------------------------
                           !    Initial Parameters    !
                           ! (Angstroms and Degrees)  !
 --------------------------                            --------------------------
 ! Name  Definition              Value          Derivative Info.                !
 --------------------------------------------------------------------------------
 ! R1    R(1,2)                  1.1994         estimate D2E/DX2                !
 ! R2    R(2,3)                  1.3492         estimate D2E/DX2                !
 ! R3    R(2,4)                  1.5065         estimate D2E/DX2                !
 ! R4    R(3,10)                 0.9679         estimate D2E/DX2                !
 ! R5    R(4,5)                  1.5248         estimate D2E/DX2                !
 ! R6    R(4,9)                  1.5383         estimate D2E/DX2                !
 ! R7    R(4,11)                 1.0955         estimate D2E/DX2                !
 ! R8    R(5,6)                  1.5262         estimate D2E/DX2                !
 ! R9    R(5,12)                 1.0912         estimate D2E/DX2                !
 ! R10   R(5,13)                 1.0935         estimate D2E/DX2                !
 ! R11   R(6,7)                  1.5268         estimate D2E/DX2                !
 ! R12   R(6,14)                 1.0955         estimate D2E/DX2                !
 ! R13   R(6,15)                 1.0913         estimate D2E/DX2                !
 ! R14   R(7,8)                  1.5266         estimate D2E/DX2                !
 ! R15   R(7,16)                 1.0916         estimate D2E/DX2                !
 ! R16   R(7,17)                 1.0952         estimate D2E/DX2                !
 ! R17   R(8,9)                  1.5263         estimate D2E/DX2                !
 ! R18   R(8,18)                 1.0952         estimate D2E/DX2                !
 ! R19   R(8,19)                 1.0916         estimate D2E/DX2                !
 ! R20   R(9,20)                 1.0954         estimate D2E/DX2                !
 ! R21   R(9,21)                 1.0906         estimate D2E/DX2                !
 ! A1    A(1,2,3)              122.0269         estimate D2E/DX2                !
 ! A2    A(1,2,4)              126.0415         estimate D2E/DX2                !
 ! A3    A(3,2,4)              111.9179         estimate D2E/DX2                !
 ! A4    A(2,3,10)             107.0237         estimate D2E/DX2                !
 ! A5    A(2,4,5)              111.3514         estimate D2E/DX2                !
 ! A6    A(2,4,9)              109.4613         estimate D2E/DX2                !
 ! A7    A(2,4,11)             107.0598         estimate D2E/DX2                !
 ! A8    A(5,4,9)              111.0694         estimate D2E/DX2                !
 ! A9    A(5,4,11)             110.0            estimate D2E/DX2                !
 ! A10   A(9,4,11)             107.7526         estimate D2E/DX2                !
 ! A11   A(4,5,6)              110.883          estimate D2E/DX2                !
 ! A12   A(4,5,12)             109.9475         estimate D2E/DX2                !
 ! A13   A(4,5,13)             108.4678         estimate D2E/DX2                !
 ! A14   A(6,5,12)             110.9441         estimate D2E/DX2                !
 ! A15   A(6,5,13)             109.9914         estimate D2E/DX2                !
 ! A16   A(12,5,13)            106.4811         estimate D2E/DX2                !
 ! A17   A(5,6,7)              111.2356         estimate D2E/DX2                !
 ! A18   A(5,6,14)             109.3654         estimate D2E/DX2                !
 ! A19   A(5,6,15)             109.8718         estimate D2E/DX2                !
 ! A20   A(7,6,14)             109.133          estimate D2E/DX2                !
 ! A21   A(7,6,15)             110.3774         estimate D2E/DX2                !
 ! A22   A(14,6,15)            106.7453         estimate D2E/DX2                !
 ! A23   A(6,7,8)              111.0052         estimate D2E/DX2                !
 ! A24   A(6,7,16)             110.3928         estimate D2E/DX2                !
 ! A25   A(6,7,17)             109.095          estimate D2E/DX2                !
 ! A26   A(8,7,16)             110.245          estimate D2E/DX2                !
 ! A27   A(8,7,17)             109.1048         estimate D2E/DX2                !
 ! A28   A(16,7,17)            106.8935         estimate D2E/DX2                !
 ! A29   A(7,8,9)              111.3766         estimate D2E/DX2                !
 ! A30   A(7,8,18)             109.233          estimate D2E/DX2                !
 ! A31   A(7,8,19)             110.5031         estimate D2E/DX2                !
 ! A32   A(9,8,18)             109.015          estimate D2E/DX2                !
 ! A33   A(9,8,19)             109.7556         estimate D2E/DX2                !
 ! A34   A(18,8,19)            106.8376         estimate D2E/DX2                !
 ! A35   A(4,9,8)              110.6719         estimate D2E/DX2                !
 ! A36   A(4,9,20)             108.4624         estimate D2E/DX2                !
 ! A37   A(4,9,21)             109.8461         estimate D2E/DX2                !
 ! A38   A(8,9,20)             109.4931         estimate D2E/DX2                !
 ! A39   A(8,9,21)             110.8447         estimate D2E/DX2                !
 ! A40   A(20,9,21)            107.4346         estimate D2E/DX2                !
 ! D1    D(1,2,3,10)             0.7623         estimate D2E/DX2                !
 ! D2    D(4,2,3,10)          -177.9682         estimate D2E/DX2                !
 ! D3    D(1,2,4,5)             14.8685         estimate D2E/DX2                !
 ! D4    D(1,2,4,9)           -108.3281         estimate D2E/DX2                !
 ! D5    D(1,2,4,11)           135.1394         estimate D2E/DX2                !
 ! D6    D(3,2,4,5)           -166.4626         estimate D2E/DX2                !
 ! D7    D(3,2,4,9)             70.3407         estimate D2E/DX2                !
 ! D8    D(3,2,4,11)           -46.1917         estimate D2E/DX2                !
 ! D9    D(2,4,5,6)           -178.4689         estimate D2E/DX2                !
 ! D10   D(2,4,5,12)            58.474          estimate D2E/DX2                !
 ! D11   D(2,4,5,13)           -57.5916         estimate D2E/DX2                !
 ! D12   D(9,4,5,6)            -56.1958         estimate D2E/DX2                !
 ! D13   D(9,4,5,12)          -179.2529         estimate D2E/DX2                !
 ! D14   D(9,4,5,13)            64.6815         estimate D2E/DX2                !
 ! D15   D(11,4,5,6)            63.0097         estimate D2E/DX2                !
 ! D16   D(11,4,5,12)          -60.0474         estimate D2E/DX2                !
 ! D17   D(11,4,5,13)         -176.113          estimate D2E/DX2                !
 ! D18   D(2,4,9,8)            179.281          estimate D2E/DX2                !
 ! D19   D(2,4,9,20)            59.15           estimate D2E/DX2                !
 ! D20   D(2,4,9,21)           -58.0            estimate D2E/DX2                !
 ! D21   D(5,4,9,8)             55.9176         estimate D2E/DX2                !
 ! D22   D(5,4,9,20)           -64.2134         estimate D2E/DX2                !
 ! D23   D(5,4,9,21)           178.6366         estimate D2E/DX2                !
 ! D24   D(11,4,9,8)           -64.6258         estimate D2E/DX2                !
 ! D25   D(11,4,9,20)          175.2432         estimate D2E/DX2                !
 ! D26   D(11,4,9,21)           58.0932         estimate D2E/DX2                !
 ! D27   D(4,5,6,7)             56.213          estimate D2E/DX2                !
 ! D28   D(4,5,6,14)           -64.4046         estimate D2E/DX2                !
 ! D29   D(4,5,6,15)           178.7382         estimate D2E/DX2                !
 ! D30   D(12,5,6,7)           178.6928         estimate D2E/DX2                !
 ! D31   D(12,5,6,14)           58.0752         estimate D2E/DX2                !
 ! D32   D(12,5,6,15)          -58.782          estimate D2E/DX2                !
 ! D33   D(13,5,6,7)           -63.7593         estimate D2E/DX2                !
 ! D34   D(13,5,6,14)          175.6231         estimate D2E/DX2                !
 ! D35   D(13,5,6,15)           58.7659         estimate D2E/DX2                !
 ! D36   D(5,6,7,8)            -55.8522         estimate D2E/DX2                !
 ! D37   D(5,6,7,16)          -178.4129         estimate D2E/DX2                !
 ! D38   D(5,6,7,17)            64.4082         estimate D2E/DX2                !
 ! D39   D(14,6,7,8)            64.9021         estimate D2E/DX2                !
 ! D40   D(14,6,7,16)          -57.6586         estimate D2E/DX2                !
 ! D41   D(14,6,7,17)         -174.8375         estimate D2E/DX2                !
 ! D42   D(15,6,7,8)          -178.0853         estimate D2E/DX2                !
 ! D43   D(15,6,7,16)           59.354          estimate D2E/DX2                !
 ! D44   D(15,6,7,17)          -57.8249         estimate D2E/DX2                !
 ! D45   D(6,7,8,9)             55.7723         estimate D2E/DX2                !
 ! D46   D(6,7,8,18)           -64.7006         estimate D2E/DX2                !
 ! D47   D(6,7,8,19)           178.0417         estimate D2E/DX2                !
 ! D48   D(16,7,8,9)           178.4186         estimate D2E/DX2                !
 ! D49   D(16,7,8,18)           57.9457         estimate D2E/DX2                !
 ! D50   D(16,7,8,19)          -59.312          estimate D2E/DX2                !
 ! D51   D(17,7,8,9)           -64.4823         estimate D2E/DX2                !
 ! D52   D(17,7,8,18)          175.0448         estimate D2E/DX2                !
 ! D53   D(17,7,8,19)           57.787          estimate D2E/DX2                !
 ! D54   D(7,8,9,4)            -55.6619         estimate D2E/DX2                !
 ! D55   D(7,8,9,20)            63.8507         estimate D2E/DX2                !
 ! D56   D(7,8,9,21)          -177.798          estimate D2E/DX2                !
 ! D57   D(18,8,9,4)            64.9391         estimate D2E/DX2                !
 ! D58   D(18,8,9,20)         -175.5483         estimate D2E/DX2                !
 ! D59   D(18,8,9,21)          -57.1969         estimate D2E/DX2                !
 ! D60   D(19,8,9,4)          -178.3616         estimate D2E/DX2                !
 ! D61   D(19,8,9,20)          -58.849          estimate D2E/DX2                !
 ! D62   D(19,8,9,21)           59.5023         estimate D2E/DX2                !
 --------------------------------------------------------------------------------
 Trust Radius=3.00D-01 FncErr=1.00D-07 GrdErr=1.00D-06 EigMax=2.50D+02 EigMin=1.00D-04
 Number of steps in this run=    126 maximum allowed number of steps=    126.
 GradGradGradGradGradGradGradGradGradGradGradGradGradGradGradGradGradGrad

                          Input orientation:                          
 ---------------------------------------------------------------------
 Center     Atomic      Atomic             Coordinates (Angstroms)
 Number     Number       Type             X           Y           Z
 ---------------------------------------------------------------------
      1          8           0       -2.284366   -0.997988    0.692113
      2          6           0       -1.808657   -0.138727    0.003687
      3          8           0       -2.553958    0.862956   -0.507628
      4          6           0       -0.355824   -0.007343   -0.372733
      5          6           0        0.411337   -1.292765   -0.082422
      6          6           0        1.888563   -1.135513   -0.432287
      7          6           0        2.509726    0.045943    0.309010
      8          6           0        1.740370    1.334113    0.027700
      9          6           0        0.261671    1.186296    0.375879
     10          1           0       -3.460985    0.727903   -0.197844
     11          1           0       -0.320483    0.216136   -1.444614
     12          1           0       -0.033349   -2.123896   -0.632078
     13          1           0        0.301790   -1.529193    0.979532
     14          1           0        1.991394   -0.976580   -1.511303
     15          1           0        2.425441   -2.056188   -0.197499
     16          1           0        3.557923    0.162912    0.027689
     17          1           0        2.489666   -0.155792    1.385254
     18          1           0        1.833537    1.585403   -1.034230
     19          1           0        2.170049    2.166274    0.588412
     20          1           0        0.155110    1.013402    1.452297
     21          1           0       -0.286615    2.097860    0.135496
 ---------------------------------------------------------------------
                    Distance matrix (angstroms):
                    1          2          3          4          5
     1  O    0.000000
     2  C    1.199399   0.000000
     3  O    2.230509   1.349180   0.000000
     4  C    2.415481   1.506545   2.367997   0.000000
     5  C    2.820215   2.503516   3.690651   1.524836   0.000000
     6  C    4.323948   3.853971   4.871914   2.512685   1.526214
     7  C    4.921370   4.333100   5.193775   2.946013   2.519642
     8  C    4.698791   3.842581   4.353139   2.520690   2.946005
     9  C    3.369481   2.486055   2.968653   1.538341   2.525507
    10  H    2.270497   1.876659   0.967938   3.195809   4.369359
    11  H    3.145876   2.106695   2.506936   1.095500   2.160535
    12  H    2.843981   2.738031   3.910274   2.156629   1.091167
    13  H    2.655747   2.709180   4.011149   2.139417   1.093456
    14  H    4.810158   4.175833   5.005145   2.783019   2.153661
    15  H    4.908511   4.652388   5.780311   3.458888   2.157005
    16  H    5.993454   5.375104   6.175088   3.937860   3.468735
    17  H    4.897052   4.514931   5.482608   3.348040   2.786796
    18  H    5.158614   4.161187   4.477650   2.787063   3.348499
    19  H    5.464899   4.635195   5.021572   3.468205   3.938024
    20  H    3.251863   2.698565   3.347087   2.152605   2.781981
    21  H    3.726272   2.708562   2.660722   2.166787   3.468568
                    6          7          8          9         10
     6  C    0.000000
     7  C    1.526828   0.000000
     8  C    2.516466   1.526573   0.000000
     9  C    2.948000   2.521632   1.526312   0.000000
    10  H    5.669651   6.030867   5.241417   3.794397   0.000000
    11  H    2.780584   3.333803   2.768519   2.143434   3.417469
    12  H    2.170383   3.472906   3.941981   3.472807   4.479956
    13  H    2.160108   2.793857   3.342756   2.782065   4.543036
    14  H    1.095495   2.151223   2.787624   3.351333   5.861644
    15  H    1.091332   2.163934   3.466147   3.940097   6.511618
    16  H    2.164312   1.091577   2.162224   3.468981   7.045222
    17  H    2.150496   1.095171   2.150399   2.789982   6.220720
    18  H    2.787247   2.152083   1.095227   2.149059   5.428334
    19  H    3.467399   2.165467   1.091565   2.155791   5.864781
    20  H    3.342806   2.790573   2.155315   1.095410   3.985049
    21  H    3.938080   3.472750   2.168778   1.090573   3.473402
                   11         12         13         14         15
    11  H    0.000000
    12  H    2.493674   0.000000
    13  H    3.051210   1.750222   0.000000
    14  H    2.602267   2.487761   3.060131   0.000000
    15  H    3.776089   2.497817   2.484556   1.755002   0.000000
    16  H    4.148800   4.308366   3.790993   2.474056   2.501526
    17  H    4.005424   3.782680   2.614889   3.051559   2.474012
    18  H    2.585171   4.172037   4.012754   2.610800   3.783075
    19  H    3.760184   4.974949   4.159308   3.783947   4.302565
    20  H    3.042025   3.771309   2.590330   4.014336   4.159160
    21  H    2.457393   4.298434   3.770163   4.165748   4.972147
                   16         17         18         19         20
    16  H    0.000000
    17  H    1.756624   0.000000
    18  H    2.474805   3.052240   0.000000
    19  H    2.500813   2.475702   1.756023   0.000000
    20  H    3.785760   2.611831   3.054033   2.476972   0.000000
    21  H    4.305359   3.787952   2.475059   2.499002   1.762139
                   21
    21  H    0.000000
 Stoichiometry    C7H12O2(1-,2)
 Framework group  C1[X(C7H12O2)]
 Deg. of freedom    57
 Full point group                 C1      NOp   1
 Largest Abelian subgroup         C1      NOp   1
 Largest concise Abelian subgroup C1      NOp   1
                         Standard orientation:                         
 ---------------------------------------------------------------------
 Center     Atomic      Atomic             Coordinates (Angstroms)
 Number     Number       Type             X           Y           Z
 ---------------------------------------------------------------------
      1          8           0       -2.284366   -0.997988    0.692113
      2          6           0       -1.808657   -0.138727    0.003687
      3          8           0       -2.553958    0.862956   -0.507628
      4          6           0       -0.355824   -0.007343   -0.372733
      5          6           0        0.411337   -1.292765   -0.082422
      6          6           0        1.888563   -1.135513   -0.432287
      7          6           0        2.509726    0.045943    0.309010
      8          6           0        1.740370    1.334113    0.027700
      9          6           0        0.261671    1.186296    0.375879
     10          1           0       -3.460985    0.727902   -0.197844
     11          1           0       -0.320483    0.216136   -1.444614
     12          1           0       -0.033349   -2.123896   -0.632078
     13          1           0        0.301790   -1.529193    0.979532
     14          1           0        1.991394   -0.976580   -1.511303
     15          1           0        2.425441   -2.056188   -0.197499
     16          1           0        3.557923    0.162912    0.027689
     17          1           0        2.489666   -0.155792    1.385254
     18          1           0        1.833537    1.585403   -1.034230
     19          1           0        2.170049    2.166274    0.588412
     20          1           0        0.155110    1.013402    1.452297
     21          1           0       -0.286615    2.097860    0.135496
 ---------------------------------------------------------------------
 Rotational constants (GHZ):           3.2125492           1.0876763           0.8990689
 Standard basis: def2TZVP (5D, 7F)
 There are   396 symmetry adapted cartesian basis functions of A   symmetry.
 There are   351 symmetry adapted basis functions of A   symmetry.
   351 basis functions,   555 primitive gaussians,   396 cartesian basis functions
    36 alpha electrons       35 beta electrons
       nuclear repulsion energy       476.3763368970 Hartrees.
 NAtoms=   21 NActive=   21 NUniq=   21 SFac= 1.00D+00 NAtFMM=   60 NAOKFM=F Big=F
 Integral buffers will be    131072 words long.
 Raffenetti 2 integral format.
 Two-electron integral symmetry is turned on.
 One-electron integrals computed using PRISM.
   1 Symmetry operations used in ECPInt.
 ECPInt:  NShTT=   10878 NPrTT=   32112 LenC2=   10577 LenP2D=   24962.
 LDataN:  DoStor=T MaxTD1= 6 Len=  172
 NBasis=   351 RedAO= T EigKep=  8.47D-05  NBF=   351
 NBsUse=   351 1.00D-06 EigRej= -1.00D+00 NBFU=   351
 ExpMin= 9.52D-02 ExpMax= 2.70D+04 ExpMxC= 9.22D+02 IAcc=3 IRadAn=         5 AccDes= 0.00D+00
 Harris functional with IExCor= 1009 and IRadAn=       5 diagonalized for initial guess.
 HarFok:  IExCor= 1009 AccDes= 0.00D+00 IRadAn=         5 IDoV= 1 UseB2=F ITyADJ=14
 ICtDFT=  3500011 ScaDFX=  1.000000  1.000000  1.000000  1.000000
 FoFCou: FMM=F IPFlag=           0 FMFlag=      100000 FMFlg1=           0
         NFxFlg=           0 DoJE=T BraDBF=F KetDBF=T FulRan=T
         wScrn=  0.000000 ICntrl=       500 IOpCl=  0 I1Cent=   200000004 NGrid=           0
         NMat0=    1 NMatS0=      1 NMatT0=    0 NMatD0=    1 NMtDS0=    0 NMtDT0=    0
 Petite list used in FoFCou.
 Initial guess <Sx>= 0.0000 <Sy>= 0.0000 <Sz>= 0.5000 <S**2>= 0.7500 S= 0.5000
 Requested convergence on RMS density matrix=1.00D-08 within 128 cycles.
 Requested convergence on MAX density matrix=1.00D-06.
 Requested convergence on             energy=1.00D-06.
 No special actions if energy rises.
 Integral accuracy reduced to 1.0D-05 until final iterations.
 Restarting incremental Fock formation.
 Problem detected with inexpensive integrals.
 Switching to full accuracy and repeating last cycle.
 Restarting incremental Fock formation.
 SCF Done:  E(UM062X) =  -424.347959222     A.U. after   54 cycles
            NFock= 54  Conv=0.34D-08     -V/T= 2.0037
 <Sx>= 0.0000 <Sy>= 0.0000 <Sz>= 0.5000 <S**2>= 0.7535 S= 0.5018
 <L.S>=  0.00000000000    
 Annihilation of the first spin contaminant:
 S**2 before annihilation     0.7535,   after     0.7500

 **********************************************************************

            Population analysis using the SCF Density.

 **********************************************************************

 Orbital symmetries:
 Alpha Orbitals:
       Occupied  (A) (A) (A) (A) (A) (A) (A) (A) (A) (A) (A) (A)
                 (A) (A) (A) (A) (A) (A) (A) (A) (A) (A) (A) (A)
                 (A) (A) (A) (A) (A) (A) (A) (A) (A) (A) (A) (A)
       Virtual   (A) (A) (A) (A) (A) (A) (A) (A) (A) (A) (A) (A)
                 (A) (A) (A) (A) (A) (A) (A) (A) (A) (A) (A) (A)
                 (A) (A) (A) (A) (A) (A) (A) (A) (A) (A) (A) (A)
                 (A) (A) (A) (A) (A) (A) (A) (A) (A) (A) (A) (A)
                 (A) (A) (A) (A) (A) (A) (A) (A) (A) (A) (A) (A)
                 (A) (A) (A) (A) (A) (A) (A) (A) (A) (A) (A) (A)
                 (A) (A) (A) (A) (A) (A) (A) (A) (A) (A) (A) (A)
                 (A) (A) (A) (A) (A) (A) (A) (A) (A) (A) (A) (A)
                 (A) (A) (A) (A) (A) (A) (A) (A) (A) (A) (A) (A)
                 (A) (A) (A) (A) (A) (A) (A) (A) (A) (A) (A) (A)
                 (A) (A) (A) (A) (A) (A) (A) (A) (A) (A) (A) (A)
                 (A) (A) (A) (A) (A) (A) (A) (A) (A) (A) (A) (A)
                 (A) (A) (A) (A) (A) (A) (A) (A) (A) (A) (A) (A)
                 (A) (A) (A) (A) (A) (A) (A) (A) (A) (A) (A) (A)
                 (A) (A) (A) (A) (A) (A) (A) (A) (A) (A) (A) (A)
                 (A) (A) (A) (A) (A) (A) (A) (A) (A) (A) (A) (A)
                 (A) (A) (A) (A) (A) (A) (A) (A) (A) (A) (A) (A)
                 (A) (A) (A) (A) (A) (A) (A) (A) (A) (A) (A) (A)
                 (A) (A) (A) (A) (A) (A) (A) (A) (A) (A) (A) (A)
                 (A) (A) (A) (A) (A) (A) (A) (A) (A) (A) (A) (A)
                 (A) (A) (A) (A) (A) (A) (A) (A) (A) (A) (A) (A)
                 (A) (A) (A) (A) (A) (A) (A) (A) (A) (A) (A) (A)
                 (A) (A) (A) (A) (A) (A) (A) (A) (A) (A) (A) (A)
                 (A) (A) (A) (A) (A) (A) (A) (A) (A) (A) (A) (A)
                 (A) (A) (A) (A) (A) (A) (A) (A) (A) (A) (A) (A)
                 (A) (A) (A) (A) (A) (A) (A) (A) (A) (A) (A) (A)
                 (A) (A) (A)
 Beta  Orbitals:
       Occupied  (A) (A) (A) (A) (A) (A) (A) (A) (A) (A) (A) (A)
                 (A) (A) (A) (A) (A) (A) (A) (A) (A) (A) (A) (A)
                 (A) (A) (A) (A) (A) (A) (A) (A) (A) (A) (A)
       Virtual   (A) (A) (A) (A) (A) (A) (A) (A) (A) (A) (A) (A)
                 (A) (A) (A) (A) (A) (A) (A) (A) (A) (A) (A) (A)
                 (A) (A) (A) (A) (A) (A) (A) (A) (A) (A) (A) (A)
                 (A) (A) (A) (A) (A) (A) (A) (A) (A) (A) (A) (A)
                 (A) (A) (A) (A) (A) (A) (A) (A) (A) (A) (A) (A)
                 (A) (A) (A) (A) (A) (A) (A) (A) (A) (A) (A) (A)
                 (A) (A) (A) (A) (A) (A) (A) (A) (A) (A) (A) (A)
                 (A) (A) (A) (A) (A) (A) (A) (A) (A) (A) (A) (A)
                 (A) (A) (A) (A) (A) (A) (A) (A) (A) (A) (A) (A)
                 (A) (A) (A) (A) (A) (A) (A) (A) (A) (A) (A) (A)
                 (A) (A) (A) (A) (A) (A) (A) (A) (A) (A) (A) (A)
                 (A) (A) (A) (A) (A) (A) (A) (A) (A) (A) (A) (A)
                 (A) (A) (A) (A) (A) (A) (A) (A) (A) (A) (A) (A)
                 (A) (A) (A) (A) (A) (A) (A) (A) (A) (A) (A) (A)
                 (A) (A) (A) (A) (A) (A) (A) (A) (A) (A) (A) (A)
                 (A) (A) (A) (A) (A) (A) (A) (A) (A) (A) (A) (A)
                 (A) (A) (A) (A) (A) (A) (A) (A) (A) (A) (A) (A)
                 (A) (A) (A) (A) (A) (A) (A) (A) (A) (A) (A) (A)
                 (A) (A) (A) (A) (A) (A) (A) (A) (A) (A) (A) (A)
                 (A) (A) (A) (A) (A) (A) (A) (A) (A) (A) (A) (A)
                 (A) (A) (A) (A) (A) (A) (A) (A) (A) (A) (A) (A)
                 (A) (A) (A) (A) (A) (A) (A) (A) (A) (A) (A) (A)
                 (A) (A) (A) (A) (A) (A) (A) (A) (A) (A) (A) (A)
                 (A) (A) (A) (A) (A) (A) (A) (A) (A) (A) (A) (A)
                 (A) (A) (A) (A) (A) (A) (A) (A) (A) (A) (A) (A)
                 (A) (A) (A) (A) (A) (A) (A) (A) (A) (A) (A) (A)
                 (A) (A) (A) (A)
 The electronic state is 2-A.
 Alpha  occ. eigenvalues --  -19.47711 -19.39972 -10.43395 -10.39044 -10.38069
 Alpha  occ. eigenvalues --  -10.37933 -10.37178 -10.37165 -10.36595  -1.03886
 Alpha  occ. eigenvalues --   -0.93964  -0.78671  -0.69705  -0.68850  -0.57627
 Alpha  occ. eigenvalues --   -0.54504  -0.50813  -0.47078  -0.40901  -0.38893
 Alpha  occ. eigenvalues --   -0.37603  -0.37056  -0.35568  -0.34072  -0.32054
 Alpha  occ. eigenvalues --   -0.29531  -0.28173  -0.28008  -0.25349  -0.25218
 Alpha  occ. eigenvalues --   -0.22727  -0.22017  -0.21373  -0.20480  -0.15355
 Alpha  occ. eigenvalues --    0.11418
 Alpha virt. eigenvalues --    0.19362   0.21020   0.22379   0.22748   0.24476
 Alpha virt. eigenvalues --    0.26374   0.27202   0.27521   0.27980   0.28435
 Alpha virt. eigenvalues --    0.30457   0.30537   0.32103   0.35312   0.36532
 Alpha virt. eigenvalues --    0.36826   0.38388   0.38597   0.39474   0.40747
 Alpha virt. eigenvalues --    0.41811   0.42198   0.43022   0.44187   0.45631
 Alpha virt. eigenvalues --    0.47601   0.49794   0.50444   0.50578   0.52151
 Alpha virt. eigenvalues --    0.53772   0.55575   0.56899   0.57463   0.58379
 Alpha virt. eigenvalues --    0.59200   0.59664   0.60398   0.60647   0.61217
 Alpha virt. eigenvalues --    0.61629   0.62212   0.62798   0.63366   0.63963
 Alpha virt. eigenvalues --    0.65366   0.65997   0.66780   0.67305   0.68142
 Alpha virt. eigenvalues --    0.68595   0.69512   0.70482   0.72761   0.74447
 Alpha virt. eigenvalues --    0.76508   0.78017   0.80486   0.81893   0.82580
 Alpha virt. eigenvalues --    0.84410   0.86791   0.88752   0.89573   0.92957
 Alpha virt. eigenvalues --    0.93796   0.95335   0.96766   0.98865   1.00701
 Alpha virt. eigenvalues --    1.03006   1.03971   1.04674   1.07286   1.08003
 Alpha virt. eigenvalues --    1.09984   1.10836   1.12564   1.13214   1.16697
 Alpha virt. eigenvalues --    1.19244   1.20592   1.21980   1.23721   1.25143
 Alpha virt. eigenvalues --    1.27853   1.29146   1.31553   1.32799   1.33418
 Alpha virt. eigenvalues --    1.35102   1.35387   1.38822   1.39800   1.41961
 Alpha virt. eigenvalues --    1.44456   1.46460   1.47467   1.48172   1.49814
 Alpha virt. eigenvalues --    1.52709   1.57308   1.58392   1.60795   1.62979
 Alpha virt. eigenvalues --    1.66881   1.68194   1.72183   1.72422   1.74273
 Alpha virt. eigenvalues --    1.75569   1.78555   1.78874   1.79881   1.80740
 Alpha virt. eigenvalues --    1.82487   1.83904   1.85527   1.86814   1.87046
 Alpha virt. eigenvalues --    1.89583   1.91520   1.92810   1.95722   1.97004
 Alpha virt. eigenvalues --    1.97858   1.98456   2.03202   2.03497   2.04940
 Alpha virt. eigenvalues --    2.07606   2.10979   2.11367   2.14234   2.15398
 Alpha virt. eigenvalues --    2.16962   2.18909   2.19327   2.20714   2.23345
 Alpha virt. eigenvalues --    2.27124   2.28753   2.30334   2.32113   2.33912
 Alpha virt. eigenvalues --    2.35060   2.35421   2.37293   2.41288   2.42688
 Alpha virt. eigenvalues --    2.44207   2.47977   2.50064   2.50490   2.53738
 Alpha virt. eigenvalues --    2.56741   2.57732   2.59098   2.59644   2.60837
 Alpha virt. eigenvalues --    2.64779   2.66933   2.67210   2.68693   2.69406
 Alpha virt. eigenvalues --    2.70737   2.71467   2.72354   2.74056   2.75222
 Alpha virt. eigenvalues --    2.75682   2.76521   2.79075   2.79790   2.82097
 Alpha virt. eigenvalues --    2.83426   2.83960   2.85410   2.88332   2.89372
 Alpha virt. eigenvalues --    2.89859   2.92842   2.92999   2.96789   2.98660
 Alpha virt. eigenvalues --    3.00153   3.00325   3.01073   3.06928   3.08762
 Alpha virt. eigenvalues --    3.09777   3.11048   3.12410   3.15210   3.15665
 Alpha virt. eigenvalues --    3.19547   3.21625   3.22970   3.24014   3.25296
 Alpha virt. eigenvalues --    3.27195   3.29530   3.30897   3.32259   3.34189
 Alpha virt. eigenvalues --    3.36427   3.38870   3.39279   3.39482   3.41970
 Alpha virt. eigenvalues --    3.42361   3.44574   3.47249   3.48207   3.48689
 Alpha virt. eigenvalues --    3.51084   3.53014   3.53260   3.54275   3.57305
 Alpha virt. eigenvalues --    3.58381   3.59784   3.60711   3.62879   3.63469
 Alpha virt. eigenvalues --    3.64230   3.66330   3.66883   3.68086   3.69058
 Alpha virt. eigenvalues --    3.71900   3.75046   3.76628   3.77724   3.78331
 Alpha virt. eigenvalues --    3.79629   3.81290   3.82066   3.86510   3.89547
 Alpha virt. eigenvalues --    3.93143   3.99058   4.00475   4.03780   4.06097
 Alpha virt. eigenvalues --    4.07814   4.10591   4.13445   4.14561   4.14903
 Alpha virt. eigenvalues --    4.17741   4.18015   4.23997   4.24915   4.27311
 Alpha virt. eigenvalues --    4.29437   4.33144   4.37011   4.40016   4.43044
 Alpha virt. eigenvalues --    4.45937   4.48396   4.50641   4.54670   4.58780
 Alpha virt. eigenvalues --    4.59711   4.67325   4.69290   4.70672   4.76544
 Alpha virt. eigenvalues --    4.78097   4.80893   4.82579   4.86687   4.90029
 Alpha virt. eigenvalues --    4.94454   4.96615   5.00276   5.07699   5.16143
 Alpha virt. eigenvalues --    5.18201   5.27134   5.37987   5.42773   5.43625
 Alpha virt. eigenvalues --    5.59460   5.62081   5.73404   5.83520   5.96696
 Alpha virt. eigenvalues --    6.07543   6.09877   6.41210   6.42686   6.52933
 Alpha virt. eigenvalues --    6.59285   6.65632   6.70449   6.87295   6.89571
 Alpha virt. eigenvalues --    6.97215   7.02313   7.10076   7.30507   7.32590
 Alpha virt. eigenvalues --    7.49426  22.69194  22.74060  22.76332  22.78178
 Alpha virt. eigenvalues --   22.89056  22.99598  23.62077  44.18643  44.25546
  Beta  occ. eigenvalues --  -19.47612 -19.39650 -10.43157 -10.39040 -10.38012
  Beta  occ. eigenvalues --  -10.37888 -10.37160 -10.37060 -10.36579  -1.03335
  Beta  occ. eigenvalues --   -0.93145  -0.78543  -0.69466  -0.68731  -0.57186
  Beta  occ. eigenvalues --   -0.54296  -0.50503  -0.46837  -0.40674  -0.38150
  Beta  occ. eigenvalues --   -0.37239  -0.36637  -0.35456  -0.33103  -0.31554
  Beta  occ. eigenvalues --   -0.29467  -0.27908  -0.27782  -0.25215  -0.25108
  Beta  occ. eigenvalues --   -0.22455  -0.21290  -0.20707  -0.19134  -0.14935
  Beta virt. eigenvalues --    0.15820   0.19200   0.20146   0.20596   0.22357
  Beta virt. eigenvalues --    0.24121   0.25075   0.25365   0.25657   0.26086
  Beta virt. eigenvalues --    0.27492   0.29120   0.29524   0.31453   0.34599
  Beta virt. eigenvalues --    0.35362   0.35772   0.37339   0.37930   0.38601
  Beta virt. eigenvalues --    0.40246   0.41052   0.41795   0.42933   0.43758
  Beta virt. eigenvalues --    0.45832   0.47221   0.49146   0.49583   0.50442
  Beta virt. eigenvalues --    0.51469   0.53177   0.54797   0.55418   0.56650
  Beta virt. eigenvalues --    0.57521   0.57918   0.58655   0.59588   0.59953
  Beta virt. eigenvalues --    0.60065   0.60788   0.61285   0.61530   0.62774
  Beta virt. eigenvalues --    0.63690   0.64365   0.65092   0.65950   0.66274
  Beta virt. eigenvalues --    0.67395   0.67679   0.69385   0.70131   0.72061
  Beta virt. eigenvalues --    0.73841   0.76502   0.77724   0.80930   0.82034
  Beta virt. eigenvalues --    0.82970   0.84862   0.87190   0.88753   0.89926
  Beta virt. eigenvalues --    0.93297   0.93494   0.94863   0.96461   0.98440
  Beta virt. eigenvalues --    1.00511   1.03014   1.03722   1.04422   1.06962
  Beta virt. eigenvalues --    1.07784   1.09931   1.10778   1.12174   1.12979
  Beta virt. eigenvalues --    1.16561   1.18939   1.20927   1.22264   1.23851
  Beta virt. eigenvalues --    1.24888   1.27716   1.29061   1.31311   1.32844
  Beta virt. eigenvalues --    1.33181   1.34833   1.35505   1.38757   1.39673
  Beta virt. eigenvalues --    1.41782   1.44066   1.46246   1.47415   1.48129
  Beta virt. eigenvalues --    1.49990   1.52875   1.57451   1.58764   1.60988
  Beta virt. eigenvalues --    1.63070   1.66972   1.68023   1.71991   1.73667
  Beta virt. eigenvalues --    1.74149   1.75204   1.78388   1.78982   1.79913
  Beta virt. eigenvalues --    1.80774   1.82592   1.84055   1.85466   1.86937
  Beta virt. eigenvalues --    1.87191   1.89453   1.91567   1.92681   1.95635
  Beta virt. eigenvalues --    1.97036   1.97784   1.98828   2.03239   2.03843
  Beta virt. eigenvalues --    2.05272   2.07678   2.11369   2.11705   2.14542
  Beta virt. eigenvalues --    2.15891   2.17200   2.19299   2.19578   2.21230
  Beta virt. eigenvalues --    2.23695   2.27614   2.29294   2.30557   2.32257
  Beta virt. eigenvalues --    2.34170   2.35464   2.35711   2.37576   2.41523
  Beta virt. eigenvalues --    2.42801   2.44452   2.48328   2.50538   2.50937
  Beta virt. eigenvalues --    2.54179   2.56994   2.58092   2.59437   2.60217
  Beta virt. eigenvalues --    2.61290   2.65123   2.67236   2.67486   2.68843
  Beta virt. eigenvalues --    2.69728   2.70871   2.71628   2.72759   2.74286
  Beta virt. eigenvalues --    2.75160   2.76001   2.76785   2.79376   2.80159
  Beta virt. eigenvalues --    2.82357   2.83825   2.84251   2.85753   2.88482
  Beta virt. eigenvalues --    2.89392   2.90563   2.92892   2.93196   2.96958
  Beta virt. eigenvalues --    2.98992   3.00245   3.01145   3.01668   3.07800
  Beta virt. eigenvalues --    3.08996   3.10121   3.11628   3.12769   3.15514
  Beta virt. eigenvalues --    3.16044   3.20030   3.22171   3.23365   3.25055
  Beta virt. eigenvalues --    3.26081   3.28234   3.29862   3.31309   3.32809
  Beta virt. eigenvalues --    3.35872   3.36742   3.39300   3.39964   3.40204
  Beta virt. eigenvalues --    3.42348   3.42966   3.44968   3.47642   3.49003
  Beta virt. eigenvalues --    3.49479   3.51369   3.53413   3.54139   3.54946
  Beta virt. eigenvalues --    3.57825   3.58880   3.60212   3.61679   3.63296
  Beta virt. eigenvalues --    3.63791   3.64593   3.66999   3.67624   3.68707
  Beta virt. eigenvalues --    3.69706   3.72575   3.75473   3.77175   3.78171
  Beta virt. eigenvalues --    3.78701   3.79946   3.81941   3.82507   3.87259
  Beta virt. eigenvalues --    3.90138   3.94100   3.99993   4.01116   4.04563
  Beta virt. eigenvalues --    4.06767   4.08223   4.10979   4.13821   4.15112
  Beta virt. eigenvalues --    4.15247   4.18210   4.18278   4.24302   4.25401
  Beta virt. eigenvalues --    4.27838   4.30045   4.33528   4.37287   4.40362
  Beta virt. eigenvalues --    4.43443   4.46214   4.49119   4.51240   4.55427
  Beta virt. eigenvalues --    4.59490   4.60278   4.67812   4.69825   4.71689
  Beta virt. eigenvalues --    4.76986   4.78863   4.81327   4.83041   4.87938
  Beta virt. eigenvalues --    4.90290   4.95036   4.97129   5.01366   5.08213
  Beta virt. eigenvalues --    5.16737   5.19013   5.29987   5.38356   5.43236
  Beta virt. eigenvalues --    5.44035   5.59659   5.62406   5.73768   5.84144
  Beta virt. eigenvalues --    5.97042   6.08121   6.10602   6.42183   6.43102
  Beta virt. eigenvalues --    6.53985   6.59685   6.66669   6.72001   6.87477
  Beta virt. eigenvalues --    6.90002   6.97751   7.03785   7.10287   7.31078
  Beta virt. eigenvalues --    7.32880   7.49827  22.69248  22.74137  22.76390
  Beta virt. eigenvalues --   22.78222  22.89109  22.99724  23.62735  44.18625
  Beta virt. eigenvalues --   44.25474
          Condensed to atoms (all electrons):
               1          2          3          4          5          6
     1  O    8.081407   0.564817  -0.082539  -0.151697   0.021657   0.007869
     2  C    0.564817   5.521667   0.191599  -0.886171   0.049903  -0.157740
     3  O   -0.082539   0.191599   8.200170  -0.062421   0.009200   0.001328
     4  C   -0.151697  -0.886171  -0.062421   9.772425  -0.580937   0.995416
     5  C    0.021657   0.049903   0.009200  -0.580937   5.705246  -0.608502
     6  C    0.007869  -0.157740   0.001328   0.995416  -0.608502   8.867595
     7  C   -0.001559   0.057703  -0.000817  -0.217987   0.099414  -0.537479
     8  C   -0.001551  -0.085979   0.001570   0.446063  -0.181090   0.794914
     9  C    0.046581  -0.541637   0.033655   0.771149  -0.157114   0.446575
    10  H   -0.008592   0.048576   0.204940  -0.057362  -0.000881  -0.001727
    11  H   -0.017440   0.653988  -0.033750  -2.677590   0.537759  -0.959376
    12  H    0.004729   0.030997  -0.000775  -0.200140   0.485296  -0.223265
    13  H    0.004674   0.050249  -0.000435  -0.128152   0.440889  -0.199711
    14  H   -0.000470   0.046773  -0.000020  -0.478431   0.338684  -1.154377
    15  H   -0.000211   0.010274  -0.000008  -0.049154   0.028611  -0.226621
    16  H   -0.000044   0.003153  -0.000009  -0.019507   0.040489  -0.317729
    17  H   -0.000189   0.002138  -0.000012  -0.008991   0.012474  -0.109117
    18  H   -0.000810   0.059665  -0.001199  -0.400810   0.128378  -0.516206
    19  H   -0.000161   0.009394  -0.000269  -0.008264   0.008077  -0.050899
    20  H   -0.013349   0.150596  -0.012734  -0.161581   0.014202  -0.089727
    21  H   -0.006285   0.095144  -0.008261  -0.203392   0.028593  -0.039640
               7          8          9         10         11         12
     1  O   -0.001559  -0.001551   0.046581  -0.008592  -0.017440   0.004729
     2  C    0.057703  -0.085979  -0.541637   0.048576   0.653988   0.030997
     3  O   -0.000817   0.001570   0.033655   0.204940  -0.033750  -0.000775
     4  C   -0.217987   0.446063   0.771149  -0.057362  -2.677590  -0.200140
     5  C    0.099414  -0.181090  -0.157114  -0.000881   0.537759   0.485296
     6  C   -0.537479   0.794914   0.446575  -0.001727  -0.959376  -0.223265
     7  C    5.518429  -0.210639  -0.336208   0.000506   0.269876   0.035661
     8  C   -0.210639   6.773499   0.637643  -0.000991  -0.568131  -0.015664
     9  C   -0.336208   0.637643   6.383446  -0.016755  -0.602482  -0.024499
    10  H    0.000506  -0.000991  -0.016755   0.522669   0.046546   0.001406
    11  H    0.269876  -0.568131  -0.602482   0.046546   3.238671   0.104136
    12  H    0.035661  -0.015664  -0.024499   0.001406   0.104136   0.583305
    13  H    0.033430  -0.020560  -0.068669   0.000801   0.064282   0.004587
    14  H    0.268331  -0.370573  -0.112977   0.000438   0.452520   0.058439
    15  H    0.046929  -0.055305  -0.040487   0.000044   0.055955   0.023610
    16  H    0.496310  -0.249102  -0.031067   0.000010   0.024805   0.002367
    17  H    0.447219  -0.088653  -0.014356   0.000013   0.006086   0.000797
    18  H    0.257149  -0.664276  -0.281166   0.001049   0.457330   0.008917
    19  H   -0.002125   0.197998  -0.161466   0.000120   0.035782   0.000936
    20  H    0.064096  -0.159403   0.069972   0.004563   0.125258   0.005939
    21  H    0.041391  -0.152635   0.258393   0.007013   0.142721   0.001892
              13         14         15         16         17         18
     1  O    0.004674  -0.000470  -0.000211  -0.000044  -0.000189  -0.000810
     2  C    0.050249   0.046773   0.010274   0.003153   0.002138   0.059665
     3  O   -0.000435  -0.000020  -0.000008  -0.000009  -0.000012  -0.001199
     4  C   -0.128152  -0.478431  -0.049154  -0.019507  -0.008991  -0.400810
     5  C    0.440889   0.338684   0.028611   0.040489   0.012474   0.128378
     6  C   -0.199711  -1.154377  -0.226621  -0.317729  -0.109117  -0.516206
     7  C    0.033430   0.268331   0.046929   0.496310   0.447219   0.257149
     8  C   -0.020560  -0.370573  -0.055305  -0.249102  -0.088653  -0.664276
     9  C   -0.068669  -0.112977  -0.040487  -0.031067  -0.014356  -0.281166
    10  H    0.000801   0.000438   0.000044   0.000010   0.000013   0.001049
    11  H    0.064282   0.452520   0.055955   0.024805   0.006086   0.457330
    12  H    0.004587   0.058439   0.023610   0.002367   0.000797   0.008917
    13  H    0.576834   0.039104   0.024327   0.004071   0.006175   0.009220
    14  H    0.039104   1.374839   0.207533   0.099909   0.021588   0.257280
    15  H    0.024327   0.207533   0.832487   0.044902   0.004512   0.032434
    16  H    0.004071   0.099909   0.044902   0.705025  -0.018760   0.098833
    17  H    0.006175   0.021588   0.004512  -0.018760   0.601532   0.021035
    18  H    0.009220   0.257280   0.032434   0.098833   0.021035   1.358223
    19  H    0.002103   0.020247   0.003827   0.024446   0.001111   0.108949
    20  H    0.025731   0.019387   0.007275   0.009215   0.009845   0.073847
    21  H    0.003525   0.012138   0.001757   0.003260   0.001249   0.077744
              19         20         21
     1  O   -0.000161  -0.013349  -0.006285
     2  C    0.009394   0.150596   0.095144
     3  O   -0.000269  -0.012734  -0.008261
     4  C   -0.008264  -0.161581  -0.203392
     5  C    0.008077   0.014202   0.028593
     6  C   -0.050899  -0.089727  -0.039640
     7  C   -0.002125   0.064096   0.041391
     8  C    0.197998  -0.159403  -0.152635
     9  C   -0.161466   0.069972   0.258393
    10  H    0.000120   0.004563   0.007013
    11  H    0.035782   0.125258   0.142721
    12  H    0.000936   0.005939   0.001892
    13  H    0.002103   0.025731   0.003525
    14  H    0.020247   0.019387   0.012138
    15  H    0.003827   0.007275   0.001757
    16  H    0.024446   0.009215   0.003260
    17  H    0.001111   0.009845   0.001249
    18  H    0.108949   0.073847   0.077744
    19  H    0.688614   0.031143   0.017173
    20  H    0.031143   0.714500   0.033592
    21  H    0.017173   0.033592   0.599288
          Atomic-Atomic Spin Densities.
               1          2          3          4          5          6
     1  O    0.329994  -0.258955   0.037598   0.036055   0.008250   0.004885
     2  C   -0.258955   1.163395  -0.220583  -0.911512   0.060079  -0.170210
     3  O    0.037598  -0.220583   0.174306   0.111321   0.000040   0.001133
     4  C    0.036055  -0.911512   0.111321   3.927792  -0.740444   1.025286
     5  C    0.008250   0.060079   0.000040  -0.740444   0.457430  -0.845144
     6  C    0.004885  -0.170210   0.001133   1.025286  -0.845144   3.678789
     7  C   -0.002322   0.058887  -0.000707  -0.225122   0.179069  -0.820382
     8  C    0.001248  -0.080474   0.001707   0.467294  -0.186200   0.840282
     9  C    0.053744  -0.501586   0.042551   0.521104  -0.126224   0.449522
    10  H   -0.016539   0.103263  -0.075946  -0.097213   0.001890  -0.001788
    11  H   -0.023811   0.665519  -0.041843  -2.989038   0.558532  -0.934046
    12  H    0.001027   0.041495  -0.000749  -0.172933   0.074428  -0.174765
    13  H   -0.009048   0.048624  -0.001208  -0.050236  -0.011919  -0.121536
    14  H   -0.000482   0.046819  -0.000002  -0.451160   0.346546  -1.501640
    15  H   -0.000254   0.010967  -0.000018  -0.065135   0.098204  -0.664456
    16  H   -0.000039   0.003063  -0.000008  -0.017674   0.029006  -0.273900
    17  H   -0.000127   0.002391  -0.000021  -0.000671   0.003379  -0.034698
    18  H   -0.000863   0.059205  -0.001289  -0.374741   0.119819  -0.498070
    19  H   -0.000193   0.009680  -0.000266  -0.024536   0.011858  -0.064549
    20  H   -0.019615   0.142308  -0.012119  -0.066250   0.008808  -0.083364
    21  H   -0.006398   0.095202  -0.021937  -0.161636   0.017519  -0.038782
               7          8          9         10         11         12
     1  O   -0.002322   0.001248   0.053744  -0.016539  -0.023811   0.001027
     2  C    0.058887  -0.080474  -0.501586   0.103263   0.665519   0.041495
     3  O   -0.000707   0.001707   0.042551  -0.075946  -0.041843  -0.000749
     4  C   -0.225122   0.467294   0.521104  -0.097213  -2.989038  -0.172933
     5  C    0.179069  -0.186200  -0.126224   0.001890   0.558532   0.074428
     6  C   -0.820382   0.840282   0.449522  -0.001788  -0.934046  -0.174765
     7  C    0.380660  -0.479299  -0.268788   0.000538   0.258355   0.024484
     8  C   -0.479299   1.616697   0.366867  -0.001452  -0.535418  -0.015313
     9  C   -0.268788   0.366867   1.182319  -0.017188  -0.580496  -0.032135
    10  H    0.000538  -0.001452  -0.017188   0.070972   0.049018   0.001465
    11  H    0.258355  -0.535418  -0.580496   0.049018   2.614322   0.109096
    12  H    0.024484  -0.015313  -0.032135   0.001465   0.109096   0.015949
    13  H    0.028948  -0.013062  -0.069426   0.000991   0.051501   0.021883
    14  H    0.295572  -0.352888  -0.122304   0.000438   0.443135   0.063037
    15  H    0.102361  -0.068474  -0.037140   0.000047   0.055792   0.030668
    16  H    0.087940  -0.208001  -0.042131   0.000010   0.025341   0.002888
    17  H    0.000354  -0.015940  -0.020918   0.000013   0.005636   0.001128
    18  H    0.277707  -1.018576  -0.259347   0.001072   0.446514   0.009311
    19  H    0.051823  -0.237195  -0.092592   0.000132   0.035628   0.000733
    20  H    0.059412  -0.079609  -0.376470   0.005129   0.110867   0.006318
    21  H    0.030161  -0.107332  -0.145055   0.008197   0.147046   0.002478
              13         14         15         16         17         18
     1  O   -0.009048  -0.000482  -0.000254  -0.000039  -0.000127  -0.000863
     2  C    0.048624   0.046819   0.010967   0.003063   0.002391   0.059205
     3  O   -0.001208  -0.000002  -0.000018  -0.000008  -0.000021  -0.001289
     4  C   -0.050236  -0.451160  -0.065135  -0.017674  -0.000671  -0.374741
     5  C   -0.011919   0.346546   0.098204   0.029006   0.003379   0.119819
     6  C   -0.121536  -1.501640  -0.664456  -0.273900  -0.034698  -0.498070
     7  C    0.028948   0.295572   0.102361   0.087940   0.000354   0.277707
     8  C   -0.013062  -0.352888  -0.068474  -0.208001  -0.015940  -1.018576
     9  C   -0.069426  -0.122304  -0.037140  -0.042131  -0.020918  -0.259347
    10  H    0.000991   0.000438   0.000047   0.000010   0.000013   0.001072
    11  H    0.051501   0.443135   0.055792   0.025341   0.005636   0.446514
    12  H    0.021883   0.063037   0.030668   0.002888   0.001128   0.009311
    13  H    0.033814   0.029464   0.026895   0.004476   0.003115   0.008674
    14  H    0.029464   0.736764   0.245492   0.106417   0.009481   0.248333
    15  H    0.026895   0.245492   0.205779   0.051180   0.009461   0.032485
    16  H    0.004476   0.106417   0.051180   0.094821   0.012059   0.105860
    17  H    0.003115   0.009481   0.009461   0.012059   0.006350   0.009376
    18  H    0.008674   0.248333   0.032485   0.105860   0.009376   0.726038
    19  H    0.002111   0.020362   0.004593   0.031342   0.005638   0.144976
    20  H    0.019301   0.018834   0.007259   0.009746   0.006313   0.062318
    21  H    0.004017   0.012529   0.001559   0.003812   0.001488   0.082822
              19         20         21
     1  O   -0.000193  -0.019615  -0.006398
     2  C    0.009680   0.142308   0.095202
     3  O   -0.000266  -0.012119  -0.021937
     4  C   -0.024536  -0.066250  -0.161636
     5  C    0.011858   0.008808   0.017519
     6  C   -0.064549  -0.083364  -0.038782
     7  C    0.051823   0.059412   0.030161
     8  C   -0.237195  -0.079609  -0.107332
     9  C   -0.092592  -0.376470  -0.145055
    10  H    0.000132   0.005129   0.008197
    11  H    0.035628   0.110867   0.147046
    12  H    0.000733   0.006318   0.002478
    13  H    0.002111   0.019301   0.004017
    14  H    0.020362   0.018834   0.012529
    15  H    0.004593   0.007259   0.001559
    16  H    0.031342   0.009746   0.003812
    17  H    0.005638   0.006313   0.001488
    18  H    0.144976   0.062318   0.082822
    19  H    0.059583   0.034339   0.023489
    20  H    0.034339   0.125991   0.057123
    21  H    0.023489   0.057123   0.033329
 Mulliken charges and spin densities:
               1          2
     1  O   -0.446838   0.134154
     2  C    0.124892   0.367577
     3  O   -0.439212  -0.008040
     4  C    0.307535  -0.259448
     5  C   -0.420347   0.064925
     6  C    0.078419  -0.227433
     7  C   -0.329630   0.039652
     8  C   -0.027136  -0.105141
     9  C   -0.258532  -0.075694
    10  H    0.247612   0.033051
    11  H   -0.356948   0.471649
    12  H    0.111329   0.010492
    13  H    0.127525   0.007379
    14  H   -0.100361   0.194747
    15  H    0.047311   0.047264
    16  H    0.079424   0.026208
    17  H    0.104304   0.003806
    18  H   -0.085586   0.181626
    19  H    0.073263   0.016954
    20  H    0.077634   0.036641
    21  H    0.085341   0.039630
 Sum of Mulliken charges =  -1.00000   1.00000
 Mulliken charges and spin densities with hydrogens summed into heavy atoms:
               1          2
     1  O   -0.446838   0.134154
     2  C    0.124892   0.367577
     3  O   -0.191600   0.025011
     4  C   -0.049413   0.212201
     5  C   -0.181493   0.082796
     6  C    0.025369   0.014578
     7  C   -0.145902   0.069666
     8  C   -0.039459   0.093440
     9  C   -0.095557   0.000576
 Electronic spatial extent (au):  <R**2>=           1372.9817
 Charge=             -1.0000 electrons
 Dipole moment (field-independent basis, Debye):
    X=              2.3513    Y=              0.6499    Z=              1.8990  Tot=              3.0915
 Quadrupole moment (field-independent basis, Debye-Ang):
   XX=            -77.8160   YY=            -70.1253   ZZ=            -70.5658
   XY=             -4.5066   XZ=              4.7786   YZ=              4.0736
 Traceless Quadrupole moment (field-independent basis, Debye-Ang):
   XX=             -4.9803   YY=              2.7104   ZZ=              2.2699
   XY=             -4.5066   XZ=              4.7786   YZ=              4.0736
 Octapole moment (field-independent basis, Debye-Ang**2):
  XXX=            -35.6325  YYY=             -2.7067  ZZZ=             23.5229  XYY=             -2.9549
  XXY=             14.4975  XXZ=              0.6236  XZZ=             -7.4883  YZZ=             -3.0759
  YYZ=              4.0941  XYZ=             -8.4649
 Hexadecapole moment (field-independent basis, Debye-Ang**3):
 XXXX=          -1294.0055 YYYY=           -501.1509 ZZZZ=           -241.8500 XXXY=            -48.8406
 XXXZ=             28.5316 YYYX=             -7.2818 YYYZ=              3.5076 ZZZX=             19.8562
 ZZZY=              3.8627 XXYY=           -327.6943 XXZZ=           -274.9840 YYZZ=           -123.4627
 XXYZ=             17.9674 YYXZ=              9.7591 ZZXY=             -1.9766
 N-N= 4.763763368970D+02 E-N=-1.955120876730D+03  KE= 4.227936250989D+02
                          Isotropic Fermi Contact Couplings
        Atom                 a.u.       MegaHertz       Gauss      10(-4) cm-1
     1  O(17)              0.03952     -23.95542      -8.54789      -7.99067
     2  C(13)              0.04184      47.03935      16.78481      15.69064
     3  O(17)              0.04630     -28.06538     -10.01442      -9.36160
     4  C(13)              0.01861      20.92336       7.46598       6.97928
     5  C(13)              0.00037       0.42030       0.14997       0.14020
     6  C(13)              0.04682      52.62991      18.77966      17.55545
     7  C(13)              0.00102       1.14635       0.40905       0.38238
     8  C(13)              0.01316      14.79619       5.27965       4.93548
     9  C(13)              0.12902     145.04185      51.75454      48.38075
    10  H(1)              -0.00040      -1.77994      -0.63513      -0.59372
    11  H(1)              -0.00120      -5.35228      -1.90983      -1.78533
    12  H(1)               0.00035       1.54661       0.55187       0.51590
    13  H(1)               0.00035       1.58105       0.56416       0.52738
    14  H(1)              -0.00025      -1.11827      -0.39903      -0.37301
    15  H(1)               0.00040       1.78090       0.63547       0.59405
    16  H(1)               0.00073       3.24545       1.15806       1.08257
    17  H(1)               0.00105       4.68168       1.67054       1.56164
    18  H(1)              -0.00125      -5.59900      -1.99786      -1.86763
    19  H(1)              -0.00099      -4.41529      -1.57549      -1.47278
    20  H(1)               0.00120       5.35810       1.91190       1.78727
    21  H(1)              -0.00059      -2.62369      -0.93620      -0.87517
 --------------------------------------------------------
       Center         ----  Spin Dipole Couplings  ----
                      3XX-RR        3YY-RR        3ZZ-RR
 --------------------------------------------------------
     1   Atom       -0.303782     -0.001720      0.305501
     2   Atom       -0.171695     -0.008613      0.180308
     3   Atom       -0.094599      0.015243      0.079356
     4   Atom       -0.007545     -0.014454      0.021999
     5   Atom       -0.000627      0.005898     -0.005271
     6   Atom       -0.013229     -0.013864      0.027093
     7   Atom        0.006231     -0.004572     -0.001659
     8   Atom       -0.004805     -0.017670      0.022474
     9   Atom        0.007499     -0.007229     -0.000270
    10   Atom        0.014786     -0.005386     -0.009401
    11   Atom        0.001474     -0.007619      0.006145
    12   Atom       -0.000591      0.001989     -0.001398
    13   Atom        0.001523     -0.000600     -0.000923
    14   Atom       -0.004922     -0.004982      0.009905
    15   Atom       -0.000550      0.001581     -0.001031
    16   Atom        0.002527     -0.002051     -0.000476
    17   Atom        0.000763     -0.001786      0.001022
    18   Atom       -0.004371     -0.007707      0.012078
    19   Atom       -0.001596     -0.000116      0.001712
    20   Atom       -0.000720     -0.005724      0.006444
    21   Atom       -0.003890      0.008608     -0.004718
 --------------------------------------------------------
                        XY            XZ            YZ
 --------------------------------------------------------
     1   Atom        0.091743      0.147725      0.482768
     2   Atom        0.086216      0.109660      0.277443
     3   Atom       -0.012568     -0.028234      0.147268
     4   Atom        0.002369      0.010053     -0.002817
     5   Atom       -0.001187     -0.001670     -0.003089
     6   Atom       -0.002007     -0.006160     -0.001124
     7   Atom       -0.001085      0.003728     -0.000381
     8   Atom        0.017333     -0.030463     -0.020452
     9   Atom        0.008473      0.004586      0.002588
    10   Atom        0.000735      0.001841     -0.000580
    11   Atom        0.005350     -0.017721     -0.006580
    12   Atom       -0.002919     -0.001894      0.001051
    13   Atom       -0.003785      0.001275     -0.001428
    14   Atom       -0.002558      0.001235     -0.006272
    15   Atom       -0.003475      0.001745     -0.003071
    16   Atom       -0.000443      0.000074     -0.000053
    17   Atom       -0.000427      0.000909     -0.000798
    18   Atom        0.001708      0.005105      0.000049
    19   Atom        0.002738      0.000984      0.004744
    20   Atom        0.003590      0.003872      0.001095
    21   Atom        0.000281     -0.000511     -0.001556
 --------------------------------------------------------


 ---------------------------------------------------------------------------------
              Anisotropic Spin Dipole Couplings in Principal Axis System
 ---------------------------------------------------------------------------------

       Atom             a.u.   MegaHertz   Gauss  10(-4) cm-1        Axes

              Baa    -0.3610    26.119     9.320     8.712  0.4276  0.6844 -0.5906
     1 O(17)  Bbb    -0.3278    23.723     8.465     7.913  0.8874 -0.4422  0.1301
              Bcc     0.6888   -49.841   -17.785   -16.625  0.1721  0.5797  0.7965
 
              Baa    -0.2123   -28.489   -10.165    -9.503 -0.6217  0.7110 -0.3288
     2 C(13)  Bbb    -0.1999   -26.824    -9.571    -8.947  0.7481  0.4145 -0.5182
              Bcc     0.4122    55.312    19.737    18.450  0.2322  0.5681  0.7895
 
              Baa    -0.1089     7.882     2.812     2.629 -0.5695  0.6038 -0.5577
     3 O(17)  Bbb    -0.0921     6.665     2.378     2.223  0.8158  0.4982 -0.2936
              Bcc     0.2010   -14.547    -5.191    -4.852 -0.1006  0.6222  0.7764
 
              Baa    -0.0163    -2.181    -0.778    -0.728 -0.4484  0.8750  0.1823
     4 C(13)  Bbb    -0.0089    -1.200    -0.428    -0.400  0.8455  0.4814 -0.2309
              Bcc     0.0252     3.381     1.206     1.128  0.2898 -0.0506  0.9558
 
              Baa    -0.0067    -0.896    -0.320    -0.299  0.3033  0.2542  0.9184
     5 C(13)  Bbb    -0.0001    -0.012    -0.004    -0.004  0.9474  0.0230 -0.3193
              Bcc     0.0068     0.909     0.324     0.303 -0.1023  0.9669 -0.2338
 
              Baa    -0.0162    -2.170    -0.774    -0.724  0.7190  0.6845  0.1202
     6 C(13)  Bbb    -0.0119    -1.591    -0.568    -0.531 -0.6793  0.7287 -0.0864
              Bcc     0.0280     3.761     1.342     1.255 -0.1467 -0.0195  0.9890
 
              Baa    -0.0047    -0.628    -0.224    -0.209  0.0969  0.9953  0.0061
     7 C(13)  Bbb    -0.0031    -0.421    -0.150    -0.141 -0.3664  0.0300  0.9300
              Bcc     0.0078     1.049     0.374     0.350  0.9254 -0.0923  0.3676
 
              Baa    -0.0297    -3.992    -1.424    -1.332 -0.6012  0.7982 -0.0381
     8 C(13)  Bbb    -0.0226    -3.031    -1.081    -1.011  0.6056  0.4861  0.6301
              Bcc     0.0523     7.023     2.506     2.343 -0.5214 -0.3557  0.7756
 
              Baa    -0.0111    -1.491    -0.532    -0.497 -0.4043  0.9134 -0.0471
     9 C(13)  Bbb    -0.0023    -0.304    -0.109    -0.101 -0.3464 -0.1053  0.9322
              Bcc     0.0134     1.795     0.641     0.599  0.8465  0.3931  0.3590
 
              Baa    -0.0096    -5.141    -1.834    -1.715 -0.0788  0.1481  0.9858
    10 H(1)   Bbb    -0.0053    -2.835    -1.012    -0.946 -0.0224  0.9884 -0.1503
              Bcc     0.0149     7.976     2.846     2.661  0.9966  0.0339  0.0746
 
              Baa    -0.0141    -7.516    -2.682    -2.507  0.7389  0.0706  0.6701
    11 H(1)   Bbb    -0.0099    -5.267    -1.879    -1.757 -0.2251  0.9632  0.1467
              Bcc     0.0240    12.783     4.561     4.264 -0.6351 -0.2592  0.7276
 
              Baa    -0.0033    -1.737    -0.620    -0.579  0.7476  0.2970  0.5941
    12 H(1)   Bbb    -0.0013    -0.677    -0.242    -0.226 -0.3640 -0.5650  0.7405
              Bcc     0.0045     2.414     0.862     0.805 -0.5555  0.7698  0.3143
 
              Baa    -0.0035    -1.885    -0.672    -0.629  0.5636  0.8090  0.1674
    13 H(1)   Bbb    -0.0015    -0.778    -0.278    -0.260 -0.3435  0.0453  0.9380
              Bcc     0.0050     2.663     0.950     0.888  0.7513 -0.5861  0.3034
 
              Baa    -0.0084    -4.508    -1.609    -1.504  0.5107  0.8235  0.2470
    14 H(1)   Bbb    -0.0040    -2.127    -0.759    -0.710  0.8517 -0.4451 -0.2767
              Bcc     0.0124     6.636     2.368     2.213  0.1179 -0.3517  0.9287
 
              Baa    -0.0034    -1.799    -0.642    -0.600  0.5329  0.6833  0.4990
    15 H(1)   Bbb    -0.0026    -1.362    -0.486    -0.454 -0.6726 -0.0158  0.7399
              Bcc     0.0059     3.161     1.128     1.054 -0.5134  0.7299 -0.4512
 
              Baa    -0.0021    -1.118    -0.399    -0.373  0.0950  0.9951  0.0281
    16 H(1)   Bbb    -0.0005    -0.255    -0.091    -0.085 -0.0283 -0.0255  0.9993
              Bcc     0.0026     1.372     0.490     0.458  0.9951 -0.0957  0.0257
 
              Baa    -0.0020    -1.072    -0.383    -0.358  0.0727  0.9696  0.2336
    17 H(1)   Bbb    -0.0000    -0.004    -0.001    -0.001  0.7803  0.0906 -0.6188
              Bcc     0.0020     1.076     0.384     0.359  0.6211 -0.2272  0.7501
 
              Baa    -0.0087    -4.619    -1.648    -1.541 -0.4851  0.8665  0.1174
    18 H(1)   Bbb    -0.0049    -2.609    -0.931    -0.870  0.8297  0.4985 -0.2511
              Bcc     0.0135     7.228     2.579     2.411  0.2761  0.0244  0.9608
 
              Baa    -0.0049    -2.593    -0.925    -0.865 -0.4831  0.7426 -0.4637
    19 H(1)   Bbb    -0.0016    -0.838    -0.299    -0.280  0.8209  0.1999 -0.5350
              Bcc     0.0064     3.431     1.224     1.144  0.3046  0.6391  0.7062
 
              Baa    -0.0077    -4.083    -1.457    -1.362 -0.4879  0.8704  0.0664
    20 H(1)   Bbb    -0.0009    -0.493    -0.176    -0.164  0.7563  0.4595 -0.4658
              Bcc     0.0086     4.576     1.633     1.526  0.4359  0.1770  0.8824
 
              Baa    -0.0051    -2.714    -0.969    -0.905  0.3713  0.0973  0.9234
    21 H(1)   Bbb    -0.0037    -1.979    -0.706    -0.660  0.9281 -0.0674 -0.3661
              Bcc     0.0088     4.693     1.675     1.565  0.0266  0.9930 -0.1153
 

 ---------------------------------------------------------------------------------

   1 Symmetry operations used in ECPInt.
 ECPInt:  NShTT=   10878 NPrTT=   32112 LenC2=   10577 LenP2D=   24962.
 LDataN:  DoStor=T MaxTD1= 7 Len=  274
 Calling FoFJK, ICntrl=      2127 FMM=F ISym2X=0 I1Cent= 0 IOpClX= 1 NMat=1 NMatS=1 NMatT=0.
 ***** Axes restored to original set *****
 -------------------------------------------------------------------
 Center     Atomic                   Forces (Hartrees/Bohr)
 Number     Number              X              Y              Z
 -------------------------------------------------------------------
      1        8          -0.039838969   -0.060680015    0.034528141
      2        6           0.068659286    0.032861629   -0.009340228
      3        8          -0.023040833    0.027016619   -0.017230061
      4        6          -0.028520690   -0.003897500    0.017935340
      5        6           0.000609595    0.005761106    0.000000804
      6        6          -0.000324866   -0.000294264   -0.000101754
      7        6          -0.003324462    0.001361150   -0.000390586
      8        6           0.002602652    0.001239644    0.001898545
      9        6           0.009229341   -0.001463756   -0.004473102
     10        1           0.002110279   -0.003955851   -0.001321821
     11        1           0.006640111    0.005160314   -0.018456457
     12        1          -0.000632782   -0.001245329   -0.002320273
     13        1          -0.000317013   -0.001104963    0.000482878
     14        1          -0.000630603    0.000371140    0.000686852
     15        1           0.003179190   -0.003529263    0.001381273
     16        1           0.003717928   -0.000110140   -0.001765297
     17        1           0.000484381   -0.000326509    0.001180187
     18        1          -0.000412629   -0.000445785   -0.001429863
     19        1           0.001840775    0.001575365    0.001162203
     20        1          -0.000724294    0.000270189   -0.000490259
     21        1          -0.001306399    0.001436218   -0.001936523
 -------------------------------------------------------------------
 Cartesian Forces:  Max     0.068659286 RMS     0.015796773

 GradGradGradGradGradGradGradGradGradGradGradGradGradGradGradGradGradGrad
 Berny optimization.
 FormGI is forming the generalized inverse of G from B-inverse, IUseBI=4.
 Internal  Forces:  Max     0.079093455 RMS     0.008464171
 Search for a local minimum.
 Step number   1 out of a maximum of  126
 All quantities printed in internal units (Hartrees-Bohrs-Radians)
 Mixed Optimization -- RFO/linear search
 Second derivative matrix not updated -- first step.
 ITU=  0
     Eigenvalues ---    0.00553   0.00615   0.00679   0.00695   0.01073
     Eigenvalues ---    0.01932   0.01986   0.02364   0.03763   0.03936
     Eigenvalues ---    0.03978   0.04207   0.04803   0.04856   0.04899
     Eigenvalues ---    0.05442   0.05590   0.05616   0.06069   0.06588
     Eigenvalues ---    0.07968   0.08082   0.08089   0.08125   0.08146
     Eigenvalues ---    0.08327   0.08614   0.12042   0.12048   0.14142
     Eigenvalues ---    0.15867   0.16000   0.17332   0.21042   0.24996
     Eigenvalues ---    0.25000   0.27521   0.28156   0.28399   0.29336
     Eigenvalues ---    0.29771   0.29827   0.31700   0.34185   0.34185
     Eigenvalues ---    0.34195   0.34216   0.34222   0.34416   0.34631
     Eigenvalues ---    0.34632   0.34659   0.34678   0.34746   0.53801
     Eigenvalues ---    0.55196   1.05125
 RFO step:  Lambda=-2.08599004D-02 EMin= 5.52846561D-03
 Linear search not attempted -- first point.
 Iteration  1 RMS(Cart)=  0.07296389 RMS(Int)=  0.00754786
 Iteration  2 RMS(Cart)=  0.00922838 RMS(Int)=  0.00272582
 Iteration  3 RMS(Cart)=  0.00010669 RMS(Int)=  0.00272390
 Iteration  4 RMS(Cart)=  0.00000081 RMS(Int)=  0.00272390
 Variable       Old X    -DE/DX   Delta X   Delta X   Delta X     New X
                                 (Linear)    (Quad)   (Total)
    R1        2.26654   0.07909   0.00000   0.07377   0.07377   2.34031
    R2        2.54958   0.03571   0.00000   0.06234   0.06234   2.61192
    R3        2.84696  -0.00553   0.00000  -0.01638  -0.01638   2.83058
    R4        1.82914  -0.00185   0.00000  -0.00330  -0.00330   1.82583
    R5        2.88152  -0.00017   0.00000   0.00184   0.00180   2.88332
    R6        2.90704   0.00404   0.00000   0.01322   0.01326   2.92031
    R7        2.07020   0.01933   0.00000   0.05328   0.05328   2.12348
    R8        2.88413   0.00259   0.00000   0.00715   0.00718   2.89130
    R9        2.06201   0.00237   0.00000   0.00646   0.00646   2.06847
   R10        2.06633   0.00074   0.00000   0.00203   0.00203   2.06836
   R11        2.88529   0.00053   0.00000   0.00160   0.00155   2.88684
   R12        2.07019  -0.00068   0.00000  -0.00188  -0.00188   2.06831
   R13        2.06232   0.00484   0.00000   0.01317   0.01317   2.07548
   R14        2.88481   0.00064   0.00000  -0.00035  -0.00030   2.88450
   R15        2.06278   0.00401   0.00000   0.01093   0.01093   2.07371
   R16        2.06957   0.00121   0.00000   0.00333   0.00333   2.07291
   R17        2.88431   0.00369   0.00000   0.01256   0.01253   2.89684
   R18        2.06968   0.00125   0.00000   0.00344   0.00344   2.07312
   R19        2.06276   0.00252   0.00000   0.00687   0.00687   2.06963
   R20        2.07003  -0.00045   0.00000  -0.00125  -0.00125   2.06877
   R21        2.06089   0.00228   0.00000   0.00620   0.00620   2.06709
    A1        2.12977  -0.00747   0.00000  -0.02543  -0.04150   2.08827
    A2        2.19984   0.00871   0.00000   0.03408   0.01661   2.21645
    A3        1.95334  -0.00101   0.00000  -0.00168  -0.01806   1.93527
    A4        1.86792  -0.00586   0.00000  -0.03242  -0.03242   1.83550
    A5        1.94345  -0.00517   0.00000  -0.02239  -0.02242   1.92103
    A6        1.91046   0.01023   0.00000   0.06695   0.06710   1.97756
    A7        1.86855   0.00124   0.00000   0.02526   0.02574   1.89428
    A8        1.93853  -0.00299   0.00000  -0.00948  -0.00996   1.92856
    A9        1.91986   0.00131   0.00000  -0.01448  -0.01518   1.90468
   A10        1.88064  -0.00440   0.00000  -0.04519  -0.04613   1.83451
   A11        1.93527   0.00255   0.00000   0.02261   0.02254   1.95782
   A12        1.91895  -0.00059   0.00000  -0.00823  -0.00805   1.91090
   A13        1.89312  -0.00084   0.00000  -0.00155  -0.00173   1.89139
   A14        1.93634  -0.00160   0.00000  -0.01216  -0.01217   1.92417
   A15        1.91971  -0.00009   0.00000  -0.00076  -0.00077   1.91894
   A16        1.85845   0.00048   0.00000  -0.00075  -0.00080   1.85765
   A17        1.94143   0.00163   0.00000   0.00953   0.00948   1.95090
   A18        1.90879  -0.00107   0.00000  -0.01039  -0.01029   1.89849
   A19        1.91762   0.00043   0.00000   0.00868   0.00860   1.92623
   A20        1.90473  -0.00105   0.00000  -0.00994  -0.01001   1.89471
   A21        1.92645  -0.00052   0.00000  -0.00085  -0.00086   1.92559
   A22        1.86306   0.00050   0.00000   0.00235   0.00237   1.86542
   A23        1.93741  -0.00027   0.00000  -0.00256  -0.00278   1.93462
   A24        1.92672  -0.00027   0.00000  -0.00659  -0.00651   1.92021
   A25        1.90407  -0.00005   0.00000   0.00320   0.00325   1.90731
   A26        1.92414   0.00038   0.00000   0.00159   0.00158   1.92572
   A27        1.90424   0.00022   0.00000   0.00392   0.00403   1.90827
   A28        1.86564  -0.00001   0.00000   0.00074   0.00070   1.86634
   A29        1.94389  -0.00146   0.00000   0.00011   0.00006   1.94395
   A30        1.90648   0.00079   0.00000  -0.00521  -0.00524   1.90123
   A31        1.92864  -0.00049   0.00000  -0.00072  -0.00073   1.92792
   A32        1.90267  -0.00049   0.00000  -0.00692  -0.00695   1.89573
   A33        1.91560   0.00172   0.00000   0.00987   0.00990   1.92549
   A34        1.86467  -0.00001   0.00000   0.00278   0.00280   1.86746
   A35        1.93159   0.00327   0.00000   0.02002   0.02004   1.95163
   A36        1.89303  -0.00040   0.00000  -0.00375  -0.00386   1.88916
   A37        1.91718  -0.00234   0.00000  -0.01376  -0.01375   1.90342
   A38        1.91102  -0.00145   0.00000   0.00027   0.00021   1.91122
   A39        1.93460   0.00011   0.00000  -0.00442  -0.00432   1.93029
   A40        1.87509   0.00071   0.00000   0.00108   0.00103   1.87612
    D1        0.01330   0.00270   0.00000   0.10587   0.09983   0.11313
    D2       -3.10613  -0.00771   0.00000  -0.21845  -0.21241   2.96464
    D3        0.25950  -0.00663   0.00000  -0.21076  -0.21094   0.04856
    D4       -1.89068  -0.00647   0.00000  -0.23029  -0.22993  -2.12061
    D5        2.35863  -0.00726   0.00000  -0.22555  -0.22666   2.13197
    D6       -2.90532   0.00403   0.00000   0.12835   0.12878  -2.77654
    D7        1.22768   0.00419   0.00000   0.10881   0.10979   1.33747
    D8       -0.80620   0.00340   0.00000   0.11355   0.11307  -0.69313
    D9       -3.11487  -0.00349   0.00000  -0.02271  -0.02255  -3.13742
   D10        1.02056  -0.00278   0.00000  -0.01700  -0.01679   1.00378
   D11       -1.00516  -0.00256   0.00000  -0.01069  -0.01049  -1.01565
   D12       -0.98080   0.00389   0.00000   0.04078   0.04060  -0.94020
   D13       -3.12855   0.00460   0.00000   0.04649   0.04637  -3.08219
   D14        1.12890   0.00482   0.00000   0.05279   0.05267   1.18157
   D15        1.09973  -0.00263   0.00000  -0.03078  -0.03102   1.06871
   D16       -1.04802  -0.00193   0.00000  -0.02507  -0.02525  -1.07328
   D17       -3.07375  -0.00170   0.00000  -0.01876  -0.01896  -3.09271
   D18        3.12904  -0.00321   0.00000  -0.01958  -0.01911   3.10993
   D19        1.03236  -0.00315   0.00000  -0.02966  -0.02915   1.00321
   D20       -1.01229  -0.00247   0.00000  -0.02108  -0.02063  -1.03292
   D21        0.97595  -0.00173   0.00000  -0.03125  -0.03109   0.94486
   D22       -1.12074  -0.00167   0.00000  -0.04133  -0.04113  -1.16187
   D23        3.11780  -0.00098   0.00000  -0.03275  -0.03261   3.08519
   D24       -1.12793   0.00125   0.00000   0.02095   0.02023  -1.10770
   D25        3.05857   0.00131   0.00000   0.01087   0.01019   3.06876
   D26        1.01392   0.00200   0.00000   0.01945   0.01872   1.03264
   D27        0.98110  -0.00092   0.00000  -0.01841  -0.01859   0.96251
   D28       -1.12407   0.00005   0.00000  -0.00524  -0.00531  -1.12938
   D29        3.11957  -0.00018   0.00000  -0.00704  -0.00707   3.11250
   D30        3.11878  -0.00102   0.00000  -0.02164  -0.02180   3.09698
   D31        1.01360  -0.00004   0.00000  -0.00847  -0.00852   1.00508
   D32       -1.02594  -0.00027   0.00000  -0.01027  -0.01029  -1.03622
   D33       -1.11281  -0.00145   0.00000  -0.03045  -0.03059  -1.14340
   D34        3.06520  -0.00048   0.00000  -0.01728  -0.01731   3.04789
   D35        1.02566  -0.00071   0.00000  -0.01908  -0.01907   1.00659
   D36       -0.97481   0.00087   0.00000   0.01071   0.01064  -0.96416
   D37       -3.11389   0.00076   0.00000   0.01501   0.01500  -3.09889
   D38        1.12414   0.00095   0.00000   0.01604   0.01600   1.14014
   D39        1.13276  -0.00011   0.00000  -0.00273  -0.00281   1.12995
   D40       -1.00633  -0.00023   0.00000   0.00157   0.00155  -1.00478
   D41       -3.05149  -0.00004   0.00000   0.00260   0.00256  -3.04893
   D42       -3.10817  -0.00043   0.00000  -0.00627  -0.00633  -3.11451
   D43        1.03592  -0.00055   0.00000  -0.00197  -0.00198   1.03395
   D44       -1.00923  -0.00036   0.00000  -0.00094  -0.00097  -1.01021
   D45        0.97341  -0.00086   0.00000  -0.00504  -0.00506   0.96835
   D46       -1.12924   0.00015   0.00000   0.00696   0.00697  -1.12227
   D47        3.10741  -0.00002   0.00000   0.00712   0.00713   3.11454
   D48        3.11399  -0.00112   0.00000  -0.01407  -0.01412   3.09987
   D49        1.01134  -0.00011   0.00000  -0.00207  -0.00210   1.00924
   D50       -1.03519  -0.00028   0.00000  -0.00191  -0.00194  -1.03713
   D51       -1.12543  -0.00078   0.00000  -0.00994  -0.00995  -1.13538
   D52        3.05511   0.00024   0.00000   0.00206   0.00207   3.05718
   D53        1.00857   0.00007   0.00000   0.00222   0.00223   1.01081
   D54       -0.97148  -0.00081   0.00000   0.00373   0.00377  -0.96771
   D55        1.11440  -0.00019   0.00000   0.01168   0.01172   1.12612
   D56       -3.10316  -0.00015   0.00000   0.01049   0.01050  -3.09266
   D57        1.13340  -0.00107   0.00000  -0.00725  -0.00723   1.12617
   D58       -3.06390  -0.00046   0.00000   0.00070   0.00072  -3.06318
   D59       -0.99827  -0.00041   0.00000  -0.00049  -0.00050  -0.99878
   D60       -3.11300  -0.00039   0.00000  -0.00229  -0.00229  -3.11529
   D61       -1.02711   0.00023   0.00000   0.00566   0.00566  -1.02145
   D62        1.03851   0.00027   0.00000   0.00447   0.00444   1.04295
         Item               Value     Threshold  Converged?
 Maximum Force            0.079093     0.000450     NO 
[...]
 0.00007390,0.00005064,-0.00006223,0.00018175,-0.00011194,-0.00070811,-
 0.00069750,0.00028716,0.13145646,0.09319123,0.00414889,0.00107855,0.00
 038817,-0.01465874,0.00380942,-0.00428227,-0.14288589,-0.05212675,-0.0
 5324723,0.00305492,-0.00144023,0.00017714,0.00043123,0.00006994,-0.000
 04494,0.00005914,-0.00009380,0.00019596,0.00007485,0.00002015,-0.00002
 703,0.00005244,-0.00014542,0.00007430,0.00051082,-0.00008493,0.0000492
 1,0.14973439,0.04919796,0.05669317,0.00338243,0.00347964,-0.00409046,-
 0.00982063,-0.00564138,0.03395805,0.00363923,-0.00193237,-0.00266429,-
 0.04006440,0.00042560,-0.00016299,-0.00186138,0.00369149,-0.01716738,0
 .00076595,-0.00005680,-0.00107648,-0.00010590,0.00000251,0.00009044,0.
 00061898,0.00035152,-0.00101090,-0.00145346,0.00069759,-0.01441599,-0.
 00034071,-0.00027330,-0.00048663,0.04681595,0.00073327,0.00044660,-0.0
 0147610,-0.00210796,-0.00081909,0.00624111,-0.00050618,0.00073966,-0.0
 0096272,0.00275038,-0.04871473,0.02965223,0.00172144,-0.00656687,0.027
 34493,-0.00110492,0.00065833,0.00056739,0.00003885,-0.00019636,-0.0000
 8295,0.00089179,0.00071204,-0.00035938,-0.00193904,0.00068831,-0.02689
 607,-0.00004316,-0.00005115,0.00004042,-0.00097000,0.05819728,0.001618
 63,0.00354135,0.00718358,0.00863474,0.00276674,-0.02651335,0.00059891,
 -0.00349119,0.00533155,-0.01686565,0.02873080,-0.24919908,0.00048477,0
 .00063770,-0.00702546,0.00072123,-0.00048821,-0.00042769,-0.00014956,-
 0.00008570,0.00032820,0.00087941,0.00087043,-0.00033979,-0.00035937,0.
 00180692,-0.01547833,0.00040741,0.00001441,0.00006357,0.00617236,-0.03
 311248,0.28453227,-0.00123182,-0.00109606,-0.00070343,0.00041139,0.001
 94785,0.00084448,0.00035126,-0.00099578,-0.00012670,0.00820098,0.01252
 557,0.00883151,-0.09609316,-0.09239416,-0.05576040,-0.01349594,-0.0235
 7489,-0.01504215,-0.00553988,0.00100071,0.00296862,-0.00015766,0.00017
 777,-0.00002410,-0.00256428,0.00305976,-0.00060390,-0.00008445,0.00010
 519,0.00000586,0.00059152,-0.00059209,-0.00007751,0.10703141,-0.000672
 44,0.00305606,0.00157306,-0.00285501,-0.00275450,-0.00075806,0.0002732
 1,0.00055931,0.00007032,-0.01043651,-0.02375674,-0.01474856,-0.0905571
 0,-0.20204406,-0.09631923,0.00030801,-0.00031148,0.00060341,0.00011788
 ,0.00118317,0.00039659,0.00057220,0.00035402,-0.00010601,0.00428656,-0
 .00358879,0.00240332,0.00009762,-0.00009684,0.00003531,-0.00031235,0.0
 0101878,0.00037519,0.09780241,0.22241706,0.00048886,0.00238181,0.00023
 523,-0.00147482,-0.00215285,-0.00097494,0.00041561,-0.00005351,0.00019
 324,0.00339590,0.00604243,0.00331695,-0.05539900,-0.09788565,-0.108176
 68,0.00557836,0.01004976,0.00453758,0.00195742,-0.00003272,-0.00028095
 ,0.00006720,-0.00008852,-0.00004928,-0.00067875,0.00079932,0.00043899,
 0.00001292,-0.00007475,0.00002601,0.00054631,-0.00010887,0.00014336,0.
 05970456,0.10411218,0.11324333,0.00015074,0.00024006,0.00077111,0.0001
 3916,0.00026265,-0.00156066,-0.00017070,-0.00046163,0.00059285,-0.0001
 2143,0.00386838,-0.01828416,-0.04521676,-0.00444162,0.01108040,-0.0043
 8782,-0.00599841,0.03254192,0.00162388,0.00070864,0.00106793,-0.000229
 24,-0.00010420,0.00001726,0.00018553,-0.00098773,0.00017348,0.00004858
 ,0.00003662,0.00006228,-0.00148403,0.00301351,0.00017826,0.00059517,0.
 00314413,-0.01361487,0.05305215,-0.00009341,-0.00047527,-0.00013943,-0
 .00077015,0.00072195,0.00081807,-0.00006451,0.00031251,-0.00081472,0.0
 0026003,-0.00716930,0.02881155,-0.00451085,-0.05426394,0.04154026,0.00
 011527,-0.00140613,0.00182824,0.00009898,0.00009272,0.00087807,0.00001
 323,-0.00019486,-0.00000959,-0.00039888,0.00149432,0.00149310,-0.00010
 506,0.00003008,-0.00007560,0.00296661,-0.00411982,0.00089972,0.0018396
 1,0.00475996,-0.02405798,0.00115822,0.05925265,-0.00123819,-0.00117236
 ,0.00006173,0.00262638,0.00012386,0.00081303,0.00003288,-0.00002740,0.
 00027165,-0.00207901,0.00267901,-0.00954160,0.01130335,0.04205346,-0.2
 8673800,0.00058190,0.00092622,-0.00887954,-0.00066495,-0.00010324,0.00
 042320,0.00006199,0.00015859,0.00022861,0.00020927,-0.00069749,0.00025
 416,0.00002002,-0.00004054,0.00002902,-0.00040375,0.00243159,-0.000225
 97,0.00087251,0.00285382,-0.01496904,-0.01383797,-0.04969503,0.3152733
 4,0.00008719,0.00002720,-0.00015911,-0.00037777,-0.00003973,-0.0001963
 5,-0.00006542,0.00024443,-0.00021304,0.00183592,-0.00103307,0.00117007
 ,-0.00311664,-0.00399309,0.03379796,-0.04552808,0.00051650,0.01165664,
 -0.00049353,0.00060117,-0.01602869,0.00016961,0.00083251,0.00058238,-0
 .00022060,0.00005354,0.00002523,-0.00001527,-0.00000574,-0.00004167,-0
 .00026875,0.00032958,-0.00096898,0.00123165,-0.00024953,-0.00078628,-0
 .00577165,-0.00025492,0.00137792,0.05265134,-0.00007630,0.00008942,0.0
 0003778,0.00003516,-0.00013870,-0.00024680,-0.00008540,-0.00001998,0.0
 0005138,0.00053360,0.00005646,-0.00079327,-0.00081667,-0.00092288,0.00
 423966,0.00057353,-0.05180581,0.02959091,0.00061256,0.00116349,-0.0279
 3404,-0.00005266,0.00183202,-0.00108222,0.00006882,-0.00021752,-0.0000
 7934,-0.00000778,0.00000844,-0.00001043,0.00008259,0.00026724,-0.00001
 755,0.00011251,0.00000993,0.00021969,-0.00102481,0.00086060,-0.0000648
 3,0.00365793,0.05510484,0.00003675,-0.00051201,-0.00031911,0.00000876,
 0.00027590,0.00132177,0.00016594,0.00006589,-0.00010627,-0.00097930,0.
 00046620,-0.00045609,0.00130708,0.00179800,-0.01061197,0.01194519,0.02
 775733,-0.29382221,0.00005880,0.00116135,-0.01633416,0.00014988,0.0010
 7616,0.00040998,0.00010961,-0.00026343,0.00020294,0.00004186,-0.000007
 17,-0.00000413,0.00027884,-0.00066446,0.00079940,0.00023034,0.00020314
 ,0.00064007,0.00210716,0.00031027,0.00086155,-0.01331705,-0.02960346,0
 .32345036,-0.00042875,-0.00057198,-0.00016702,0.00156210,0.00227995,-0
 .00070888,-0.00118217,0.00031842,0.00013003,-0.00663857,-0.00367218,0.
 00377156,-0.01609962,0.02807983,-0.00878563,-0.11003004,0.10699195,-0.
 03114310,0.00756507,-0.01352591,0.00418940,-0.00108384,-0.00216381,-0.
 00160675,-0.00013241,-0.00059045,-0.00023158,-0.00010672,0.00012797,0.
 00007830,0.00018507,-0.00028763,-0.00017174,0.00090520,-0.00058312,-0.
 00074760,0.00135524,-0.00018134,0.00050977,0.00006636,-0.00153737,-0.0
 0015282,0.12256216,0.00047337,0.00061139,0.00037712,-0.00096610,-0.000
 40674,-0.00036529,0.00020344,-0.00020303,0.00005968,0.00016318,0.00090
 037,-0.00005556,-0.00228096,0.00378838,-0.00104022,0.10590267,-0.22053
 009,0.05065394,0.01381829,-0.02210218,0.00738809,-0.00430822,-0.002943
 23,-0.00378744,-0.00055885,0.00044425,0.00023200,-0.00004712,0.0000324
 3,-0.00001532,-0.00006941,0.00005266,-0.00000121,0.00061456,0.00044080
 ,-0.00020113,0.00044926,0.00017266,-0.00042238,0.00135530,-0.00327598,
 0.00155311,-0.11552058,0.24263390,-0.00019828,-0.00035362,-0.00035127,
 0.00037071,-0.00004858,0.00107910,0.00014024,0.00019144,-0.00013837,0.
 00081620,0.00096506,-0.00048573,0.00567795,-0.00902813,0.00177827,-0.0
 3156423,0.05210492,-0.06392226,0.00832835,-0.01398971,0.00291162,-0.00
 181113,-0.00169978,-0.00106280,-0.00017954,0.00011631,0.00006829,0.000
 05514,-0.00004412,-0.00001470,0.00025238,-0.00032906,0.00049230,-0.000
 60242,0.00030165,0.00012955,-0.00047493,-0.00036350,0.00029859,-0.0160
 3264,0.02672733,-0.00744449,0.03416752,-0.05475577,0.06512476,-0.00040
 719,-0.00004361,-0.00003814,0.00033945,-0.00002433,-0.00004668,-0.0002
 9152,0.00011470,-0.00002946,0.00075317,0.00003946,0.00038587,0.0005909
 7,-0.00328419,-0.00262389,-0.01272723,-0.00050637,0.00485885,-0.274444
 97,-0.02269752,0.07351414,-0.01559703,-0.00253171,0.00565051,0.0000576
 5,0.00442603,-0.00181941,0.00001634,-0.00007360,0.00000356,-0.00006326
 ,0.00000680,-0.00013910,-0.00092532,0.00015716,0.00037567,0.00022577,0
 .00004920,0.00008251,0.00026681,0.00030094,-0.00060518,0.00065581,-0.0
 0055463,0.00009906,0.30108072,-0.00002942,0.00053723,0.00016218,-0.000
 06198,-0.00033980,-0.00000845,-0.00002383,0.00033705,-0.00001599,0.000
 08221,-0.00079920,-0.00012544,-0.00075644,-0.00476003,-0.00394883,-0.0
 2641152,-0.00230438,0.00979456,-0.02292265,-0.04809297,0.00796299,0.02
 838732,0.00319881,-0.00990120,0.00133903,-0.00554137,0.00232195,-0.000
 02495,0.00003152,-0.00003069,-0.00001008,0.00012838,0.00001256,-0.0016
 8255,0.00009484,0.00030836,0.00042512,0.00001161,-0.00003913,0.0007235
 7,0.00102626,-0.00012683,0.00065378,0.00057443,0.00079736,0.02475246,0
 .05506452,0.00003774,0.00018394,0.00010189,-0.00007928,-0.00007940,-0.
 00015286,0.00001888,-0.00001991,0.00003212,0.00011653,-0.00011594,0.00
 010132,-0.00009045,-0.00223594,-0.00126463,-0.01597759,-0.00153592,0.0
 0423554,0.07474727,0.00800991,-0.07313799,-0.00816123,-0.00044338,0.00
 145048,-0.00000924,0.00086666,0.00010714,-0.00000421,-0.00000040,0.000
 00579,0.00001808,0.00001775,-0.00000706,-0.00063881,-0.00019008,0.0005
 2693,-0.00037956,-0.00015796,0.00039809,0.00010067,0.00077185,0.000584
 30,0.00061913,0.00062655,0.00029912,-0.08042128,-0.00759308,0.07484304
 ,0.00005820,0.00002350,0.00001986,-0.00008866,-0.00002092,0.00012797,0
 .00003243,-0.00003839,0.00001729,-0.00019475,0.00000568,-0.00011892,0.
 00078276,0.00062185,-0.00119674,-0.00066779,0.00165436,-0.01406564,-0.
 04952916,-0.00034705,0.00060647,-0.00084621,0.00294526,-0.01711601,0.0
 0103753,-0.00026143,-0.00134347,0.00000304,0.00001576,-0.00000036,0.00
 005500,-0.00003539,0.00032076,0.00009616,0.00001392,0.00025869,-0.0001
 4169,-0.00026695,0.00035854,-0.00050507,-0.00223721,-0.00165896,0.0003
 5535,0.00029118,0.00062170,0.00027862,-0.00426829,0.03032825,0.0499366
 1,0.00003269,0.00001008,0.00001182,-0.00000632,0.00006364,0.00003127,0
 .00000099,0.00001654,-0.00003358,0.00001064,-0.00013408,-0.00006708,0.
 00136648,0.00114056,-0.00015416,-0.00104920,0.00198054,-0.02864815,-0.
 00008383,-0.04940861,0.03557511,0.00126132,-0.00648123,0.02992670,-0.0
 0157358,0.00106068,0.00023371,-0.00000352,-0.00000188,0.00000744,-0.00
 000956,-0.00009486,-0.00001651,0.00028524,-0.00007859,0.00023956,-0.00
 021066,-0.00002934,0.00065545,-0.00289817,-0.00398065,-0.00265321,0.00
 074616,0.00099255,0.00048837,-0.00004064,-0.00135417,0.00283460,-0.000
 64870,0.05980837,-0.00008212,0.00001578,0.00007515,-0.00002883,-0.0000
 3025,-0.00006616,-0.00010016,0.00001424,0.00003915,-0.00008710,-0.0000
 6905,0.00028033,0.00095643,0.00089613,0.00046619,-0.00031345,0.0011349
 8,-0.01678643,-0.00126013,0.03552451,-0.29318506,-0.00007851,0.0017464
 4,-0.00811000,0.00064124,-0.00058913,0.00031171,-0.00000946,0.00000066
 ,-0.00001316,0.00011865,-0.00002510,0.00014880,0.00004541,-0.00015618,
 0.00042637,-0.00083269,-0.00003110,0.00056798,-0.00128786,-0.00299607,
 -0.00006688,0.00031230,-0.00046278,0.00057810,0.00071972,0.00123706,-0
 .00937090,0.00266045,-0.03815556,0.32227653,-0.00014291,-0.00036423,-0
 .00044552,-0.00032910,0.00008316,0.00002928,0.00009629,0.00014426,-0.0
 0014667,0.00168910,0.00088844,0.00122934,-0.00020285,-0.00004150,0.000
 01873,0.00026498,-0.00105450,0.00014655,-0.00058071,0.00456107,-0.0185
 4460,-0.04510726,-0.00330828,0.01049648,-0.00312525,-0.00585080,0.0336
 2057,0.00001010,-0.00003083,-0.00000595,-0.00024156,-0.00012235,-0.001
 04072,0.00004188,-0.00007454,-0.00002471,-0.00007470,0.00006428,-0.000
 12510,0.00020266,-0.00000025,0.00048421,-0.00013363,-0.00018898,0.0000
 8704,0.00037219,-0.00080859,-0.00004738,-0.00112787,0.00355292,-0.0006
 0522,0.05308380,0.00000112,-0.00007004,-0.00005295,-0.00003625,0.00004
 103,-0.00019336,0.00006871,-0.00005229,0.00002511,-0.00005515,-0.00000
 178,0.00107526,-0.00009035,-0.00028930,-0.00006773,-0.00014881,0.00160
 229,0.00147920,-0.00037820,-0.00693671,0.02876448,-0.00338994,-0.05590
 222,0.04099148,0.00010507,-0.00066443,0.00237708,0.00000002,-0.0000076
 8,0.00001174,-0.00020958,0.00008143,-0.00030133,-0.00006639,-0.0000185
 2,-0.00003248,0.00010631,0.00004644,-0.00019530,-0.00004522,-0.0002762
 5,-0.00077910,0.00010323,0.00035192,-0.00039661,-0.00018835,0.00105575
 ,-0.00060899,0.00302821,-0.00454285,0.00148310,0.00008241,0.06006098,0
 .00009009,-0.00026435,-0.00021478,0.00007600,0.00008155,0.00117548,0.0
 0008225,0.00016598,-0.00007983,-0.00104158,-0.00056505,-0.00029502,0.0
 0007738,0.00014328,0.00026027,0.00021933,-0.00070701,0.00053544,-0.000
 16024,0.00151390,-0.00801781,0.01051387,0.04283026,-0.28992258,0.00148
 108,0.00137479,-0.01085802,0.00000875,0.00003335,-0.00004269,0.0001715
 5,0.00048458,0.00093474,0.00000236,0.00011911,-0.00000778,-0.00013689,
 -0.00016472,-0.00000660,0.00039706,0.00061543,0.00043316,-0.00005048,0
 .00006895,0.00030468,-0.00068775,0.00021259,0.00043666,-0.00112596,0.0
 0110644,0.00111938,-0.01270826,-0.04843564,0.31788420,-0.00140016,-0.0
 0051762,0.00027508,0.00174372,-0.00177571,-0.00155186,-0.00027585,0.00
 037323,0.00006569,-0.00671223,0.00180697,0.00460375,-0.00024610,0.0005
 7285,-0.00003080,-0.00188841,0.00272055,-0.00128758,0.00745153,0.01483
 278,0.00936415,-0.08970171,-0.08310466,-0.05039041,-0.01325173,-0.0261
 3831,-0.01662447,-0.00002377,-0.00005592,-0.00003369,0.00013545,0.0003
 1978,-0.00008348,0.00009601,-0.00015935,-0.00007916,0.00006247,-0.0000
 6242,0.00007358,-0.00013632,-0.00013700,-0.00006882,0.00047449,0.00107
 391,0.00026697,0.00067391,-0.00081714,0.00046415,0.00047440,-0.0008432
 1,0.00002065,-0.00019431,0.00145838,0.00031215,0.10049066,-0.00054894,
 -0.00029681,-0.00001509,0.00107368,-0.00016793,-0.00026392,-0.00030737
 ,0.00038771,-0.00008047,-0.00121514,0.00114301,0.00099900,0.00054637,0
 .00059215,-0.00010228,0.00483202,-0.00351031,0.00281428,-0.01233768,-0
 .02190012,-0.01393886,-0.08193506,-0.19942484,-0.09171686,-0.00081390,
 -0.00175984,-0.00091508,0.00000262,-0.00004112,-0.00002199,0.00001191,
 0.00002256,-0.00014404,-0.00007893,0.00007366,-0.00001334,-0.00005387,
 -0.00002523,0.00007790,0.00012375,0.00026744,-0.00008581,-0.00088119,-
 0.00160880,-0.00075687,0.00047839,0.00090849,-0.00038702,-0.00049977,0
 .00082363,0.00058907,0.00270324,0.00443428,0.00184566,0.08945947,0.219
 62017,-0.00015320,-0.00047739,-0.00036828,0.00079960,0.00038683,0.0010
 8834,-0.00016582,0.00031196,-0.00020563,0.00061286,-0.00058446,-0.0005
 4328,-0.00002936,0.00002354,0.00000482,-0.00062470,0.00074523,0.000231
 04,0.00346923,0.00734383,0.00292135,-0.05035556,-0.09312475,-0.1051550
 5,0.00495578,0.00901350,0.00449309,0.00003076,-0.00002623,-0.00001120,
 0.00023358,0.00023205,0.00056175,-0.00001602,-0.00001248,-0.00004930,-
 0.00002896,-0.00003055,0.00000035,0.00008585,0.00038793,0.00040307,-0.
 00006971,0.00017997,0.00040178,0.00032353,-0.00059247,-0.00005088,0.00
 054864,-0.00033489,0.00060920,-0.01305475,-0.02491914,-0.01495401,0.05
 475043,0.10151387,0.11002933,0.00021381,0.00086890,0.00105696,-0.00018
 612,-0.00049872,-0.00179996,-0.00008098,-0.00034032,0.00035070,0.00010
 747,0.00101685,-0.01565803,0.00011558,0.00074101,0.00063825,-0.0002389
 0,0.00009576,0.00004686,0.00175035,-0.00082901,0.00092154,-0.00446422,
 -0.00372946,0.03272302,-0.04565393,0.00167875,0.01241965,-0.00011805,0
 .00005330,0.00009570,-0.00091480,-0.00265521,-0.00028881,-0.00005127,0
 .00006372,0.00014548,0.00025248,-0.00004157,0.00033189,-0.00004970,-0.
 00006634,-0.00018284,0.00004533,0.00007098,-0.00002274,0.00026708,-0.0
 0026855,-0.00048319,-0.00015200,0.00039087,-0.00074561,-0.00576119,-0.
 00030655,0.00220716,0.00134668,-0.00016440,-0.00058264,0.05264600,0.00
 017478,0.00033153,0.00079505,0.00045262,0.00035018,-0.00078663,0.00007
 936,-0.00027494,0.00004760,0.00031129,0.00103341,-0.02743581,0.0001805
 3,0.00176123,-0.00102598,-0.00002320,-0.00012057,-0.00009215,0.0002780
 1,0.00025830,-0.00082531,-0.00070039,-0.00159797,0.00364200,0.00163308
 ,-0.04991160,0.02899422,0.00008533,0.00004343,0.00006667,-0.00236675,-
 0.00352463,-0.00184426,-0.00017680,0.00022694,0.00035313,0.00001551,-0
 .00040333,0.00047202,-0.00003255,-0.00006946,0.00014255,0.00004469,-0.
 00000216,0.00002596,-0.00003996,-0.00004580,-0.00000863,0.00010065,0.0
 0025510,-0.00014946,-0.00080298,0.00087240,-0.00012543,0.00016123,-0.0
 0004860,0.00021650,0.00272159,0.05358944,0.00009407,0.00004213,0.00079
 566,0.00215496,0.00119913,0.00046420,-0.00079328,0.00009062,0.00007728
 ,-0.00151854,0.00023363,-0.01798896,0.00016890,0.00108554,0.00014958,0
 .00006671,-0.00023575,0.00014873,-0.00064616,-0.00000702,0.00020651,0.
 00045984,0.00122211,-0.00841895,0.01277588,0.02843257,-0.29100502,-0.0
 0003244,0.00000938,-0.00002241,-0.00095995,-0.00343992,-0.00147449,-0.
 00012736,-0.00003899,0.00032812,0.00041941,-0.00068928,0.00061102,-0.0
 0016108,0.00015732,0.00009225,0.00009588,-0.00007300,-0.00000870,0.000
 06994,-0.00007727,0.00040712,0.00048103,-0.00070164,0.00033557,0.00124
 691,0.00021165,0.00083939,0.00053289,0.00037944,0.00049544,-0.01456876
 ,-0.02862429,0.32168296,0.00023363,0.00092306,0.00015248,0.00090337,-0
 .00107213,0.00058296,-0.00250785,0.00004772,-0.00042507,0.00795279,-0.
 01131870,0.00428684,-0.00150326,-0.00275656,-0.00131768,-0.00007310,-0
 .00029450,-0.00010656,-0.00548382,-0.00249485,0.00256655,-0.01619765,0
 .02567818,-0.00815832,-0.11602429,0.11481526,-0.03300979,-0.00008025,-
 0.00005293,-0.00019943,0.00042930,0.00055853,0.00012845,0.00059116,-0.
 00093688,-0.00014180,-0.00009312,0.00018463,-0.00009354,0.00003726,0.0
 0006414,0.00004056,0.00010358,0.00007872,0.00000264,-0.00112198,0.0017
 2253,-0.00015847,0.00014312,-0.00027992,-0.00004372,0.00126035,-0.0000
 3866,0.00027211,0.00088128,-0.00039519,-0.00072955,0.00092638,-0.00209
 604,0.00024117,0.12962310,-0.00089378,0.00042044,-0.00028047,0.0027787
 0,-0.00157355,0.00075032,0.00022152,0.00210012,-0.00024198,0.01278148,
 -0.02350257,0.00753558,-0.00390699,-0.00308152,-0.00348889,-0.00061039
 ,0.00021174,0.00019499,-0.00120796,0.00088251,0.00022261,-0.00363247,0
 .00499156,-0.00177217,0.11318726,-0.22545983,0.05463471,-0.00000229,0.
 00037581,-0.00029245,0.00014211,0.00107424,-0.00015334,0.00118647,-0.0
 0154500,0.00019558,-0.00014549,0.00033171,0.00002579,0.00008655,0.0000
 2109,-0.00011442,0.00016959,0.00007645,0.00004736,-0.00034025,0.000268
 83,0.00006539,-0.00007626,-0.00004544,0.00002270,0.00056805,0.00021555
 ,-0.00033367,0.00083217,0.00051051,-0.00025284,0.00119838,-0.00272287,
 0.00082365,-0.12233642,0.24645023,0.00039604,0.00043894,0.00008273,-0.
 00037474,0.00033549,-0.00011863,0.00012209,-0.00039555,-0.00022375,0.0
 0765113,-0.01311442,0.00360119,-0.00168596,-0.00182870,-0.00079445,-0.
 00011794,0.00017551,0.00004672,0.00168943,0.00063345,-0.00020411,0.006
 15101,-0.00947815,0.00139258,-0.03369308,0.05625429,-0.06460602,0.0000
 2725,-0.00013187,0.00000741,0.00059858,0.00044504,0.00017171,0.0002171
 5,-0.00071751,0.00032225,0.00013864,-0.00034983,0.00026844,-0.00000103
 ,0.00002875,-0.00003354,-0.00003857,0.00004071,-0.00003785,0.00032752,
 -0.00035022,0.00045479,0.00027639,-0.00034568,0.00036413,-0.00061022,-
 0.00043647,0.00047573,-0.00057923,0.00022240,0.00009807,-0.01660462,0.
 02616226,-0.00771530,0.03611014,-0.05758844,0.06644790\\0.00000059,-0.
 00000941,0.00000673,0.00005898,-0.00003885,-0.00000908,-0.00002327,0.0
 0003836,0.00000027,-0.00004880,-0.00001796,0.00000513,0.00000643,0.000
 00785,0.00000631,0.00000060,0.00001016,0.00000077,-0.00000920,0.000009
 29,0.00000373,0.00000019,-0.00000244,0.00000701,-0.00000758,0.00000568
 ,0.00000623,0.00000144,-0.00001925,-0.00000321,0.00001593,-0.00000205,
 -0.00000826,0.00000273,-0.00000353,-0.00000294,0.00000562,-0.00000609,
 -0.00000026,0.00000235,0.00000157,0.00000012,0.00000842,0.00000529,0.0
 0000320,0.00000120,0.00000528,-0.00000544,0.00000490,0.00000553,0.0000
 0144,-0.00000742,0.00000236,-0.00000483,-0.00000633,0.00000360,-0.0000
 0244,-0.00000084,0.00000641,0.00000065,-0.00000593,-0.00000179,-0.0000
 0513\\\@
 The archive entry for this job was punched.


 IF THERE IS ONE WAY BETTER THAN ANOTHER IT IS THE WAY OF NATURE.

                          -- ARISTOTLE
 Job cpu time:       0 days  3 hours 42 minutes  7.5 seconds.
 Elapsed time:       0 days  0 hours 27 minutes 59.7 seconds.
 File lengths (MBytes):  RWF=    402 Int=      0 D2E=      0 Chk=     15 Scr=      1
 Normal termination of Gaussian 16 at Mon Jan 29 14:05:44 2024.
