Job Start Time: Wed May  8 18:58:04 MDT 2024
SLURM Job ID: 265085
SLURM Job Name: Ac2_rdkit_conf_3_qzvpp
 Entering Gaussian System, Link 0=/opt/apps/Gaussian/G16C/g16/g16
 Initial command:
 /opt/apps/Gaussian/G16C/g16/l1.exe "/tmp/Gau-1275861.inp" -scrdir="/tmp/"
 Entering Link 1 = /opt/apps/Gaussian/G16C/g16/l1.exe PID=   1275868.
  
 Copyright (c) 1988-2019, Gaussian, Inc.  All Rights Reserved.
  
 This is part of the Gaussian(R) 16 program.  It is based on
 the Gaussian(R) 09 system (copyright 2009, Gaussian, Inc.),
 the Gaussian(R) 03 system (copyright 2003, Gaussian, Inc.),
 the Gaussian(R) 98 system (copyright 1998, Gaussian, Inc.),
 the Gaussian(R) 94 system (copyright 1995, Gaussian, Inc.),
 the Gaussian 92(TM) system (copyright 1992, Gaussian, Inc.),
 the Gaussian 90(TM) system (copyright 1990, Gaussian, Inc.),
 the Gaussian 88(TM) system (copyright 1988, Gaussian, Inc.),
 the Gaussian 86(TM) system (copyright 1986, Carnegie Mellon
 University), and the Gaussian 82(TM) system (copyright 1983,
 Carnegie Mellon University). Gaussian is a federally registered
 trademark of Gaussian, Inc.
  
 This software contains proprietary and confidential information,
 including trade secrets, belonging to Gaussian, Inc.
  
 This software is provided under written license and may be
 used, copied, transmitted, or stored only in accord with that
 written license.
  
 The following legend is applicable only to US Government
 contracts under FAR:
  
                    RESTRICTED RIGHTS LEGEND
  
 Use, reproduction and disclosure by the US Government is
 subject to restrictions as set forth in subparagraphs (a)
 and (c) of the Commercial Computer Software - Restricted
 Rights clause in FAR 52.227-19.
  
 Gaussian, Inc.
 340 Quinnipiac St., Bldg. 40, Wallingford CT 06492
  
  
 ---------------------------------------------------------------
 Warning -- This program may not be used in any manner that
 competes with the business of Gaussian, Inc. or will provide
 assistance to any competitor of Gaussian, Inc.  The licensee
 of this program is prohibited from giving any competitor of
 Gaussian, Inc. access to this program.  By using this program,
 the user acknowledges that Gaussian, Inc. is engaged in the
 business of creating and licensing software in the field of
 computational chemistry and represents and warrants to the
 licensee that it is not a competitor of Gaussian, Inc. and that
 it will not use this program in any manner prohibited above.
 ---------------------------------------------------------------
  

 Cite this work as:
 Gaussian 16, Revision C.01,
 M. J. Frisch, G. W. Trucks, H. B. Schlegel, G. E. Scuseria, 
 M. A. Robb, J. R. Cheeseman, G. Scalmani, V. Barone, 
 G. A. Petersson, H. Nakatsuji, X. Li, M. Caricato, A. V. Marenich, 
 J. Bloino, B. G. Janesko, R. Gomperts, B. Mennucci, H. P. Hratchian, 
 J. V. Ortiz, A. F. Izmaylov, J. L. Sonnenberg, D. Williams-Young, 
 F. Ding, F. Lipparini, F. Egidi, J. Goings, B. Peng, A. Petrone, 
 T. Henderson, D. Ranasinghe, V. G. Zakrzewski, J. Gao, N. Rega, 
 G. Zheng, W. Liang, M. Hada, M. Ehara, K. Toyota, R. Fukuda, 
 J. Hasegawa, M. Ishida, T. Nakajima, Y. Honda, O. Kitao, H. Nakai, 
 T. Vreven, K. Throssell, J. A. Montgomery, Jr., J. E. Peralta, 
 F. Ogliaro, M. J. Bearpark, J. J. Heyd, E. N. Brothers, K. N. Kudin, 
 V. N. Staroverov, T. A. Keith, R. Kobayashi, J. Normand, 
 K. Raghavachari, A. P. Rendell, J. C. Burant, S. S. Iyengar, 
 J. Tomasi, M. Cossi, J. M. Millam, M. Klene, C. Adamo, R. Cammi, 
 J. W. Ochterski, R. L. Martin, K. Morokuma, O. Farkas, 
 J. B. Foresman, and D. J. Fox, Gaussian, Inc., Wallingford CT, 2019.
 
 ******************************************
 Gaussian 16:  AS64L-G16RevC.01  3-Jul-2019
                 8-May-2024 
 ******************************************
 %nprocshared=8
 Will use up to    8 processors via shared memory.
 %mem=32GB
 ------------------
 # wb97xd/def2qzvpp
 ------------------
 1/38=1,172=1/1;
 2/12=2,17=6,18=5,40=1/2;
 3/5=45,7=202,11=2,25=1,30=1,74=-58/1,2,3;
 4//1;
 5/5=2,38=5/2;
 6/7=2,8=2,9=2,10=2,28=1/1;
 99/5=1,9=1/99;
 ----------------------
 Ac2_rdkit_conf_3_qzvpp
 ----------------------
 Symbolic Z-matrix:
 Charge =  0 Multiplicity = 1
 C                    -3.32579   0.42664  -1.15487 
 C                    -2.36348   0.18188  -0.00299 
 C                    -2.90279  -0.89905   0.92336 
 C                    -2.07201   1.48141   0.7349 
 O                    -1.16277  -0.28981  -0.68021 
 C                    -0.06294  -0.58546   0.01857 
 O                     0.05766  -0.5506    1.21871 
 N                     0.93821  -0.98466  -0.83046 
 C                     2.27083  -1.02854  -0.30572 
 C                     2.86216   0.35332  -0.10027 
 O                     2.34992   1.38077  -0.43495 
 O                     4.0628    0.28047   0.49495 
 H                    -3.49378  -0.49572  -1.71132 
 H                    -2.9205    1.17627  -1.83479 
 H                    -4.28114   0.78275  -0.76938 
 H                    -3.03922  -1.83064   0.37211 
 H                    -2.22978  -1.07298   1.75915 
 H                    -3.87328  -0.58477   1.31022 
 H                    -1.6043    2.19801   0.0582 
 H                    -3.01141   1.90638   1.09149 
 H                    -1.41466   1.31508   1.58449 
 H                     0.81845  -0.70633  -1.79139 
 H                     2.92539  -1.5863   -0.97624 
 H                     2.26794  -1.54182   0.6549 
 H                     4.39204   1.18483   0.59991 
 
                          Input orientation:                          
 ---------------------------------------------------------------------
 Center     Atomic      Atomic             Coordinates (Angstroms)
 Number     Number       Type             X           Y           Z
 ---------------------------------------------------------------------
      1          6           0       -3.325794    0.426639   -1.154869
      2          6           0       -2.363483    0.181884   -0.002987
      3          6           0       -2.902789   -0.899045    0.923361
      4          6           0       -2.072009    1.481407    0.734896
      5          8           0       -1.162769   -0.289814   -0.680205
      6          6           0       -0.062942   -0.585461    0.018567
      7          8           0        0.057659   -0.550600    1.218707
      8          7           0        0.938212   -0.984658   -0.830464
      9          6           0        2.270833   -1.028544   -0.305715
     10          6           0        2.862164    0.353320   -0.100272
     11          8           0        2.349923    1.380774   -0.434947
     12          8           0        4.062798    0.280470    0.494949
     13          1           0       -3.493776   -0.495720   -1.711324
     14          1           0       -2.920499    1.176266   -1.834787
     15          1           0       -4.281143    0.782752   -0.769384
     16          1           0       -3.039221   -1.830635    0.372107
     17          1           0       -2.229781   -1.072977    1.759152
     18          1           0       -3.873282   -0.584770    1.310216
     19          1           0       -1.604300    2.198013    0.058197
     20          1           0       -3.011408    1.906383    1.091490
     21          1           0       -1.414661    1.315077    1.584493
     22          1           0        0.818448   -0.706333   -1.791391
     23          1           0        2.925385   -1.586302   -0.976243
     24          1           0        2.267938   -1.541817    0.654899
     25          1           0        4.392044    1.184829    0.599911
 ---------------------------------------------------------------------
                    Distance matrix (angstroms):
                    1          2          3          4          5
     1  C    0.000000
     2  C    1.520783   0.000000
     3  C    2.501082   1.522294   0.000000
     4  C    2.501145   1.522560   2.528293   0.000000
     5  O    2.327507   1.456996   2.443411   2.442632   0.000000
     6  C    3.612133   2.425236   2.996951   2.970088   1.336155
     7  O    4.246953   2.809092   2.995479   2.983054   2.272294
     8  N    4.503193   3.598156   4.223330   4.194432   2.217996
     9  C    5.844729   4.799340   5.319188   5.122792   3.532080
    10  C    6.277609   5.229363   5.987564   5.129927   4.117041
    11  O    5.800209   4.882635   5.885028   4.575166   3.897438
    12  O    7.571959   6.446297   7.077725   6.255852   5.386350
    13  H    1.090232   2.157574   2.730110   3.451731   2.557185
    14  H    1.090180   2.157441   3.451755   2.723292   2.563604
    15  H    1.090003   2.150773   2.755664   2.762472   3.298880
    16  H    2.740267   2.155818   1.091034   3.469400   2.646235
    17  H    3.455664   2.167415   1.087078   2.756605   2.775306
    18  H    2.720172   2.142838   1.091001   2.800833   3.375745
    19  H    2.751879   2.155198   3.467903   1.090962   2.632389
    20  H    2.708248   2.142798   2.812560   1.090979   3.373374
    21  H    3.456278   2.168982   2.748446   1.087008   2.787110
    22  H    4.343216   3.756595   4.610273   4.418492   2.309425
    23  H    6.569709   5.660904   6.168341   6.108419   4.299014
    24  H    6.199993   4.985381   5.217437   5.289747   3.888414
    25  H    7.951046   6.856131   7.593533   6.472261   5.888057
                    6          7          8          9         10
     6  C    0.000000
     7  O    1.206688   0.000000
     8  N    1.372050   2.272198   0.000000
     9  C    2.397496   2.729548   1.432887   0.000000
    10  C    3.074358   3.228316   2.454579   1.517046   0.000000
    11  O    3.145421   3.423339   2.782918   2.414077   1.195851
    12  O    4.242465   4.153991   3.622196   2.359178   1.342057
    13  H    3.843332   4.604431   4.545051   5.957378   6.611681
    14  H    3.834610   4.601665   4.535186   5.843730   6.093027
    15  H    4.504009   4.955354   5.510820   6.813529   7.187417
    16  H    3.245564   3.456282   4.240498   5.412898   6.310241
    17  H    2.821790   2.407767   4.092687   4.951886   5.605326
    18  H    4.023313   3.932154   5.281373   6.368541   6.945194
    19  H    3.181993   3.415225   4.169350   5.055666   4.835008
    20  H    4.006732   3.933462   5.258472   6.202262   6.191216
    21  H    2.809148   2.404636   4.081276   4.759024   4.696237
    22  H    2.016781   3.108656   1.007566   2.102493   2.856488
    23  H    3.304758   3.756905   2.081366   1.090477   2.129191
    24  H    2.598564   2.487112   2.070000   1.089145   2.124837
    25  H    4.828953   4.709726   4.322222   3.196672   1.876752
                   11         12         13         14         15
    11  O    0.000000
    12  O    2.238150   0.000000
    13  H    6.268906   7.910242   0.000000
    14  H    5.456989   7.415966   1.771843   0.000000
    15  H    6.666372   8.454122   1.772481   1.772368   0.000000
    16  H    6.325137   7.410164   2.515811   3.731746   3.110492
    17  H    5.639916   6.559465   3.738330   4.295647   3.747707
    18  H    6.755534   8.024629   3.046581   3.728282   2.522143
    19  H    4.067794   5.998643   3.735977   2.521852   3.139003
    20  H    5.599120   7.283121   3.722707   3.017355   2.517464
    21  H    4.272534   5.679795   4.296989   3.738755   3.747109
    22  H    2.922563   4.089858   4.318107   4.186381   5.409963
    23  H    3.070456   2.634948   6.552506   6.522518   7.588758
    24  H    3.120260   2.562779   6.315907   6.364463   7.093847
    25  H    2.297734   0.968135   8.387622   7.707212   8.789813
                   16         17         18         19         20
    16  H    0.000000
    17  H    1.775706   0.000000
    18  H    1.768583   1.772282   0.000000
    19  H    4.288070   3.739499   3.802593   0.000000
    20  H    3.805731   3.151714   2.645092   1.769942   0.000000
    21  H    3.742269   2.529373   3.119209   1.773448   1.772652
    22  H    4.563594   4.693877   5.625573   4.210215   5.459403
    23  H    6.119989   5.858466   7.242433   5.992425   7.191653
    24  H    5.322530   4.654961   6.249797   5.416328   6.320774
    25  H    8.023006   7.091551   8.482431   6.105419   7.454756
                   21         22         23         24         25
    21  H    0.000000
    22  H    4.524320   0.000000
    23  H    5.814754   2.424458   0.000000
    24  H    4.752633   2.963678   1.759216   0.000000
    25  H    5.891026   4.697383   3.509205   3.456797   0.000000
 Stoichiometry    C7H13NO4
 Framework group  C1[X(C7H13NO4)]
 Deg. of freedom    69
 Full point group                 C1      NOp   1
 Largest Abelian subgroup         C1      NOp   1
 Largest concise Abelian subgroup C1      NOp   1
                         Standard orientation:                         
 ---------------------------------------------------------------------
 Center     Atomic      Atomic             Coordinates (Angstroms)
 Number     Number       Type             X           Y           Z
 ---------------------------------------------------------------------
      1          6           0       -3.325794    0.426639   -1.154869
      2          6           0       -2.363483    0.181884   -0.002987
      3          6           0       -2.902789   -0.899045    0.923361
      4          6           0       -2.072009    1.481407    0.734896
      5          8           0       -1.162769   -0.289814   -0.680205
      6          6           0       -0.062942   -0.585461    0.018567
      7          8           0        0.057659   -0.550600    1.218707
      8          7           0        0.938212   -0.984658   -0.830464
      9          6           0        2.270833   -1.028544   -0.305715
     10          6           0        2.862164    0.353320   -0.100272
     11          8           0        2.349923    1.380774   -0.434947
     12          8           0        4.062798    0.280470    0.494949
     13          1           0       -3.493776   -0.495720   -1.711324
     14          1           0       -2.920499    1.176266   -1.834787
     15          1           0       -4.281143    0.782752   -0.769384
     16          1           0       -3.039221   -1.830635    0.372107
     17          1           0       -2.229781   -1.072977    1.759152
     18          1           0       -3.873282   -0.584770    1.310216
     19          1           0       -1.604300    2.198013    0.058197
     20          1           0       -3.011408    1.906383    1.091490
     21          1           0       -1.414661    1.315077    1.584493
     22          1           0        0.818448   -0.706333   -1.791391
     23          1           0        2.925385   -1.586302   -0.976243
     24          1           0        2.267938   -1.541817    0.654899
     25          1           0        4.392044    1.184829    0.599911
 ---------------------------------------------------------------------
 Rotational constants (GHZ):           2.1507477           0.4526393           0.4406444
 Standard basis: def2QZVPP (5D, 7F)
 There are  1319 symmetry adapted cartesian basis functions of A   symmetry.
 There are  1074 symmetry adapted basis functions of A   symmetry.
  1074 basis functions,  1598 primitive gaussians,  1319 cartesian basis functions
    47 alpha electrons       47 beta electrons
       nuclear repulsion energy       765.6820285258 Hartrees.
 NAtoms=   25 NActive=   25 NUniq=   25 SFac= 1.00D+00 NAtFMM=   60 NAOKFM=F Big=F
 Integral buffers will be    131072 words long.
 Raffenetti 2 integral format.
 Two-electron integral symmetry is turned on.
 Nuclear repulsion after empirical dispersion term =      765.6668171244 Hartrees.
 One-electron integrals computed using PRISM.
   1 Symmetry operations used in ECPInt.
 ECPInt:  NShTT=   55945 NPrTT=  134449 LenC2=   48278 LenP2D=   89455.
 LDataN:  DoStor=T MaxTD1= 8 Len=  415
 NBasis=  1074 RedAO= T EigKep=  2.80D-05  NBF=  1074
 NBsUse=  1074 1.00D-06 EigRej= -1.00D+00 NBFU=  1074
 ExpMin= 7.60D-02 ExpMax= 1.17D+05 ExpMxC= 1.13D+03 IAcc=3 IRadAn=         5 AccDes= 0.00D+00
 Harris functional with IExCor= 4639 and IRadAn=       5 diagonalized for initial guess.
 HarFok:  IExCor= 4639 AccDes= 0.00D+00 IRadAn=         5 IDoV= 1 UseB2=F ITyADJ=14
 ICtDFT=  3500011 ScaDFX=  1.000000  1.000000  1.000000  1.000000
 FoFCou: FMM=F IPFlag=           0 FMFlag=      100000 FMFlg1=           0
         NFxFlg=           0 DoJE=T BraDBF=F KetDBF=T FulRan=T
         wScrn=  0.000000 ICntrl=       500 IOpCl=  0 I1Cent=   200000004 NGrid=           0
         NMat0=    1 NMatS0=      1 NMatT0=    0 NMatD0=    1 NMtDS0=    0 NMtDT0=    0
 Petite list used in FoFCou.
 Requested convergence on RMS density matrix=1.00D-08 within 128 cycles.
 Requested convergence on MAX density matrix=1.00D-06.
 Requested convergence on             energy=1.00D-06.
 No special actions if energy rises.
 Integral accuracy reduced to 1.0D-05 until final iterations.
 Initial convergence to 1.0D-05 achieved.  Increase integral accuracy.
 SCF Done:  E(RwB97XD) =  -630.377047717     A.U. after   16 cycles
            NFock= 16  Conv=0.89D-08     -V/T= 2.0044

 **********************************************************************

            Population analysis using the SCF Density.

 **********************************************************************

 Orbital symmetries:
       Occupied  (A) (A) (A) (A) (A) (A) (A) (A) (A) (A) (A) (A)
                 (A) (A) (A) (A) (A) (A) (A) (A) (A) (A) (A) (A)
                 (A) (A) (A) (A) (A) (A) (A) (A) (A) (A) (A) (A)
                 (A) (A) (A) (A) (A) (A) (A) (A) (A) (A) (A)
       Virtual   (A) (A) (A) (A) (A) (A) (A) (A) (A) (A) (A) (A)
                 (A) (A) (A) (A) (A) (A) (A) (A) (A) (A) (A) (A)
                 (A) (A) (A) (A) (A) (A) (A) (A) (A) (A) (A) (A)
                 (A) (A) (A) (A) (A) (A) (A) (A) (A) (A) (A) (A)
                 (A) (A) (A) (A) (A) (A) (A) (A) (A) (A) (A) (A)
                 (A) (A) (A) (A) (A) (A) (A) (A) (A) (A) (A) (A)
                 (A) (A) (A) (A) (A) (A) (A) (A) (A) (A) (A) (A)
                 (A) (A) (A) (A) (A) (A) (A) (A) (A) (A) (A) (A)
                 (A) (A) (A) (A) (A) (A) (A) (A) (A) (A) (A) (A)
                 (A) (A) (A) (A) (A) (A) (A) (A) (A) (A) (A) (A)
                 (A) (A) (A) (A) (A) (A) (A) (A) (A) (A) (A) (A)
                 (A) (A) (A) (A) (A) (A) (A) (A) (A) (A) (A) (A)
                 (A) (A) (A) (A) (A) (A) (A) (A) (A) (A) (A) (A)
                 (A) (A) (A) (A) (A) (A) (A) (A) (A) (A) (A) (A)
                 (A) (A) (A) (A) (A) (A) (A) (A) (A) (A) (A) (A)
                 (A) (A) (A) (A) (A) (A) (A) (A) (A) (A) (A) (A)
                 (A) (A) (A) (A) (A) (A) (A) (A) (A) (A) (A) (A)
                 (A) (A) (A) (A) (A) (A) (A) (A) (A) (A) (A) (A)
                 (A) (A) (A) (A) (A) (A) (A) (A) (A) (A) (A) (A)
                 (A) (A) (A) (A) (A) (A) (A) (A) (A) (A) (A) (A)
                 (A) (A) (A) (A) (A) (A) (A) (A) (A) (A) (A) (A)
                 (A) (A) (A) (A) (A) (A) (A) (A) (A) (A) (A) (A)
                 (A) (A) (A) (A) (A) (A) (A) (A) (A) (A) (A) (A)
                 (A) (A) (A) (A) (A) (A) (A) (A) (A) (A) (A) (A)
                 (A) (A) (A) (A) (A) (A) (A) (A) (A) (A) (A) (A)
                 (A) (A) (A) (A) (A) (A) (A) (A) (A) (A) (A) (A)
                 (A) (A) (A) (A) (A) (A) (A) (A) (A) (A) (A) (A)
                 (A) (A) (A) (A) (A) (A) (A) (A) (A) (A) (A) (A)
                 (A) (A) (A) (A) (A) (A) (A) (A) (A) (A) (A) (A)
                 (A) (A) (A) (A) (A) (A) (A) (A) (A) (A) (A) (A)
                 (A) (A) (A) (A) (A) (A) (A) (A) (A) (A) (A) (A)
                 (A) (A) (A) (A) (A) (A) (A) (A) (A) (A) (A) (A)
                 (A) (A) (A) (A) (A) (A) (A) (A) (A) (A) (A) (A)
                 (A) (A) (A) (A) (A) (A) (A) (A) (A) (A) (A) (A)
                 (A) (A) (A) (A) (A) (A) (A) (A) (A) (A) (A) (A)
                 (A) (A) (A) (A) (A) (A) (A) (A) (A) (A) (A) (A)
                 (A) (A) (A) (A) (A) (A) (A) (A) (A) (A) (A) (A)
                 (A) (A) (A) (A) (A) (A) (A) (A) (A) (A) (A) (A)
                 (A) (A) (A) (A) (A) (A) (A) (A) (A) (A) (A) (A)
                 (A) (A) (A) (A) (A) (A) (A) (A) (A) (A) (A) (A)
                 (A) (A) (A) (A) (A) (A) (A) (A) (A) (A) (A) (A)
                 (A) (A) (A) (A) (A) (A) (A) (A) (A) (A) (A) (A)
                 (A) (A) (A) (A) (A) (A) (A) (A) (A) (A) (A) (A)
                 (A) (A) (A) (A) (A) (A) (A) (A) (A) (A) (A) (A)
                 (A) (A) (A) (A) (A) (A) (A) (A) (A) (A) (A) (A)
                 (A) (A) (A) (A) (A) (A) (A) (A) (A) (A) (A) (A)
                 (A) (A) (A) (A) (A) (A) (A) (A) (A) (A) (A) (A)
                 (A) (A) (A) (A) (A) (A) (A) (A) (A) (A) (A) (A)
                 (A) (A) (A) (A) (A) (A) (A) (A) (A) (A) (A) (A)
                 (A) (A) (A) (A) (A) (A) (A) (A) (A) (A) (A) (A)
                 (A) (A) (A) (A) (A) (A) (A) (A) (A) (A) (A) (A)
                 (A) (A) (A) (A) (A) (A) (A) (A) (A) (A) (A) (A)
                 (A) (A) (A) (A) (A) (A) (A) (A) (A) (A) (A) (A)
                 (A) (A) (A) (A) (A) (A) (A) (A) (A) (A) (A) (A)
                 (A) (A) (A) (A) (A) (A) (A) (A) (A) (A) (A) (A)
                 (A) (A) (A) (A) (A) (A) (A) (A) (A) (A) (A) (A)
                 (A) (A) (A) (A) (A) (A) (A) (A) (A) (A) (A) (A)
                 (A) (A) (A) (A) (A) (A) (A) (A) (A) (A) (A) (A)
                 (A) (A) (A) (A) (A) (A) (A) (A) (A) (A) (A) (A)
                 (A) (A) (A) (A) (A) (A) (A) (A) (A) (A) (A) (A)
                 (A) (A) (A) (A) (A) (A) (A) (A) (A) (A) (A) (A)
                 (A) (A) (A) (A) (A) (A) (A) (A) (A) (A) (A) (A)
                 (A) (A) (A) (A) (A) (A) (A) (A) (A) (A) (A) (A)
                 (A) (A) (A) (A) (A) (A) (A) (A) (A) (A) (A) (A)
                 (A) (A) (A) (A) (A) (A) (A) (A) (A) (A) (A) (A)
                 (A) (A) (A) (A) (A) (A) (A) (A) (A) (A) (A) (A)
                 (A) (A) (A) (A) (A) (A) (A) (A) (A) (A) (A) (A)
                 (A) (A) (A) (A) (A) (A) (A) (A) (A) (A) (A) (A)
                 (A) (A) (A) (A) (A) (A) (A) (A) (A) (A) (A) (A)
                 (A) (A) (A) (A) (A) (A) (A) (A) (A) (A) (A) (A)
                 (A) (A) (A) (A) (A) (A) (A) (A) (A) (A) (A) (A)
                 (A) (A) (A) (A) (A) (A) (A) (A) (A) (A) (A) (A)
                 (A) (A) (A) (A) (A) (A) (A) (A) (A) (A) (A) (A)
                 (A) (A) (A) (A) (A) (A) (A) (A) (A) (A) (A) (A)
                 (A) (A) (A) (A) (A) (A) (A) (A) (A) (A) (A) (A)
                 (A) (A) (A) (A) (A) (A) (A) (A) (A) (A) (A) (A)
                 (A) (A) (A) (A) (A) (A) (A) (A) (A) (A) (A) (A)
                 (A) (A) (A) (A) (A) (A) (A) (A) (A) (A) (A) (A)
                 (A) (A) (A) (A) (A) (A) (A) (A) (A) (A) (A) (A)
                 (A) (A) (A) (A) (A) (A) (A) (A) (A) (A) (A) (A)
                 (A) (A) (A) (A) (A) (A) (A) (A) (A) (A) (A) (A)
                 (A) (A) (A) (A) (A) (A) (A) (A) (A) (A) (A) (A)
                 (A) (A) (A) (A) (A) (A) (A) (A) (A) (A) (A) (A)
                 (A) (A) (A) (A) (A) (A) (A) (A) (A) (A) (A) (A)
                 (A) (A) (A) (A) (A) (A) (A) (A) (A) (A) (A) (A)
                 (A) (A) (A) (A) (A) (A) (A)
 The electronic state is 1-A.
 Alpha  occ. eigenvalues --  -19.30987 -19.28611 -19.24917 -19.21936 -14.46258
 Alpha  occ. eigenvalues --  -10.43226 -10.42833 -10.35683 -10.34342 -10.27561
 Alpha  occ. eigenvalues --  -10.26945 -10.26778  -1.22679  -1.21110  -1.13517
 Alpha  occ. eigenvalues --   -1.11931  -1.03843  -0.91555  -0.85081  -0.79286
 Alpha  occ. eigenvalues --   -0.79028  -0.74546  -0.69809  -0.67209  -0.61197
 Alpha  occ. eigenvalues --   -0.60351  -0.59379  -0.57519  -0.56906  -0.56071
 Alpha  occ. eigenvalues --   -0.54107  -0.53339  -0.52547  -0.49985  -0.49890
 Alpha  occ. eigenvalues --   -0.48481  -0.47429  -0.46883  -0.45005  -0.44165
 Alpha  occ. eigenvalues --   -0.43306  -0.42256  -0.41917  -0.38366  -0.38049
 Alpha  occ. eigenvalues --   -0.36364  -0.34957
 Alpha virt. eigenvalues --    0.07239   0.08192   0.09057   0.10033   0.11448
 Alpha virt. eigenvalues --    0.12245   0.12843   0.13188   0.13406   0.14974
 Alpha virt. eigenvalues --    0.15148   0.16047   0.17341   0.17929   0.18546
 Alpha virt. eigenvalues --    0.18647   0.19481   0.20183   0.21201   0.21465
 Alpha virt. eigenvalues --    0.21737   0.22295   0.23093   0.23203   0.23868
 Alpha virt. eigenvalues --    0.25661   0.26999   0.28292   0.28722   0.28864
 Alpha virt. eigenvalues --    0.29768   0.30602   0.31560   0.32370   0.33110
 Alpha virt. eigenvalues --    0.33512   0.33803   0.34538   0.34826   0.35296
 Alpha virt. eigenvalues --    0.36106   0.36581   0.36813   0.37307   0.37715
 Alpha virt. eigenvalues --    0.38611   0.39449   0.39935   0.40037   0.40370
 Alpha virt. eigenvalues --    0.40457   0.40859   0.41642   0.42079   0.42320
 Alpha virt. eigenvalues --    0.42895   0.43551   0.44486   0.44641   0.45058
 Alpha virt. eigenvalues --    0.45929   0.46293   0.47409   0.47997   0.49004
 Alpha virt. eigenvalues --    0.50651   0.51429   0.52106   0.53608   0.54654
 Alpha virt. eigenvalues --    0.55404   0.56141   0.56508   0.56990   0.57689
 Alpha virt. eigenvalues --    0.58610   0.59882   0.61223   0.62031   0.62830
 Alpha virt. eigenvalues --    0.64427   0.65039   0.65429   0.66944   0.67004
 Alpha virt. eigenvalues --    0.68418   0.68726   0.69284   0.69793   0.70705
 Alpha virt. eigenvalues --    0.71106   0.71518   0.71994   0.73509   0.74150
 Alpha virt. eigenvalues --    0.74988   0.75724   0.76606   0.78081   0.78772
 Alpha virt. eigenvalues --    0.79520   0.81080   0.82378   0.83439   0.83855
 Alpha virt. eigenvalues --    0.84524   0.85326   0.85938   0.86534   0.86604
 Alpha virt. eigenvalues --    0.87570   0.88432   0.88648   0.89214   0.89421
 Alpha virt. eigenvalues --    0.89894   0.90782   0.91589   0.91804   0.92836
 Alpha virt. eigenvalues --    0.92958   0.93554   0.94125   0.94743   0.95586
 Alpha virt. eigenvalues --    0.96437   0.97181   0.98051   0.98526   0.99050
 Alpha virt. eigenvalues --    1.00163   1.00338   1.01456   1.02041   1.02647
 Alpha virt. eigenvalues --    1.03383   1.03856   1.04481   1.04557   1.05377
 Alpha virt. eigenvalues --    1.07005   1.07952   1.08996   1.09920   1.11326
 Alpha virt. eigenvalues --    1.11979   1.12462   1.13167   1.13794   1.14571
 Alpha virt. eigenvalues --    1.14881   1.16311   1.17645   1.18537   1.19637
 Alpha virt. eigenvalues --    1.20007   1.21124   1.21971   1.22787   1.22918
 Alpha virt. eigenvalues --    1.24538   1.25581   1.26196   1.26642   1.28248
 Alpha virt. eigenvalues --    1.28397   1.29739   1.30507   1.32049   1.32394
 Alpha virt. eigenvalues --    1.34517   1.34982   1.35997   1.37178   1.38309
 Alpha virt. eigenvalues --    1.39331   1.39916   1.40332   1.40579   1.41240
 Alpha virt. eigenvalues --    1.42875   1.43722   1.44475   1.44856   1.46183
 Alpha virt. eigenvalues --    1.47377   1.47916   1.49118   1.50773   1.51238
 Alpha virt. eigenvalues --    1.51892   1.52720   1.53584   1.54694   1.54940
 Alpha virt. eigenvalues --    1.55824   1.56563   1.57240   1.58366   1.58931
 Alpha virt. eigenvalues --    1.59276   1.61370   1.62096   1.63160   1.64063
 Alpha virt. eigenvalues --    1.65811   1.65996   1.67046   1.69651   1.70117
 Alpha virt. eigenvalues --    1.71063   1.71961   1.73079   1.74183   1.74902
 Alpha virt. eigenvalues --    1.76424   1.77356   1.79457   1.80613   1.81080
 Alpha virt. eigenvalues --    1.82619   1.82782   1.85294   1.85458   1.85965
 Alpha virt. eigenvalues --    1.87109   1.87752   1.89582   1.89828   1.91599
 Alpha virt. eigenvalues --    1.92248   1.92979   1.94013   1.94566   1.96583
 Alpha virt. eigenvalues --    1.97519   1.98596   1.99443   2.00120   2.00926
 Alpha virt. eigenvalues --    2.01535   2.03295   2.04214   2.05056   2.05818
 Alpha virt. eigenvalues --    2.06165   2.07272   2.07960   2.08559   2.09228
 Alpha virt. eigenvalues --    2.10061   2.11388   2.12293   2.12673   2.13743
 Alpha virt. eigenvalues --    2.14637   2.15309   2.15884   2.16894   2.17913
 Alpha virt. eigenvalues --    2.18395   2.19721   2.19986   2.20723   2.21228
 Alpha virt. eigenvalues --    2.21574   2.23145   2.24030   2.24374   2.25351
 Alpha virt. eigenvalues --    2.25997   2.26459   2.27660   2.28124   2.28808
 Alpha virt. eigenvalues --    2.29431   2.29803   2.31224   2.31748   2.33078
 Alpha virt. eigenvalues --    2.33440   2.34222   2.36112   2.36367   2.36743
 Alpha virt. eigenvalues --    2.37707   2.38789   2.39459   2.40798   2.41417
 Alpha virt. eigenvalues --    2.41878   2.43428   2.43974   2.45044   2.46153
 Alpha virt. eigenvalues --    2.46646   2.47346   2.48382   2.48736   2.49623
 Alpha virt. eigenvalues --    2.50472   2.51264   2.51888   2.52912   2.53153
 Alpha virt. eigenvalues --    2.54320   2.54904   2.56261   2.57221   2.58549
 Alpha virt. eigenvalues --    2.58832   2.60603   2.61461   2.62534   2.63333
 Alpha virt. eigenvalues --    2.63907   2.64927   2.65935   2.66626   2.67265
 Alpha virt. eigenvalues --    2.68782   2.69711   2.70709   2.70917   2.71379
 Alpha virt. eigenvalues --    2.72672   2.73187   2.73891   2.74554   2.75186
 Alpha virt. eigenvalues --    2.76917   2.77324   2.78564   2.79429   2.80306
 Alpha virt. eigenvalues --    2.81758   2.82567   2.83753   2.85168   2.86151
 Alpha virt. eigenvalues --    2.87501   2.88379   2.88727   2.90020   2.90815
 Alpha virt. eigenvalues --    2.91454   2.92125   2.92559   2.94858   2.96002
 Alpha virt. eigenvalues --    2.96260   2.97405   2.98228   2.98470   2.99336
 Alpha virt. eigenvalues --    2.99464   3.00199   3.00633   3.02003   3.03022
 Alpha virt. eigenvalues --    3.03423   3.04204   3.05220   3.06386   3.07049
 Alpha virt. eigenvalues --    3.08816   3.08952   3.09689   3.10706   3.11057
 Alpha virt. eigenvalues --    3.11928   3.13217   3.14107   3.14886   3.16911
 Alpha virt. eigenvalues --    3.19195   3.20700   3.22252   3.22574   3.23215
 Alpha virt. eigenvalues --    3.24732   3.25656   3.27611   3.28426   3.29690
 Alpha virt. eigenvalues --    3.30273   3.31051   3.32560   3.34489   3.34951
 Alpha virt. eigenvalues --    3.36297   3.38453   3.39010   3.39317   3.40999
 Alpha virt. eigenvalues --    3.41671   3.42171   3.43211   3.44354   3.45075
 Alpha virt. eigenvalues --    3.45698   3.46428   3.47476   3.48660   3.49555
 Alpha virt. eigenvalues --    3.50382   3.51468   3.52817   3.53485   3.53864
 Alpha virt. eigenvalues --    3.55478   3.56097   3.57137   3.57866   3.59722
 Alpha virt. eigenvalues --    3.60839   3.62435   3.63586   3.64400   3.67019
 Alpha virt. eigenvalues --    3.67809   3.68889   3.70509   3.72132   3.73228
 Alpha virt. eigenvalues --    3.74153   3.75376   3.77371   3.79343   3.80565
 Alpha virt. eigenvalues --    3.82042   3.83160   3.84375   3.85318   3.86481
 Alpha virt. eigenvalues --    3.86973   3.88504   3.88919   3.91052   3.92099
 Alpha virt. eigenvalues --    3.93049   3.93675   3.93903   3.95657   3.96106
 Alpha virt. eigenvalues --    3.97212   3.97947   3.98795   3.99525   4.00920
 Alpha virt. eigenvalues --    4.01168   4.02462   4.03220   4.03710   4.05247
 Alpha virt. eigenvalues --    4.06301   4.07348   4.09122   4.10230   4.10766
 Alpha virt. eigenvalues --    4.13251   4.14196   4.15658   4.17540   4.18787
 Alpha virt. eigenvalues --    4.21562   4.24523   4.26567   4.26749   4.28510
 Alpha virt. eigenvalues --    4.29966   4.31911   4.32992   4.38058   4.40693
 Alpha virt. eigenvalues --    4.42669   4.43506   4.44913   4.45823   4.46611
 Alpha virt. eigenvalues --    4.47152   4.48214   4.49410   4.50280   4.53409
 Alpha virt. eigenvalues --    4.54846   4.55872   4.58931   4.59715   4.61423
 Alpha virt. eigenvalues --    4.62164   4.64389   4.64852   4.69425   4.70011
 Alpha virt. eigenvalues --    4.72460   4.74295   4.74754   4.76793   4.78781
 Alpha virt. eigenvalues --    4.81164   4.83103   4.85164   4.88182   4.89334
 Alpha virt. eigenvalues --    4.92135   4.94301   4.95138   5.01503   5.02391
 Alpha virt. eigenvalues --    5.03740   5.06640   5.07260   5.10158   5.14401
 Alpha virt. eigenvalues --    5.16594   5.18236   5.21968   5.23813   5.25082
 Alpha virt. eigenvalues --    5.27418   5.28559   5.31898   5.33074   5.34355
 Alpha virt. eigenvalues --    5.36652   5.37839   5.40490   5.42184   5.45925
 Alpha virt. eigenvalues --    5.46669   5.50840   5.52531   5.55063   5.56094
 Alpha virt. eigenvalues --    5.58479   5.59459   5.60476   5.61095   5.62164
 Alpha virt. eigenvalues --    5.62690   5.64792   5.66372   5.67613   5.68705
 Alpha virt. eigenvalues --    5.70533   5.71172   5.72607   5.73217   5.75023
 Alpha virt. eigenvalues --    5.75694   5.76270   5.77956   5.79651   5.80950
 Alpha virt. eigenvalues --    5.81580   5.83828   5.84378   5.84776   5.86376
 Alpha virt. eigenvalues --    5.88202   5.89835   5.90242   5.90891   5.91635
 Alpha virt. eigenvalues --    5.93028   5.93966   5.94826   5.95343   5.97532
 Alpha virt. eigenvalues --    5.98779   5.99685   6.00105   6.02379   6.03201
 Alpha virt. eigenvalues --    6.04065   6.04779   6.05876   6.06513   6.07493
 Alpha virt. eigenvalues --    6.08161   6.09072   6.09865   6.10716   6.11134
 Alpha virt. eigenvalues --    6.11570   6.12784   6.13850   6.15362   6.16599
 Alpha virt. eigenvalues --    6.17353   6.18288   6.19317   6.21011   6.21607
 Alpha virt. eigenvalues --    6.22883   6.23287   6.23727   6.24349   6.25421
 Alpha virt. eigenvalues --    6.25510   6.26388   6.27742   6.29064   6.29475
 Alpha virt. eigenvalues --    6.31099   6.31262   6.32405   6.32937   6.33968
 Alpha virt. eigenvalues --    6.34270   6.35422   6.36216   6.37578   6.38306
 Alpha virt. eigenvalues --    6.40681   6.40798   6.42811   6.43132   6.44577
 Alpha virt. eigenvalues --    6.45323   6.46240   6.47304   6.48799   6.49065
 Alpha virt. eigenvalues --    6.50094   6.50814   6.51007   6.51375   6.54039
 Alpha virt. eigenvalues --    6.55008   6.55306   6.56686   6.57350   6.58494
 Alpha virt. eigenvalues --    6.60921   6.61788   6.62604   6.63260   6.65699
 Alpha virt. eigenvalues --    6.69172   6.70854   6.71449   6.73139   6.73407
 Alpha virt. eigenvalues --    6.73586   6.75867   6.77654   6.78285   6.79432
 Alpha virt. eigenvalues --    6.80206   6.81230   6.82002   6.82473   6.83820
 Alpha virt. eigenvalues --    6.85173   6.86382   6.88336   6.88501   6.89760
 Alpha virt. eigenvalues --    6.91389   6.93201   6.93791   6.94710   6.97826
 Alpha virt. eigenvalues --    6.98598   7.01036   7.01378   7.03406   7.04058
 Alpha virt. eigenvalues --    7.08283   7.09504   7.11382   7.12480   7.12867
 Alpha virt. eigenvalues --    7.14714   7.16960   7.19022   7.19391   7.19606
 Alpha virt. eigenvalues --    7.20686   7.21793   7.23228   7.23862   7.24609
 Alpha virt. eigenvalues --    7.25727   7.26203   7.28051   7.30315   7.31445
 Alpha virt. eigenvalues --    7.32316   7.33803   7.35648   7.36625   7.39084
 Alpha virt. eigenvalues --    7.40862   7.41748   7.42883   7.43065   7.46546
 Alpha virt. eigenvalues --    7.47174   7.49711   7.50270   7.51909   7.53377
 Alpha virt. eigenvalues --    7.54410   7.54611   7.55499   7.56556   7.58227
 Alpha virt. eigenvalues --    7.59012   7.59732   7.61570   7.63127   7.63759
 Alpha virt. eigenvalues --    7.64809   7.66527   7.67314   7.68521   7.70021
 Alpha virt. eigenvalues --    7.70259   7.70420   7.70797   7.72793   7.75099
 Alpha virt. eigenvalues --    7.76407   7.76595   7.77643   7.78856   7.79755
 Alpha virt. eigenvalues --    7.80115   7.81282   7.83863   7.85285   7.85602
 Alpha virt. eigenvalues --    7.86976   7.87976   7.89291   7.90729   7.91595
 Alpha virt. eigenvalues --    7.92466   7.93796   7.94654   7.95681   7.96457
 Alpha virt. eigenvalues --    7.96744   7.97824   7.98167   7.98622   8.00354
 Alpha virt. eigenvalues --    8.00664   8.02864   8.04008   8.04199   8.07034
 Alpha virt. eigenvalues --    8.07430   8.08242   8.09316   8.11022   8.15393
 Alpha virt. eigenvalues --    8.15567   8.17524   8.18286   8.19413   8.20467
 Alpha virt. eigenvalues --    8.21268   8.22929   8.23793   8.25092   8.26257
 Alpha virt. eigenvalues --    8.27260   8.27912   8.28290   8.29037   8.29579
 Alpha virt. eigenvalues --    8.29978   8.34014   8.36447   8.40682   8.43425
 Alpha virt. eigenvalues --    8.45844   8.47034   8.47907   8.48900   8.51881
 Alpha virt. eigenvalues --    8.52523   8.52810   8.53573   8.54044   8.54803
 Alpha virt. eigenvalues --    8.57134   8.57774   8.57950   8.58719   8.58819
 Alpha virt. eigenvalues --    8.59897   8.61258   8.62191   8.62966   8.63892
 Alpha virt. eigenvalues --    8.64362   8.65985   8.66481   8.67004   8.67716
 Alpha virt. eigenvalues --    8.68649   8.69550   8.70742   8.72412   8.72939
 Alpha virt. eigenvalues --    8.75474   8.75986   8.77547   8.79927   8.81730
 Alpha virt. eigenvalues --    8.83413   8.83836   8.84153   8.85434   8.87152
 Alpha virt. eigenvalues --    8.89121   8.91702   8.94626   8.95591   8.96800
 Alpha virt. eigenvalues --    8.97426   8.98284   8.98414   8.99333   9.02265
 Alpha virt. eigenvalues --    9.03017   9.03890   9.04399   9.06913   9.07471
 Alpha virt. eigenvalues --    9.07896   9.10802   9.11012   9.11950   9.12820
 Alpha virt. eigenvalues --    9.13966   9.14613   9.14755   9.15259   9.16578
 Alpha virt. eigenvalues --    9.18181   9.20470   9.21312   9.23038   9.23800
 Alpha virt. eigenvalues --    9.24062   9.24520   9.26004   9.26322   9.30676
 Alpha virt. eigenvalues --    9.35799   9.36802   9.38755   9.42544   9.44329
 Alpha virt. eigenvalues --    9.45623   9.47025   9.50613   9.53143   9.54847
 Alpha virt. eigenvalues --    9.57314   9.59708   9.63919   9.65633   9.71753
 Alpha virt. eigenvalues --    9.74466   9.83725   9.86386   9.87641   9.88979
 Alpha virt. eigenvalues --    9.91586   9.92009   9.92879   9.93351   9.94306
 Alpha virt. eigenvalues --    9.94907   9.95765   9.97003   9.98427   9.98940
 Alpha virt. eigenvalues --    9.99370  10.00996  10.01726  10.02640  10.03306
 Alpha virt. eigenvalues --   10.04325  10.04512  10.05963  10.08056  10.09223
 Alpha virt. eigenvalues --   10.14659  10.15730  10.16876  10.19450  10.21147
 Alpha virt. eigenvalues --   10.23344  10.24246  10.24891  10.28475  10.35178
 Alpha virt. eigenvalues --   10.36639  10.37203  10.39880  10.44241  10.45050
 Alpha virt. eigenvalues --   10.48117  10.49924  10.50830  10.51664  10.53596
 Alpha virt. eigenvalues --   10.53777  10.55991  10.58113  10.58740  10.60627
 Alpha virt. eigenvalues --   10.61650  10.70243  10.71886  10.76752  10.81247
 Alpha virt. eigenvalues --   10.85792  10.89239  10.91178  10.99215  11.02460
 Alpha virt. eigenvalues --   11.09328  11.11875  11.13587  11.17061  11.25787
 Alpha virt. eigenvalues --   11.26425  11.41147  11.42966  11.45292  11.49583
 Alpha virt. eigenvalues --   11.50567  11.58382  11.59638  11.60374  11.71493
 Alpha virt. eigenvalues --   11.74341  11.75801  11.80883  11.84022  11.92084
 Alpha virt. eigenvalues --   11.93818  11.94873  11.96378  11.97376  12.00590
 Alpha virt. eigenvalues --   12.03298  12.06235  12.10240  12.12320  12.19423
 Alpha virt. eigenvalues --   12.22675  12.24638  12.27325  12.29149  12.29938
 Alpha virt. eigenvalues --   12.33321  12.34218  12.35377  12.36044  12.43919
 Alpha virt. eigenvalues --   12.45379  12.46123  12.47321  12.50495  12.57044
 Alpha virt. eigenvalues --   12.62940  12.66048  12.67859  12.71447  12.83115
 Alpha virt. eigenvalues --   12.86837  12.94257  13.15133  13.34600  13.36537
 Alpha virt. eigenvalues --   13.40554  13.44991  13.51907  13.53068  13.54544
 Alpha virt. eigenvalues --   13.72042  13.85305  13.93932  13.99430  14.15409
 Alpha virt. eigenvalues --   14.27545  14.37590  14.54321  14.67366  14.70855
 Alpha virt. eigenvalues --   14.86500  15.12802  16.65325  28.47999  28.51937
 Alpha virt. eigenvalues --   28.89996  29.06727  29.19541  29.32223  29.32947
 Alpha virt. eigenvalues --   38.22845  48.24562  48.36359  48.51339  48.53549
 Alpha virt. eigenvalues --  147.56327 147.58680 148.05732 148.22231 148.37451
 Alpha virt. eigenvalues --  148.46647 148.47759 197.64097 253.36194 253.49307
 Alpha virt. eigenvalues --  253.65237 253.69883
          Condensed to atoms (all electrons):
               1          2          3          4          5          6
     1  C    4.897750   0.446699  -0.120003  -0.117390  -0.061528  -0.000511
     2  C    0.446699   4.521278   0.429548   0.417814   0.225235  -0.074299
     3  C   -0.120003   0.429548   4.871253  -0.086729  -0.067072  -0.010989
     4  C   -0.117390   0.417814  -0.086729   4.866371  -0.063051  -0.007156
     5  O   -0.061528   0.225235  -0.067072  -0.063051   8.122668   0.390158
     6  C   -0.000511  -0.074299  -0.010989  -0.007156   0.390158   4.177963
     7  O    0.000085   0.024785  -0.014898  -0.014679  -0.074512   0.698133
     8  N   -0.000927   0.008380  -0.001550  -0.002693  -0.116835   0.479153
     9  C    0.000116  -0.001128  -0.000258   0.000056   0.011317  -0.085936
    10  C    0.000012  -0.000073   0.000044   0.000327   0.000357   0.010607
    11  O   -0.000028   0.000917   0.000074   0.001363  -0.001211   0.008933
    12  O   -0.000000   0.000022   0.000001  -0.000005  -0.000011   0.000744
    13  H    0.373498  -0.020117  -0.003755   0.010950  -0.003324  -0.000486
    14  H    0.374275  -0.022942   0.010600  -0.002464  -0.003121  -0.000157
    15  H    0.359944  -0.018788   0.001506   0.000926   0.005926   0.000573
    16  H   -0.003204  -0.024356   0.369837   0.010912  -0.000758   0.000319
    17  H    0.009642  -0.027523   0.385852  -0.003724  -0.002302  -0.000023
    18  H   -0.003190  -0.011442   0.366143  -0.004375   0.005051   0.001345
    19  H   -0.003855  -0.022920   0.010709   0.374200  -0.001801  -0.000401
    20  H   -0.003436  -0.011000  -0.003819   0.364141   0.005321   0.000647
    21  H    0.009594  -0.027371  -0.004058   0.387303  -0.002413  -0.000772
    22  H   -0.000370  -0.000796   0.000214   0.000109   0.006595  -0.037778
    23  H   -0.000006   0.000019  -0.000007   0.000015   0.000053   0.004636
    24  H    0.000003  -0.000131  -0.000028  -0.000033   0.000088  -0.005118
    25  H    0.000000  -0.000007   0.000000  -0.000005   0.000009  -0.000199
               7          8          9         10         11         12
     1  C    0.000085  -0.000927   0.000116   0.000012  -0.000028  -0.000000
     2  C    0.024785   0.008380  -0.001128  -0.000073   0.000917   0.000022
     3  C   -0.014898  -0.001550  -0.000258   0.000044   0.000074   0.000001
     4  C   -0.014679  -0.002693   0.000056   0.000327   0.001363  -0.000005
     5  O   -0.074512  -0.116835   0.011317   0.000357  -0.001211  -0.000011
     6  C    0.698133   0.479153  -0.085936   0.010607   0.008933   0.000744
     7  O    7.860251  -0.109054   0.016251   0.004269  -0.002717  -0.000095
     8  N   -0.109054   6.563821   0.319478  -0.142050   0.023084   0.008335
     9  C    0.016251   0.319478   4.808964   0.361371  -0.097159  -0.090401
    10  C    0.004269  -0.142050   0.361371   4.302112   0.773138   0.465293
    11  O   -0.002717   0.023084  -0.097159   0.773138   7.719560  -0.101426
    12  O   -0.000095   0.008335  -0.090401   0.465293  -0.101426   7.721305
    13  H    0.000079   0.000029  -0.000016   0.000000   0.000001  -0.000000
    14  H    0.000051   0.000004  -0.000039   0.000002   0.000019   0.000000
    15  H    0.000214   0.000035  -0.000004   0.000002  -0.000001  -0.000000
    16  H   -0.000849   0.000043   0.000033   0.000008   0.000000  -0.000000
    17  H    0.005674   0.000402  -0.000088  -0.000033   0.000011   0.000001
    18  H    0.001158   0.000050  -0.000027  -0.000000   0.000003   0.000000
    19  H   -0.000770   0.000196  -0.000071  -0.000006   0.000177   0.000007
    20  H    0.000936  -0.000063  -0.000014   0.000022   0.000058  -0.000000
    21  H    0.005745  -0.000146   0.000213   0.000114  -0.000039  -0.000016
    22  H    0.006797   0.355128  -0.031507  -0.002708   0.000689   0.000094
    23  H    0.001954  -0.025138   0.363050  -0.025257  -0.000871   0.000599
    24  H    0.005087  -0.023061   0.341428  -0.023619   0.002460   0.002997
    25  H    0.000018  -0.001853   0.010957  -0.037141   0.009196   0.318680
              13         14         15         16         17         18
     1  C    0.373498   0.374275   0.359944  -0.003204   0.009642  -0.003190
     2  C   -0.020117  -0.022942  -0.018788  -0.024356  -0.027523  -0.011442
     3  C   -0.003755   0.010600   0.001506   0.369837   0.385852   0.366143
     4  C    0.010950  -0.002464   0.000926   0.010912  -0.003724  -0.004375
     5  O   -0.003324  -0.003121   0.005926  -0.000758  -0.002302   0.005051
     6  C   -0.000486  -0.000157   0.000573   0.000319  -0.000023   0.001345
     7  O    0.000079   0.000051   0.000214  -0.000849   0.005674   0.001158
     8  N    0.000029   0.000004   0.000035   0.000043   0.000402   0.000050
     9  C   -0.000016  -0.000039  -0.000004   0.000033  -0.000088  -0.000027
    10  C    0.000000   0.000002   0.000002   0.000008  -0.000033  -0.000000
    11  O    0.000001   0.000019  -0.000001   0.000000   0.000011   0.000003
    12  O   -0.000000   0.000000  -0.000000  -0.000000   0.000001   0.000000
    13  H    0.615389  -0.017796  -0.020943   0.001569   0.000158   0.000459
    14  H   -0.017796   0.614802  -0.020375   0.000053  -0.000559   0.000263
    15  H   -0.020943  -0.020375   0.650800   0.000449   0.000157  -0.002116
    16  H    0.001569   0.000053   0.000449   0.623793  -0.017532  -0.022782
    17  H    0.000158  -0.000559   0.000157  -0.017532   0.606303  -0.023521
    18  H    0.000459   0.000263  -0.002116  -0.022782  -0.023521   0.640462
    19  H    0.000027   0.001503   0.000291  -0.000710   0.000232   0.000204
    20  H    0.000351   0.000404  -0.002086   0.000143   0.000488  -0.002057
    21  H   -0.000565   0.000194   0.000158   0.000207   0.000128   0.000589
    22  H    0.000014   0.000028   0.000005   0.000007  -0.000038  -0.000005
    23  H    0.000000  -0.000001  -0.000000   0.000000   0.000002   0.000000
    24  H   -0.000001  -0.000000  -0.000001  -0.000020   0.000076   0.000003
    25  H   -0.000000  -0.000000   0.000000   0.000000  -0.000000  -0.000000
              19         20         21         22         23         24
     1  C   -0.003855  -0.003436   0.009594  -0.000370  -0.000006   0.000003
     2  C   -0.022920  -0.011000  -0.027371  -0.000796   0.000019  -0.000131
     3  C    0.010709  -0.003819  -0.004058   0.000214  -0.000007  -0.000028
     4  C    0.374200   0.364141   0.387303   0.000109   0.000015  -0.000033
     5  O   -0.001801   0.005321  -0.002413   0.006595   0.000053   0.000088
     6  C   -0.000401   0.000647  -0.000772  -0.037778   0.004636  -0.005118
     7  O   -0.000770   0.000936   0.005745   0.006797   0.001954   0.005087
     8  N    0.000196  -0.000063  -0.000146   0.355128  -0.025138  -0.023061
     9  C   -0.000071  -0.000014   0.000213  -0.031507   0.363050   0.341428
    10  C   -0.000006   0.000022   0.000114  -0.002708  -0.025257  -0.023619
    11  O    0.000177   0.000058  -0.000039   0.000689  -0.000871   0.002460
    12  O    0.000007  -0.000000  -0.000016   0.000094   0.000599   0.002997
    13  H    0.000027   0.000351  -0.000565   0.000014   0.000000  -0.000001
    14  H    0.001503   0.000404   0.000194   0.000028  -0.000001  -0.000000
    15  H    0.000291  -0.002086   0.000158   0.000005  -0.000000  -0.000001
    16  H   -0.000710   0.000143   0.000207   0.000007   0.000000  -0.000020
    17  H    0.000232   0.000488   0.000128  -0.000038   0.000002   0.000076
    18  H    0.000204  -0.002057   0.000589  -0.000005   0.000000   0.000003
    19  H    0.613285  -0.024329  -0.014186   0.000048  -0.000004   0.000000
    20  H   -0.024329   0.648620  -0.026603  -0.000023   0.000000  -0.000005
    21  H   -0.014186  -0.026603   0.606935  -0.000120   0.000006  -0.000041
    22  H    0.000048  -0.000023  -0.000120   0.518885  -0.002861   0.006820
    23  H   -0.000004   0.000000   0.000006  -0.002861   0.588421  -0.007407
    24  H    0.000000  -0.000005  -0.000041   0.006820  -0.007407   0.598795
    25  H    0.000001   0.000000   0.000002  -0.000065   0.000004  -0.000745
              25
     1  C    0.000000
     2  C   -0.000007
     3  C    0.000000
     4  C   -0.000005
     5  O    0.000009
     6  C   -0.000199
     7  O    0.000018
     8  N   -0.001853
     9  C    0.010957
    10  C   -0.037141
    11  O    0.009196
    12  O    0.318680
    13  H   -0.000000
    14  H   -0.000000
    15  H    0.000000
    16  H    0.000000
    17  H   -0.000000
    18  H   -0.000000
    19  H    0.000001
    20  H    0.000000
    21  H    0.000002
    22  H   -0.000065
    23  H    0.000004
    24  H   -0.000745
    25  H    0.446349
 Mulliken charges:
               1
     1  C   -0.157170
     2  C    0.188196
     3  C   -0.132614
     4  C   -0.132183
     5  O   -0.374841
     6  C    0.450612
     7  O   -0.413913
     8  N   -0.334766
     9  C    0.073414
    10  C    0.313210
    11  O   -0.336232
    12  O   -0.326123
    13  H    0.064480
    14  H    0.065256
    15  H    0.043328
    16  H    0.062838
    17  H    0.066219
    18  H    0.053786
    19  H    0.068173
    20  H    0.052305
    21  H    0.065144
    22  H    0.180838
    23  H    0.102793
    24  H    0.102452
    25  H    0.254799
 Sum of Mulliken charges =  -0.00000
 Mulliken charges with hydrogens summed into heavy atoms:
               1
     1  C    0.015894
     2  C    0.188196
     3  C    0.050229
     4  C    0.053440
     5  O   -0.374841
     6  C    0.450612
     7  O   -0.413913
     8  N   -0.153929
     9  C    0.278659
    10  C    0.313210
    11  O   -0.336232
    12  O   -0.071325
 Electronic spatial extent (au):  <R**2>=           2667.2056
 Charge=             -0.0000 electrons
 Dipole moment (field-independent basis, Debye):
    X=              0.5088    Y=             -0.3652    Z=             -1.4707  Tot=              1.5985
 Quadrupole moment (field-independent basis, Debye-Ang):
   XX=            -57.4564   YY=            -72.5344   ZZ=            -72.2448
   XY=             -0.7995   XZ=             -1.1276   YZ=              3.5654
 Traceless Quadrupole moment (field-independent basis, Debye-Ang):
   XX=              9.9554   YY=             -5.1225   ZZ=             -4.8329
   XY=             -0.7995   XZ=             -1.1276   YZ=              3.5654
 Octapole moment (field-independent basis, Debye-Ang**2):
  XXX=             46.8427  YYY=             -1.5205  ZZZ=             -9.9735  XYY=             12.0501
  XXY=             19.4272  XXZ=              5.8630  XZZ=             12.2251  YZZ=              0.8609
  YYZ=              3.2993  XYZ=              9.1028
 Hexadecapole moment (field-independent basis, Debye-Ang**3):
 XXXX=          -2418.6958 YYYY=           -442.1576 ZZZZ=           -338.0053 XXXY=            121.1289
 XXXZ=             13.6338 YYYX=             13.8756 YYYZ=              1.0106 ZZZX=             -2.4811
 ZZZY=              6.6248 XXYY=           -471.6022 XXZZ=           -491.5724 YYZZ=           -129.0691
 XXYZ=             39.9918 YYXZ=             15.7808 ZZXY=              3.0902
 N-N= 7.656668171244D+02 E-N=-3.007560647639D+03  KE= 6.275905579716D+02
 Unable to Open any file for archive entry.
 1\1\GINC-NODE16\SP\RwB97XD\def2QZVPP\C7H13N1O4\J77KING\08-May-2024\0\\
 # wb97xd/def2qzvpp\\Ac2_rdkit_conf_3_qzvpp\\0,1\C,0,-3.325794,0.426639
 ,-1.154869\C,0,-2.363483,0.181884,-0.002987\C,0,-2.902789,-0.899045,0.
 923361\C,0,-2.072009,1.481407,0.734896\O,0,-1.162769,-0.289814,-0.6802
 05\C,0,-0.062942,-0.585461,0.018567\O,0,0.057659,-0.5506,1.218707\N,0,
 0.938212,-0.984658,-0.830464\C,0,2.270833,-1.028544,-0.305715\C,0,2.86
 2164,0.35332,-0.100272\O,0,2.349923,1.380774,-0.434947\O,0,4.062798,0.
 28047,0.494949\H,0,-3.493776,-0.49572,-1.711324\H,0,-2.920499,1.176266
 ,-1.834787\H,0,-4.281143,0.782752,-0.769384\H,0,-3.039221,-1.830635,0.
 372107\H,0,-2.229781,-1.072977,1.759152\H,0,-3.873282,-0.58477,1.31021
 6\H,0,-1.6043,2.198013,0.058197\H,0,-3.011408,1.906383,1.09149\H,0,-1.
 414661,1.315077,1.584493\H,0,0.818448,-0.706333,-1.791391\H,0,2.925385
 ,-1.586302,-0.976243\H,0,2.267938,-1.541817,0.654899\H,0,4.392044,1.18
 4829,0.599911\\Version=AS64L-G16RevC.01\State=1-A\HF=-630.3770477\RMSD
 =8.906e-09\Dipole=0.2001592,-0.1436918,-0.5786091\Quadrupole=7.4016238
 ,-3.8084683,-3.5931555,-0.5943891,-0.8383202,2.6508121\PG=C01 [X(C7H13
 N1O4)]\\@
 The archive entry for this job was punched.


 In the beginning there was nothing, which exploded.
 Job cpu time:       0 days  4 hours 55 minutes 25.0 seconds.
 Elapsed time:       0 days  0 hours 37 minutes 26.3 seconds.
 File lengths (MBytes):  RWF=    624 Int=      0 D2E=      0 Chk=     67 Scr=      1
 Normal termination of Gaussian 16 at Wed May  8 19:35:30 2024.
