Job Start Time: Wed May  8 19:09:54 MDT 2024
SLURM Job ID: 265089
SLURM Job Name: Ac4_rdkit_conf_2_qzvpp
 Entering Gaussian System, Link 0=/opt/apps/Gaussian/G16C/g16/g16
 Initial command:
 /opt/apps/Gaussian/G16C/g16/l1.exe "/tmp/Gau-3097386.inp" -scrdir="/tmp/"
 Entering Link 1 = /opt/apps/Gaussian/G16C/g16/l1.exe PID=   3097387.
  
 Copyright (c) 1988-2019, Gaussian, Inc.  All Rights Reserved.
  
 This is part of the Gaussian(R) 16 program.  It is based on
 the Gaussian(R) 09 system (copyright 2009, Gaussian, Inc.),
 the Gaussian(R) 03 system (copyright 2003, Gaussian, Inc.),
 the Gaussian(R) 98 system (copyright 1998, Gaussian, Inc.),
 the Gaussian(R) 94 system (copyright 1995, Gaussian, Inc.),
 the Gaussian 92(TM) system (copyright 1992, Gaussian, Inc.),
 the Gaussian 90(TM) system (copyright 1990, Gaussian, Inc.),
 the Gaussian 88(TM) system (copyright 1988, Gaussian, Inc.),
 the Gaussian 86(TM) system (copyright 1986, Carnegie Mellon
 University), and the Gaussian 82(TM) system (copyright 1983,
 Carnegie Mellon University). Gaussian is a federally registered
 trademark of Gaussian, Inc.
  
 This software contains proprietary and confidential information,
 including trade secrets, belonging to Gaussian, Inc.
  
 This software is provided under written license and may be
 used, copied, transmitted, or stored only in accord with that
 written license.
  
 The following legend is applicable only to US Government
 contracts under FAR:
  
                    RESTRICTED RIGHTS LEGEND
  
 Use, reproduction and disclosure by the US Government is
 subject to restrictions as set forth in subparagraphs (a)
 and (c) of the Commercial Computer Software - Restricted
 Rights clause in FAR 52.227-19.
  
 Gaussian, Inc.
 340 Quinnipiac St., Bldg. 40, Wallingford CT 06492
  
  
 ---------------------------------------------------------------
 Warning -- This program may not be used in any manner that
 competes with the business of Gaussian, Inc. or will provide
 assistance to any competitor of Gaussian, Inc.  The licensee
 of this program is prohibited from giving any competitor of
 Gaussian, Inc. access to this program.  By using this program,
 the user acknowledges that Gaussian, Inc. is engaged in the
 business of creating and licensing software in the field of
 computational chemistry and represents and warrants to the
 licensee that it is not a competitor of Gaussian, Inc. and that
 it will not use this program in any manner prohibited above.
 ---------------------------------------------------------------
  

 Cite this work as:
 Gaussian 16, Revision C.01,
 M. J. Frisch, G. W. Trucks, H. B. Schlegel, G. E. Scuseria, 
 M. A. Robb, J. R. Cheeseman, G. Scalmani, V. Barone, 
 G. A. Petersson, H. Nakatsuji, X. Li, M. Caricato, A. V. Marenich, 
 J. Bloino, B. G. Janesko, R. Gomperts, B. Mennucci, H. P. Hratchian, 
 J. V. Ortiz, A. F. Izmaylov, J. L. Sonnenberg, D. Williams-Young, 
 F. Ding, F. Lipparini, F. Egidi, J. Goings, B. Peng, A. Petrone, 
 T. Henderson, D. Ranasinghe, V. G. Zakrzewski, J. Gao, N. Rega, 
 G. Zheng, W. Liang, M. Hada, M. Ehara, K. Toyota, R. Fukuda, 
 J. Hasegawa, M. Ishida, T. Nakajima, Y. Honda, O. Kitao, H. Nakai, 
 T. Vreven, K. Throssell, J. A. Montgomery, Jr., J. E. Peralta, 
 F. Ogliaro, M. J. Bearpark, J. J. Heyd, E. N. Brothers, K. N. Kudin, 
 V. N. Staroverov, T. A. Keith, R. Kobayashi, J. Normand, 
 K. Raghavachari, A. P. Rendell, J. C. Burant, S. S. Iyengar, 
 J. Tomasi, M. Cossi, J. M. Millam, M. Klene, C. Adamo, R. Cammi, 
 J. W. Ochterski, R. L. Martin, K. Morokuma, O. Farkas, 
 J. B. Foresman, and D. J. Fox, Gaussian, Inc., Wallingford CT, 2019.
 
 ******************************************
 Gaussian 16:  AS64L-G16RevC.01  3-Jul-2019
                 8-May-2024 
 ******************************************
 %nprocshared=8
 Will use up to    8 processors via shared memory.
 %mem=32GB
 ------------------
 # wb97xd/def2qzvpp
 ------------------
 1/38=1,172=1/1;
 2/12=2,17=6,18=5,40=1/2;
 3/5=45,7=202,11=2,25=1,30=1,74=-58/1,2,3;
 4//1;
 5/5=2,38=5/2;
 6/7=2,8=2,9=2,10=2,28=1/1;
 99/5=1,9=1/99;
 ----------------------
 Ac4_rdkit_conf_2_qzvpp
 ----------------------
 Symbolic Z-matrix:
 Charge =  0 Multiplicity = 1
 C                     1.6806    2.51045  -0.04597 
 O                     0.52281   1.70543  -0.03364 
 C                     0.66602   0.3682   -0.00485 
 C                     1.91698  -0.25199   0.00881 
 C                     2.01782  -1.63393   0.02549 
 C                     0.88225  -2.42862   0.02457 
 C                    -0.35793  -1.8176    0.0092 
 C                    -0.49275  -0.43166   0.00003 
 C                    -1.89604   0.07073  -0.0077 
 O                    -2.85132  -0.6526   -0.12756 
 O                    -2.03693   1.39426   0.14599 
 H                     1.3272    3.53734  -0.06938 
 H                     2.28256   2.35341   0.85261 
 H                     2.29046   2.31505  -0.93167 
 H                     2.8182    0.34174   0.00483 
 H                     3.00054  -2.08816   0.03722 
 H                     0.9616   -3.50654   0.03557 
 H                    -1.26779  -2.40243   0.00543 
 H                    -2.99094   1.55943   0.12962 
 
                          Input orientation:                          
 ---------------------------------------------------------------------
 Center     Atomic      Atomic             Coordinates (Angstroms)
 Number     Number       Type             X           Y           Z
 ---------------------------------------------------------------------
      1          6           0        1.680600    2.510447   -0.045968
      2          8           0        0.522812    1.705425   -0.033635
      3          6           0        0.666020    0.368203   -0.004849
      4          6           0        1.916982   -0.251987    0.008808
      5          6           0        2.017818   -1.633932    0.025487
      6          6           0        0.882246   -2.428619    0.024572
      7          6           0       -0.357926   -1.817600    0.009196
      8          6           0       -0.492751   -0.431661    0.000034
      9          6           0       -1.896044    0.070725   -0.007704
     10          8           0       -2.851320   -0.652599   -0.127563
     11          8           0       -2.036930    1.394261    0.145988
     12          1           0        1.327203    3.537343   -0.069384
     13          1           0        2.282556    2.353413    0.852605
     14          1           0        2.290458    2.315049   -0.931668
     15          1           0        2.818195    0.341738    0.004825
     16          1           0        3.000541   -2.088160    0.037217
     17          1           0        0.961599   -3.506535    0.035569
     18          1           0       -1.267787   -2.402434    0.005433
     19          1           0       -2.990939    1.559427    0.129619
 ---------------------------------------------------------------------
                    Distance matrix (angstroms):
                    1          2          3          4          5
     1  C    0.000000
     2  O    1.410208   0.000000
     3  C    2.370711   1.345177   0.000000
     4  C    2.773070   2.403533   1.396327   0.000000
     5  C    4.158690   3.659214   2.415952   1.385719   0.000000
     6  C    5.003670   4.150048   2.805322   2.410115   1.386020
     7  C    4.784415   3.631699   2.413793   2.761585   2.382889
     8  C    3.658083   2.366356   1.408033   2.416438   2.783713
     9  C    4.329675   2.919551   2.579278   3.826693   4.269107
    10  O    5.527189   4.117507   3.664529   4.787044   4.969401
    11  O    3.886225   2.584834   2.895080   4.285134   5.062159
    12  H    1.086256   2.001061   3.238020   3.835750   5.218049
    13  H    1.092906   2.074128   2.699903   2.762924   4.080825
    14  H    1.092965   2.074290   2.699630   2.759285   4.072460
    15  H    2.449490   2.670188   2.152359   1.079217   2.131737
    16  H    4.785013   4.531605   3.389023   2.132238   1.082684
    17  H    6.060337   5.230856   3.886206   3.391984   2.149963
    18  H    5.729924   4.481325   3.378779   3.842810   3.374344
    19  H    4.770592   3.520570   3.848434   5.232925   5.941046
                    6          7          8          9         10
     6  C    0.000000
     7  C    1.382609   0.000000
     8  C    2.424677   1.392512   0.000000
     9  C    3.737199   2.435542   1.490531   0.000000
    10  O    4.137258   2.755530   2.372328   1.204208   0.000000
    11  O    4.811522   3.626819   2.395784   1.339857   2.219842
    12  H    5.983270   5.614379   4.366926   4.733980   5.917690
    13  H    5.051172   5.008077   4.023163   4.838543   6.029388
    14  H    5.039826   4.997795   4.019793   4.839163   5.990943
    15  H    3.379818   3.840639   3.400078   4.722039   5.757572
    16  H    2.145518   3.369464   3.866324   5.351574   6.027625
    17  H    1.080889   2.143442   3.401654   4.578732   4.765492
    18  H    2.150278   1.081615   2.117701   2.551743   2.363723
    19  H    5.560315   4.283873   3.197212   1.853075   2.231299
                   11         12         13         14         15
    11  O    0.000000
    12  H    3.994568   0.000000
    13  H    4.480763   1.778891   0.000000
    14  H    4.553623   1.779156   1.784703   0.000000
    15  H    4.969906   3.527103   2.247771   2.247105   0.000000
    16  H    6.124965   5.870069   4.572519   4.564122   2.436946
    17  H    5.746405   7.054141   6.062299   6.049153   4.272833
    18  H    3.876368   6.482324   5.995058   5.982801   4.921964
    19  H    0.968339   4.753746   5.381716   5.439710   5.936698
                   16         17         18         19
    16  H    0.000000
    17  H    2.483762   0.000000
    18  H    4.280000   2.487993   0.000000
    19  H    7.015074   6.426148   4.322154   0.000000
 Stoichiometry    C8H8O3
 Framework group  C1[X(C8H8O3)]
 Deg. of freedom    51
 Full point group                 C1      NOp   1
 Largest Abelian subgroup         C1      NOp   1
 Largest concise Abelian subgroup C1      NOp   1
                         Standard orientation:                         
 ---------------------------------------------------------------------
 Center     Atomic      Atomic             Coordinates (Angstroms)
 Number     Number       Type             X           Y           Z
 ---------------------------------------------------------------------
      1          6           0       -1.680601    2.510446    0.045968
      2          8           0       -0.522813    1.705425    0.033635
      3          6           0       -0.666020    0.368203    0.004849
      4          6           0       -1.916982   -0.251988   -0.008808
      5          6           0       -2.017817   -1.633933   -0.025487
      6          6           0       -0.882245   -2.428619   -0.024572
      7          6           0        0.357927   -1.817600   -0.009196
      8          6           0        0.492751   -0.431661   -0.000034
      9          6           0        1.896044    0.070726    0.007704
     10          8           0        2.851320   -0.652598    0.127563
     11          8           0        2.036929    1.394262   -0.145988
     12          1           0       -1.327205    3.537343    0.069384
     13          1           0       -2.282557    2.353412   -0.852605
     14          1           0       -2.290459    2.315048    0.931668
     15          1           0       -2.818195    0.341737   -0.004825
     16          1           0       -3.000540   -2.088161   -0.037217
     17          1           0       -0.961598   -3.506535   -0.035569
     18          1           0        1.267788   -2.402433   -0.005433
     19          1           0        2.990938    1.559428   -0.129619
 ---------------------------------------------------------------------
 Rotational constants (GHZ):           1.4121687           1.1670760           0.6427161
 Standard basis: def2QZVPP (5D, 7F)
 There are  1072 symmetry adapted cartesian basis functions of A   symmetry.
 There are   867 symmetry adapted basis functions of A   symmetry.
   867 basis functions,  1316 primitive gaussians,  1072 cartesian basis functions
    40 alpha electrons       40 beta electrons
       nuclear repulsion energy       597.3001573793 Hartrees.
 NAtoms=   19 NActive=   19 NUniq=   19 SFac= 1.00D+00 NAtFMM=   60 NAOKFM=F Big=F
 Integral buffers will be    131072 words long.
 Raffenetti 2 integral format.
 Two-electron integral symmetry is turned on.
 Nuclear repulsion after empirical dispersion term =      597.2909795703 Hartrees.
 One-electron integrals computed using PRISM.
   1 Symmetry operations used in ECPInt.
 ECPInt:  NShTT=   35778 NPrTT=   90153 LenC2=   32250 LenP2D=   62980.
 LDataN:  DoStor=T MaxTD1= 8 Len=  415
 NBasis=   867 RedAO= T EigKep=  5.20D-06  NBF=   867
 NBsUse=   867 1.00D-06 EigRej= -1.00D+00 NBFU=   867
 ExpMin= 7.60D-02 ExpMax= 1.17D+05 ExpMxC= 1.13D+03 IAcc=3 IRadAn=         5 AccDes= 0.00D+00
 Harris functional with IExCor= 4639 and IRadAn=       5 diagonalized for initial guess.
 HarFok:  IExCor= 4639 AccDes= 0.00D+00 IRadAn=         5 IDoV= 1 UseB2=F ITyADJ=14
 ICtDFT=  3500011 ScaDFX=  1.000000  1.000000  1.000000  1.000000
 FoFCou: FMM=F IPFlag=           0 FMFlag=      100000 FMFlg1=           0
         NFxFlg=           0 DoJE=T BraDBF=F KetDBF=T FulRan=T
         wScrn=  0.000000 ICntrl=       500 IOpCl=  0 I1Cent=   200000004 NGrid=           0
         NMat0=    1 NMatS0=      1 NMatT0=    0 NMatD0=    1 NMtDS0=    0 NMtDT0=    0
 Petite list used in FoFCou.
 Requested convergence on RMS density matrix=1.00D-08 within 128 cycles.
 Requested convergence on MAX density matrix=1.00D-06.
 Requested convergence on             energy=1.00D-06.
 No special actions if energy rises.
 Integral accuracy reduced to 1.0D-05 until final iterations.
 Initial convergence to 1.0D-05 achieved.  Increase integral accuracy.
 SCF Done:  E(RwB97XD) =  -535.406905747     A.U. after   16 cycles
            NFock= 16  Conv=0.47D-08     -V/T= 2.0044

 **********************************************************************

            Population analysis using the SCF Density.

 **********************************************************************

 Orbital symmetries:
       Occupied  (A) (A) (A) (A) (A) (A) (A) (A) (A) (A) (A) (A)
                 (A) (A) (A) (A) (A) (A) (A) (A) (A) (A) (A) (A)
                 (A) (A) (A) (A) (A) (A) (A) (A) (A) (A) (A) (A)
                 (A) (A) (A) (A)
       Virtual   (A) (A) (A) (A) (A) (A) (A) (A) (A) (A) (A) (A)
                 (A) (A) (A) (A) (A) (A) (A) (A) (A) (A) (A) (A)
                 (A) (A) (A) (A) (A) (A) (A) (A) (A) (A) (A) (A)
                 (A) (A) (A) (A) (A) (A) (A) (A) (A) (A) (A) (A)
                 (A) (A) (A) (A) (A) (A) (A) (A) (A) (A) (A) (A)
                 (A) (A) (A) (A) (A) (A) (A) (A) (A) (A) (A) (A)
                 (A) (A) (A) (A) (A) (A) (A) (A) (A) (A) (A) (A)
                 (A) (A) (A) (A) (A) (A) (A) (A) (A) (A) (A) (A)
                 (A) (A) (A) (A) (A) (A) (A) (A) (A) (A) (A) (A)
                 (A) (A) (A) (A) (A) (A) (A) (A) (A) (A) (A) (A)
                 (A) (A) (A) (A) (A) (A) (A) (A) (A) (A) (A) (A)
                 (A) (A) (A) (A) (A) (A) (A) (A) (A) (A) (A) (A)
                 (A) (A) (A) (A) (A) (A) (A) (A) (A) (A) (A) (A)
                 (A) (A) (A) (A) (A) (A) (A) (A) (A) (A) (A) (A)
                 (A) (A) (A) (A) (A) (A) (A) (A) (A) (A) (A) (A)
                 (A) (A) (A) (A) (A) (A) (A) (A) (A) (A) (A) (A)
                 (A) (A) (A) (A) (A) (A) (A) (A) (A) (A) (A) (A)
                 (A) (A) (A) (A) (A) (A) (A) (A) (A) (A) (A) (A)
                 (A) (A) (A) (A) (A) (A) (A) (A) (A) (A) (A) (A)
                 (A) (A) (A) (A) (A) (A) (A) (A) (A) (A) (A) (A)
                 (A) (A) (A) (A) (A) (A) (A) (A) (A) (A) (A) (A)
                 (A) (A) (A) (A) (A) (A) (A) (A) (A) (A) (A) (A)
                 (A) (A) (A) (A) (A) (A) (A) (A) (A) (A) (A) (A)
                 (A) (A) (A) (A) (A) (A) (A) (A) (A) (A) (A) (A)
                 (A) (A) (A) (A) (A) (A) (A) (A) (A) (A) (A) (A)
                 (A) (A) (A) (A) (A) (A) (A) (A) (A) (A) (A) (A)
                 (A) (A) (A) (A) (A) (A) (A) (A) (A) (A) (A) (A)
                 (A) (A) (A) (A) (A) (A) (A) (A) (A) (A) (A) (A)
                 (A) (A) (A) (A) (A) (A) (A) (A) (A) (A) (A) (A)
                 (A) (A) (A) (A) (A) (A) (A) (A) (A) (A) (A) (A)
                 (A) (A) (A) (A) (A) (A) (A) (A) (A) (A) (A) (A)
                 (A) (A) (A) (A) (A) (A) (A) (A) (A) (A) (A) (A)
                 (A) (A) (A) (A) (A) (A) (A) (A) (A) (A) (A) (A)
                 (A) (A) (A) (A) (A) (A) (A) (A) (A) (A) (A) (A)
                 (A) (A) (A) (A) (A) (A) (A) (A) (A) (A) (A) (A)
                 (A) (A) (A) (A) (A) (A) (A) (A) (A) (A) (A) (A)
                 (A) (A) (A) (A) (A) (A) (A) (A) (A) (A) (A) (A)
                 (A) (A) (A) (A) (A) (A) (A) (A) (A) (A) (A) (A)
                 (A) (A) (A) (A) (A) (A) (A) (A) (A) (A) (A) (A)
                 (A) (A) (A) (A) (A) (A) (A) (A) (A) (A) (A) (A)
                 (A) (A) (A) (A) (A) (A) (A) (A) (A) (A) (A) (A)
                 (A) (A) (A) (A) (A) (A) (A) (A) (A) (A) (A) (A)
                 (A) (A) (A) (A) (A) (A) (A) (A) (A) (A) (A) (A)
                 (A) (A) (A) (A) (A) (A) (A) (A) (A) (A) (A) (A)
                 (A) (A) (A) (A) (A) (A) (A) (A) (A) (A) (A) (A)
                 (A) (A) (A) (A) (A) (A) (A) (A) (A) (A) (A) (A)
                 (A) (A) (A) (A) (A) (A) (A) (A) (A) (A) (A) (A)
                 (A) (A) (A) (A) (A) (A) (A) (A) (A) (A) (A) (A)
                 (A) (A) (A) (A) (A) (A) (A) (A) (A) (A) (A) (A)
                 (A) (A) (A) (A) (A) (A) (A) (A) (A) (A) (A) (A)
                 (A) (A) (A) (A) (A) (A) (A) (A) (A) (A) (A) (A)
                 (A) (A) (A) (A) (A) (A) (A) (A) (A) (A) (A) (A)
                 (A) (A) (A) (A) (A) (A) (A) (A) (A) (A) (A) (A)
                 (A) (A) (A) (A) (A) (A) (A) (A) (A) (A) (A) (A)
                 (A) (A) (A) (A) (A) (A) (A) (A) (A) (A) (A) (A)
                 (A) (A) (A) (A) (A) (A) (A) (A) (A) (A) (A) (A)
                 (A) (A) (A) (A) (A) (A) (A) (A) (A) (A) (A) (A)
                 (A) (A) (A) (A) (A) (A) (A) (A) (A) (A) (A) (A)
                 (A) (A) (A) (A) (A) (A) (A) (A) (A) (A) (A) (A)
                 (A) (A) (A) (A) (A) (A) (A) (A) (A) (A) (A) (A)
                 (A) (A) (A) (A) (A) (A) (A) (A) (A) (A) (A) (A)
                 (A) (A) (A) (A) (A) (A) (A) (A) (A) (A) (A) (A)
                 (A) (A) (A) (A) (A) (A) (A) (A) (A) (A) (A) (A)
                 (A) (A) (A) (A) (A) (A) (A) (A) (A) (A) (A) (A)
                 (A) (A) (A) (A) (A) (A) (A) (A) (A) (A) (A) (A)
                 (A) (A) (A) (A) (A) (A) (A) (A) (A) (A) (A) (A)
                 (A) (A) (A) (A) (A) (A) (A) (A) (A) (A) (A) (A)
                 (A) (A) (A) (A) (A) (A) (A) (A) (A) (A) (A) (A)
                 (A) (A) (A) (A) (A) (A) (A) (A) (A) (A) (A)
 The electronic state is 1-A.
 Alpha  occ. eigenvalues --  -19.29365 -19.29319 -19.23038 -10.42012 -10.37089
 Alpha  occ. eigenvalues --  -10.34619 -10.30814 -10.30638 -10.30056 -10.29767
 Alpha  occ. eigenvalues --  -10.29089  -1.21379  -1.18772  -1.11539  -0.97157
 Alpha  occ. eigenvalues --   -0.88135  -0.86219  -0.81061  -0.76065  -0.70128
 Alpha  occ. eigenvalues --   -0.69106  -0.64385  -0.60497  -0.58572  -0.57598
 Alpha  occ. eigenvalues --   -0.56377  -0.55665  -0.54297  -0.53813  -0.50929
 Alpha  occ. eigenvalues --   -0.49112  -0.47831  -0.46783  -0.45010  -0.42442
 Alpha  occ. eigenvalues --   -0.41530  -0.40575  -0.36587  -0.34431  -0.31224
 Alpha virt. eigenvalues --    0.01462   0.06047   0.08326   0.10037   0.10463
 Alpha virt. eigenvalues --    0.12270   0.12536   0.12918   0.14220   0.15100
 Alpha virt. eigenvalues --    0.16015   0.17373   0.18451   0.18826   0.19536
 Alpha virt. eigenvalues --    0.20145   0.22343   0.22630   0.23218   0.23964
 Alpha virt. eigenvalues --    0.24568   0.25582   0.25604   0.26526   0.27662
 Alpha virt. eigenvalues --    0.28556   0.29807   0.30917   0.31634   0.32649
 Alpha virt. eigenvalues --    0.33628   0.33810   0.34093   0.34635   0.35427
 Alpha virt. eigenvalues --    0.35871   0.36746   0.37080   0.37640   0.38955
 Alpha virt. eigenvalues --    0.39154   0.39870   0.40730   0.41168   0.42037
 Alpha virt. eigenvalues --    0.42781   0.42902   0.43340   0.44150   0.45245
 Alpha virt. eigenvalues --    0.45951   0.47663   0.47760   0.49615   0.50178
 Alpha virt. eigenvalues --    0.50720   0.51512   0.51919   0.52531   0.52870
 Alpha virt. eigenvalues --    0.53893   0.54223   0.55410   0.57406   0.57931
 Alpha virt. eigenvalues --    0.58872   0.59098   0.59851   0.60734   0.61945
 Alpha virt. eigenvalues --    0.62879   0.64329   0.65327   0.65773   0.68070
 Alpha virt. eigenvalues --    0.68261   0.70370   0.71060   0.71277   0.71635
 Alpha virt. eigenvalues --    0.74625   0.75467   0.76451   0.77032   0.77289
 Alpha virt. eigenvalues --    0.78413   0.79136   0.79350   0.79862   0.80281
 Alpha virt. eigenvalues --    0.81598   0.82736   0.83509   0.83597   0.84608
 Alpha virt. eigenvalues --    0.85766   0.86506   0.87654   0.87885   0.89030
 Alpha virt. eigenvalues --    0.90514   0.90931   0.91829   0.92578   0.93901
 Alpha virt. eigenvalues --    0.94716   0.96116   0.96894   0.97650   0.98683
 Alpha virt. eigenvalues --    0.99334   0.99365   1.00385   1.01869   1.02223
 Alpha virt. eigenvalues --    1.03604   1.04147   1.04682   1.05708   1.06729
 Alpha virt. eigenvalues --    1.07230   1.08636   1.08723   1.09234   1.10934
 Alpha virt. eigenvalues --    1.11206   1.11524   1.13197   1.13527   1.14104
 Alpha virt. eigenvalues --    1.15218   1.15287   1.16464   1.18144   1.18960
 Alpha virt. eigenvalues --    1.20781   1.21944   1.22689   1.23577   1.25777
 Alpha virt. eigenvalues --    1.26774   1.27700   1.29632   1.30695   1.31859
 Alpha virt. eigenvalues --    1.32971   1.34196   1.35484   1.36168   1.37225
 Alpha virt. eigenvalues --    1.38157   1.40246   1.41397   1.42271   1.43480
 Alpha virt. eigenvalues --    1.44680   1.45322   1.48342   1.49648   1.50767
 Alpha virt. eigenvalues --    1.52165   1.52541   1.53513   1.54432   1.55604
 Alpha virt. eigenvalues --    1.56788   1.57779   1.58115   1.60186   1.61636
 Alpha virt. eigenvalues --    1.62052   1.63540   1.64040   1.65076   1.66463
 Alpha virt. eigenvalues --    1.67630   1.69945   1.70436   1.72569   1.74160
 Alpha virt. eigenvalues --    1.75553   1.76700   1.76877   1.78770   1.80101
 Alpha virt. eigenvalues --    1.82133   1.82863   1.83305   1.83932   1.85940
 Alpha virt. eigenvalues --    1.86780   1.87194   1.90058   1.90681   1.91485
 Alpha virt. eigenvalues --    1.91702   1.91935   1.93163   1.93812   1.95653
 Alpha virt. eigenvalues --    1.96016   1.97221   1.97814   1.99503   2.00572
 Alpha virt. eigenvalues --    2.00743   2.02492   2.04669   2.05427   2.05726
 Alpha virt. eigenvalues --    2.07528   2.07708   2.07964   2.08461   2.08892
 Alpha virt. eigenvalues --    2.10265   2.11642   2.13356   2.14695   2.15117
 Alpha virt. eigenvalues --    2.16098   2.16404   2.17301   2.17786   2.18355
 Alpha virt. eigenvalues --    2.19321   2.19975   2.20927   2.21700   2.23384
 Alpha virt. eigenvalues --    2.24045   2.24305   2.27046   2.27680   2.28309
 Alpha virt. eigenvalues --    2.29932   2.30456   2.31046   2.32046   2.32410
 Alpha virt. eigenvalues --    2.33576   2.34629   2.35959   2.37517   2.37857
 Alpha virt. eigenvalues --    2.38062   2.40213   2.40800   2.41290   2.41672
 Alpha virt. eigenvalues --    2.43066   2.44324   2.45278   2.46177   2.47825
 Alpha virt. eigenvalues --    2.48164   2.49345   2.49592   2.51204   2.51760
 Alpha virt. eigenvalues --    2.52093   2.53977   2.54162   2.55371   2.55915
 Alpha virt. eigenvalues --    2.56297   2.58441   2.59394   2.60917   2.61519
 Alpha virt. eigenvalues --    2.62116   2.62865   2.64073   2.64778   2.65924
 Alpha virt. eigenvalues --    2.67898   2.68158   2.69062   2.69664   2.71186
 Alpha virt. eigenvalues --    2.71846   2.72777   2.74441   2.74791   2.75202
 Alpha virt. eigenvalues --    2.77270   2.78591   2.78818   2.79957   2.80879
 Alpha virt. eigenvalues --    2.81119   2.82263   2.83597   2.85437   2.86016
 Alpha virt. eigenvalues --    2.86053   2.87815   2.88450   2.89743   2.92607
 Alpha virt. eigenvalues --    2.93257   2.93858   2.94244   2.94882   2.96008
 Alpha virt. eigenvalues --    2.96956   2.98635   3.01361   3.01660   3.03219
 Alpha virt. eigenvalues --    3.04273   3.06113   3.06428   3.10785   3.11536
 Alpha virt. eigenvalues --    3.12490   3.13326   3.14116   3.15652   3.17207
 Alpha virt. eigenvalues --    3.18658   3.22053   3.22763   3.24212   3.24940
 Alpha virt. eigenvalues --    3.27036   3.28914   3.31703   3.32826   3.33008
 Alpha virt. eigenvalues --    3.35470   3.36704   3.38522   3.40731   3.42676
 Alpha virt. eigenvalues --    3.45115   3.45936   3.47424   3.48565   3.49064
 Alpha virt. eigenvalues --    3.50939   3.51571   3.52728   3.54038   3.55212
 Alpha virt. eigenvalues --    3.55620   3.57113   3.59535   3.61414   3.62808
 Alpha virt. eigenvalues --    3.63354   3.65490   3.66347   3.67969   3.70999
 Alpha virt. eigenvalues --    3.71775   3.72373   3.76755   3.79679   3.82162
 Alpha virt. eigenvalues --    3.82916   3.86174   3.87460   3.88375   3.88475
 Alpha virt. eigenvalues --    3.90417   3.91691   3.92575   3.94532   3.96706
 Alpha virt. eigenvalues --    3.97186   3.98637   4.02547   4.03459   4.06708
 Alpha virt. eigenvalues --    4.07890   4.08513   4.11657   4.13842   4.15358
 Alpha virt. eigenvalues --    4.17876   4.19143   4.21585   4.23855   4.24454
 Alpha virt. eigenvalues --    4.24985   4.29451   4.32107   4.33199   4.33829
 Alpha virt. eigenvalues --    4.35173   4.37761   4.39475   4.41577   4.42393
 Alpha virt. eigenvalues --    4.45365   4.47499   4.48159   4.51830   4.53707
 Alpha virt. eigenvalues --    4.57457   4.58428   4.59101   4.65058   4.65518
 Alpha virt. eigenvalues --    4.66224   4.69150   4.71101   4.72775   4.73093
 Alpha virt. eigenvalues --    4.75483   4.80992   4.85867   4.86096   4.87224
 Alpha virt. eigenvalues --    4.89856   4.94951   4.96823   4.97836   5.00496
 Alpha virt. eigenvalues --    5.02000   5.04500   5.05963   5.06694   5.09118
 Alpha virt. eigenvalues --    5.11708   5.12717   5.14562   5.15811   5.16643
 Alpha virt. eigenvalues --    5.17945   5.18944   5.19483   5.21820   5.22729
 Alpha virt. eigenvalues --    5.24391   5.26933   5.29126   5.30775   5.32387
 Alpha virt. eigenvalues --    5.33628   5.35117   5.36293   5.37316   5.40950
 Alpha virt. eigenvalues --    5.42508   5.42992   5.44102   5.46979   5.48112
 Alpha virt. eigenvalues --    5.50464   5.50745   5.51717   5.52827   5.56705
 Alpha virt. eigenvalues --    5.58005   5.59357   5.59876   5.62149   5.63286
 Alpha virt. eigenvalues --    5.64066   5.65282   5.68940   5.70125   5.71768
 Alpha virt. eigenvalues --    5.72991   5.74337   5.76835   5.77135   5.78317
 Alpha virt. eigenvalues --    5.80758   5.84147   5.85487   5.86134   5.88099
 Alpha virt. eigenvalues --    5.88392   5.88750   5.89048   5.91485   5.92895
 Alpha virt. eigenvalues --    5.93783   5.94452   5.95647   5.97158   5.97726
 Alpha virt. eigenvalues --    5.99672   6.00844   6.01487   6.02453   6.03631
 Alpha virt. eigenvalues --    6.05353   6.07619   6.09253   6.10221   6.10493
 Alpha virt. eigenvalues --    6.10984   6.12586   6.13979   6.14219   6.14978
 Alpha virt. eigenvalues --    6.16806   6.17337   6.18371   6.20486   6.22850
 Alpha virt. eigenvalues --    6.22895   6.24378   6.25971   6.26527   6.26757
 Alpha virt. eigenvalues --    6.27382   6.28655   6.29294   6.30014   6.32629
 Alpha virt. eigenvalues --    6.33435   6.34119   6.34295   6.34983   6.36589
 Alpha virt. eigenvalues --    6.37581   6.38209   6.39401   6.40050   6.40830
 Alpha virt. eigenvalues --    6.42323   6.43087   6.43912   6.45183   6.45686
 Alpha virt. eigenvalues --    6.46712   6.48342   6.51927   6.52468   6.52776
 Alpha virt. eigenvalues --    6.54250   6.54961   6.57991   6.60115   6.62298
 Alpha virt. eigenvalues --    6.62641   6.62997   6.63672   6.67141   6.68213
 Alpha virt. eigenvalues --    6.68974   6.70267   6.71230   6.71971   6.73233
 Alpha virt. eigenvalues --    6.74058   6.74267   6.75012   6.79416   6.79903
 Alpha virt. eigenvalues --    6.81036   6.82098   6.83453   6.84501   6.85017
 Alpha virt. eigenvalues --    6.85869   6.89369   6.90482   6.91082   6.93060
 Alpha virt. eigenvalues --    6.94449   6.96755   6.97589   6.99138   7.00035
 Alpha virt. eigenvalues --    7.03458   7.07524   7.08267   7.10300   7.11204
 Alpha virt. eigenvalues --    7.12467   7.13267   7.14815   7.15565   7.17511
 Alpha virt. eigenvalues --    7.24037   7.25138   7.26358   7.27223   7.29089
 Alpha virt. eigenvalues --    7.31956   7.35098   7.36794   7.38599   7.39157
 Alpha virt. eigenvalues --    7.41364   7.42408   7.44206   7.45193   7.47309
 Alpha virt. eigenvalues --    7.48820   7.49403   7.51561   7.52809   7.53080
 Alpha virt. eigenvalues --    7.56467   7.56928   7.57819   7.59194   7.61016
 Alpha virt. eigenvalues --    7.61576   7.62997   7.64713   7.66221   7.68718
 Alpha virt. eigenvalues --    7.72043   7.72482   7.74667   7.76271   7.77179
 Alpha virt. eigenvalues --    7.79468   7.79881   7.80651   7.84916   7.86818
 Alpha virt. eigenvalues --    7.88105   7.89475   7.91396   7.91665   7.93110
 Alpha virt. eigenvalues --    7.95445   7.99797   8.00350   8.01385   8.01806
 Alpha virt. eigenvalues --    8.03173   8.03329   8.05072   8.05203   8.10124
 Alpha virt. eigenvalues --    8.14200   8.16210   8.21886   8.22596   8.23014
 Alpha virt. eigenvalues --    8.24419   8.25353   8.27140   8.28494   8.30478
 Alpha virt. eigenvalues --    8.34481   8.34741   8.35470   8.35907   8.37954
 Alpha virt. eigenvalues --    8.40078   8.40545   8.41342   8.41720   8.42386
 Alpha virt. eigenvalues --    8.43021   8.46184   8.46419   8.49526   8.49745
 Alpha virt. eigenvalues --    8.51025   8.51813   8.53163   8.54104   8.57566
 Alpha virt. eigenvalues --    8.58079   8.59340   8.60903   8.62121   8.64373
 Alpha virt. eigenvalues --    8.66219   8.66773   8.67579   8.69372   8.71782
 Alpha virt. eigenvalues --    8.73822   8.79376   8.80575   8.81219   8.81934
 Alpha virt. eigenvalues --    8.83236   8.86150   8.89050   8.91374   8.92081
 Alpha virt. eigenvalues --    8.93749   8.94971   8.96508   8.98281   8.99259
 Alpha virt. eigenvalues --    9.00267   9.00643   9.01870   9.04878   9.05346
 Alpha virt. eigenvalues --    9.08736   9.16319   9.17293   9.20473   9.28984
 Alpha virt. eigenvalues --    9.29305   9.34573   9.41381   9.45447   9.48134
 Alpha virt. eigenvalues --    9.54504   9.55429   9.59254   9.62468   9.63328
 Alpha virt. eigenvalues --    9.71145   9.76940   9.77517   9.79314   9.82459
 Alpha virt. eigenvalues --    9.82729   9.85295   9.89050   9.89656   9.91670
 Alpha virt. eigenvalues --    9.93979   9.95304   9.96377  10.00038  10.01448
 Alpha virt. eigenvalues --   10.06756  10.10522  10.12833  10.14092  10.15660
 Alpha virt. eigenvalues --   10.17414  10.18373  10.23247  10.24525  10.26445
 Alpha virt. eigenvalues --   10.30631  10.35872  10.36097  10.37054  10.42251
 Alpha virt. eigenvalues --   10.42859  10.44114  10.48246  10.52397  10.52963
 Alpha virt. eigenvalues --   10.54305  10.60150  10.71300  10.84129  10.86332
 Alpha virt. eigenvalues --   10.87164  10.97010  10.98412  10.99982  11.10546
 Alpha virt. eigenvalues --   11.11098  11.21324  11.22217  11.40667  11.48054
 Alpha virt. eigenvalues --   11.51630  11.55474  11.62650  11.68453  11.74010
 Alpha virt. eigenvalues --   11.76424  11.78159  11.80706  11.94749  11.95302
 Alpha virt. eigenvalues --   11.95870  12.00704  12.09783  12.10350  12.15072
 Alpha virt. eigenvalues --   12.16545  12.22300  12.25248  12.28412  12.31607
 Alpha virt. eigenvalues --   12.34884  12.43240  12.52646  12.57142  12.66819
 Alpha virt. eigenvalues --   12.69117  12.80073  12.83209  12.85750  12.96615
 Alpha virt. eigenvalues --   12.97436  13.28941  13.30493  13.39354  13.47072
 Alpha virt. eigenvalues --   13.67145  13.74169  13.86151  13.87214  14.18651
 Alpha virt. eigenvalues --   14.30455  14.55486  14.67660  14.85973  16.74261
 Alpha virt. eigenvalues --   27.94627  28.43409  28.55664  28.62247  28.95456
 Alpha virt. eigenvalues --   29.04745  29.11396  29.46889  48.28358  48.49038
 Alpha virt. eigenvalues --   48.54211 147.09578 147.55112 147.66814 147.74693
 Alpha virt. eigenvalues --  148.03787 148.15744 148.21011 148.58343 253.40306
 Alpha virt. eigenvalues --  253.64114 253.68112
          Condensed to atoms (all electrons):
               1          2          3          4          5          6
     1  C    4.466094   0.319696  -0.056314  -0.021911   0.001169  -0.000078
     2  O    0.319696   7.938599   0.427143  -0.098748   0.004890  -0.000253
     3  C   -0.056314   0.427143   5.183977   0.382685  -0.106019  -0.041520
     4  C   -0.021911  -0.098748   0.382685   5.149379   0.536967  -0.091905
     5  C    0.001169   0.004890  -0.106019   0.536967   4.907528   0.557758
     6  C   -0.000078  -0.000253  -0.041520  -0.091905   0.557758   4.959820
     7  C   -0.000225   0.007201  -0.142448  -0.058408  -0.099736   0.555348
     8  C    0.007805  -0.096159   0.293754  -0.103513  -0.030757  -0.115665
     9  C    0.000420   0.000921  -0.070231   0.004059  -0.000018   0.004530
    10  O    0.000054   0.000077   0.007698  -0.002284   0.000867   0.004618
    11  O    0.001223  -0.015613   0.004942   0.001500   0.000277  -0.000173
    12  H    0.413529  -0.040214   0.005153  -0.002356  -0.000257  -0.000000
    13  H    0.402198  -0.041367  -0.006734   0.010864   0.001115   0.000029
    14  H    0.401213  -0.038963  -0.006203   0.010127   0.000600  -0.000050
    15  H   -0.001450  -0.007662  -0.049357   0.372780  -0.032372   0.011491
    16  H    0.000045  -0.000207   0.010469  -0.013222   0.341989  -0.034991
    17  H   -0.000005   0.000019  -0.001878   0.009666  -0.029208   0.367006
    18  H    0.000017  -0.000051   0.014591  -0.003858   0.007833  -0.046089
    19  H   -0.000183   0.000651  -0.001816   0.000425  -0.000041   0.000101
               7          8          9         10         11         12
     1  C   -0.000225   0.007805   0.000420   0.000054   0.001223   0.413529
     2  O    0.007201  -0.096159   0.000921   0.000077  -0.015613  -0.040214
     3  C   -0.142448   0.293754  -0.070231   0.007698   0.004942   0.005153
     4  C   -0.058408  -0.103513   0.004059  -0.002284   0.001500  -0.002356
     5  C   -0.099736  -0.030757  -0.000018   0.000867   0.000277  -0.000257
     6  C    0.555348  -0.115665   0.004530   0.004618  -0.000173  -0.000000
     7  C    5.043110   0.492956  -0.124389  -0.007883   0.007623   0.000231
     8  C    0.492956   5.429770   0.352857  -0.116264  -0.117945   0.001597
     9  C   -0.124389   0.352857   4.317791   0.755759   0.476117  -0.000055
    10  O   -0.007883  -0.116264   0.755759   7.804202  -0.110074  -0.000003
    11  O    0.007623  -0.117945   0.476117  -0.110074   7.781199   0.000301
    12  H    0.000231   0.001597  -0.000055  -0.000003   0.000301   0.556652
    13  H   -0.000434  -0.002042   0.000005  -0.000000  -0.000090  -0.023063
    14  H   -0.000381  -0.000926  -0.000080  -0.000003  -0.000029  -0.023013
    15  H   -0.002215   0.007753  -0.000157  -0.000027   0.000069  -0.000618
    16  H    0.010345  -0.002853  -0.000012  -0.000001  -0.000002   0.000004
    17  H   -0.029888   0.009650  -0.000177  -0.000027   0.000003   0.000001
    18  H    0.357545  -0.015656  -0.008846   0.012077   0.001341   0.000002
    19  H   -0.001221   0.021770  -0.042167   0.015908   0.286783  -0.000023
              13         14         15         16         17         18
     1  C    0.402198   0.401213  -0.001450   0.000045  -0.000005   0.000017
     2  O   -0.041367  -0.038963  -0.007662  -0.000207   0.000019  -0.000051
     3  C   -0.006734  -0.006203  -0.049357   0.010469  -0.001878   0.014591
     4  C    0.010864   0.010127   0.372780  -0.013222   0.009666  -0.003858
     5  C    0.001115   0.000600  -0.032372   0.341989  -0.029208   0.007833
     6  C    0.000029  -0.000050   0.011491  -0.034991   0.367006  -0.046089
     7  C   -0.000434  -0.000381  -0.002215   0.010345  -0.029888   0.357545
     8  C   -0.002042  -0.000926   0.007753  -0.002853   0.009650  -0.015656
     9  C    0.000005  -0.000080  -0.000157  -0.000012  -0.000177  -0.008846
    10  O   -0.000000  -0.000003  -0.000027  -0.000001  -0.000027   0.012077
    11  O   -0.000090  -0.000029   0.000069  -0.000002   0.000003   0.001341
    12  H   -0.023063  -0.023013  -0.000618   0.000004   0.000001   0.000002
    13  H    0.639485  -0.042522   0.004185   0.000017   0.000001  -0.000008
    14  H   -0.042522   0.639370   0.003426   0.000031   0.000001  -0.000007
    15  H    0.004185   0.003426   0.657750  -0.003554  -0.000408  -0.000058
    16  H    0.000017   0.000031  -0.003554   0.608163  -0.002206  -0.000294
    17  H    0.000001   0.000001  -0.000408  -0.002206   0.592712  -0.002886
    18  H   -0.000008  -0.000007  -0.000058  -0.000294  -0.002886   0.579788
    19  H    0.000005   0.000013   0.000009   0.000000  -0.000001  -0.000161
              19
     1  C   -0.000183
     2  O    0.000651
     3  C   -0.001816
     4  C    0.000425
     5  C   -0.000041
     6  C    0.000101
     7  C   -0.001221
     8  C    0.021770
     9  C   -0.042167
    10  O    0.015908
    11  O    0.286783
    12  H   -0.000023
    13  H    0.000005
    14  H    0.000013
    15  H    0.000009
    16  H    0.000000
    17  H   -0.000001
    18  H   -0.000161
    19  H    0.479176
 Mulliken charges:
               1
     1  C    0.066703
     2  O   -0.359961
     3  C    0.152108
     4  C   -0.082244
     5  C   -0.062587
     6  C   -0.129977
     7  C   -0.007132
     8  C   -0.016130
     9  C    0.333672
    10  O   -0.364694
    11  O   -0.317451
    12  H    0.112130
    13  H    0.058356
    14  H    0.057397
    15  H    0.040417
    16  H    0.086279
    17  H    0.087626
    18  H    0.104719
    19  H    0.240770
 Sum of Mulliken charges =  -0.00000
 Mulliken charges with hydrogens summed into heavy atoms:
               1
     1  C    0.294585
     2  O   -0.359961
     3  C    0.152108
     4  C   -0.041827
     5  C    0.023692
     6  C   -0.042351
     7  C    0.097587
     8  C   -0.016130
     9  C    0.333672
    10  O   -0.364694
    11  O   -0.076681
 Electronic spatial extent (au):  <R**2>=           1704.2965
 Charge=              0.0000 electrons
 Dipole moment (field-independent basis, Debye):
    X=             -3.1489    Y=              1.6275    Z=             -0.1705  Tot=              3.5487
 Quadrupole moment (field-independent basis, Debye-Ang):
   XX=            -59.9315   YY=            -55.5212   ZZ=            -65.5737
   XY=              3.2006   XZ=             -0.9071   YZ=              0.4387
 Traceless Quadrupole moment (field-independent basis, Debye-Ang):
   XX=              0.4106   YY=              4.8209   ZZ=             -5.2315
   XY=              3.2006   XZ=             -0.9071   YZ=              0.4387
 Octapole moment (field-independent basis, Debye-Ang**2):
  XXX=             -8.0131  YYY=             15.7962  ZZZ=              0.2584  XYY=             -4.1179
  XXY=             32.5190  XXZ=             -3.3568  XZZ=              8.2705  YZZ=              9.4973
  YYZ=             -0.0367  XYZ=              0.1816
 Hexadecapole moment (field-independent basis, Debye-Ang**3):
 XXXX=          -1098.9635 YYYY=           -891.1778 ZZZZ=            -76.2173 XXXY=             94.5068
 XXXZ=            -11.4617 YYYX=             -5.1109 YYYZ=              0.9463 ZZZX=             -0.5608
 ZZZY=             -0.8941 XXYY=           -305.1649 XXZZ=           -205.5433 YYZZ=           -191.0616
 XXYZ=              0.5056 YYXZ=             -1.1411 ZZXY=             -6.0473
 N-N= 5.972909795703D+02 E-N=-2.446587501068D+03  KE= 5.330354602803D+02
 Unable to Open any file for archive entry.
 1\1\GINC-NODE20\SP\RwB97XD\def2QZVPP\C8H8O3\J77KING\08-May-2024\0\\# w
 b97xd/def2qzvpp\\Ac4_rdkit_conf_2_qzvpp\\0,1\C,0,1.6806,2.510447,-0.04
 5968\O,0,0.522812,1.705425,-0.033635\C,0,0.66602,0.368203,-0.004849\C,
 0,1.916982,-0.251987,0.008808\C,0,2.017818,-1.633932,0.025487\C,0,0.88
 2246,-2.428619,0.024572\C,0,-0.357926,-1.8176,0.009196\C,0,-0.492751,-
 0.431661,0.000034\C,0,-1.896044,0.070725,-0.007704\O,0,-2.85132,-0.652
 599,-0.127563\O,0,-2.03693,1.394261,0.145988\H,0,1.327203,3.537343,-0.
 069384\H,0,2.282556,2.353413,0.852605\H,0,2.290458,2.315049,-0.931668\
 H,0,2.818195,0.341738,0.004825\H,0,3.000541,-2.08816,0.037217\H,0,0.96
 1599,-3.506535,0.035569\H,0,-1.267787,-2.402434,0.005433\H,0,-2.990939
 ,1.559427,0.129619\\Version=AS64L-G16RevC.01\State=1-A\HF=-535.4069057
 \RMSD=4.663e-09\Dipole=1.2388887,0.6403003,0.0670634\Quadrupole=0.3052
 865,3.5842326,-3.8895191,-2.3795525,-0.6743814,-0.3261842\PG=C01 [X(C8
 H8O3)]\\@
 The archive entry for this job was punched.


 THERE IS NO CURE FOR BIRTH AND DEATH SAVE TO ENJOY THE INTERVAL.

                               -- GEORGE SANTAYANA
 Job cpu time:       0 days  2 hours 53 minutes 44.2 seconds.
 Elapsed time:       0 days  0 hours 22 minutes 11.9 seconds.
 File lengths (MBytes):  RWF=    409 Int=      0 D2E=      0 Chk=     44 Scr=      1
 Normal termination of Gaussian 16 at Wed May  8 19:32:06 2024.
