Job Start Time: Wed May  8 19:09:54 MDT 2024
SLURM Job ID: 265088
SLURM Job Name: Ac4_rdkit_conf_1_qzvpp
 Entering Gaussian System, Link 0=/opt/apps/Gaussian/G16C/g16/g16
 Initial command:
 /opt/apps/Gaussian/G16C/g16/l1.exe "/tmp/Gau-3097365.inp" -scrdir="/tmp/"
 Entering Link 1 = /opt/apps/Gaussian/G16C/g16/l1.exe PID=   3097366.
  
 Copyright (c) 1988-2019, Gaussian, Inc.  All Rights Reserved.
  
 This is part of the Gaussian(R) 16 program.  It is based on
 the Gaussian(R) 09 system (copyright 2009, Gaussian, Inc.),
 the Gaussian(R) 03 system (copyright 2003, Gaussian, Inc.),
 the Gaussian(R) 98 system (copyright 1998, Gaussian, Inc.),
 the Gaussian(R) 94 system (copyright 1995, Gaussian, Inc.),
 the Gaussian 92(TM) system (copyright 1992, Gaussian, Inc.),
 the Gaussian 90(TM) system (copyright 1990, Gaussian, Inc.),
 the Gaussian 88(TM) system (copyright 1988, Gaussian, Inc.),
 the Gaussian 86(TM) system (copyright 1986, Carnegie Mellon
 University), and the Gaussian 82(TM) system (copyright 1983,
 Carnegie Mellon University). Gaussian is a federally registered
 trademark of Gaussian, Inc.
  
 This software contains proprietary and confidential information,
 including trade secrets, belonging to Gaussian, Inc.
  
 This software is provided under written license and may be
 used, copied, transmitted, or stored only in accord with that
 written license.
  
 The following legend is applicable only to US Government
 contracts under FAR:
  
                    RESTRICTED RIGHTS LEGEND
  
 Use, reproduction and disclosure by the US Government is
 subject to restrictions as set forth in subparagraphs (a)
 and (c) of the Commercial Computer Software - Restricted
 Rights clause in FAR 52.227-19.
  
 Gaussian, Inc.
 340 Quinnipiac St., Bldg. 40, Wallingford CT 06492
  
  
 ---------------------------------------------------------------
 Warning -- This program may not be used in any manner that
 competes with the business of Gaussian, Inc. or will provide
 assistance to any competitor of Gaussian, Inc.  The licensee
 of this program is prohibited from giving any competitor of
 Gaussian, Inc. access to this program.  By using this program,
 the user acknowledges that Gaussian, Inc. is engaged in the
 business of creating and licensing software in the field of
 computational chemistry and represents and warrants to the
 licensee that it is not a competitor of Gaussian, Inc. and that
 it will not use this program in any manner prohibited above.
 ---------------------------------------------------------------
  

 Cite this work as:
 Gaussian 16, Revision C.01,
 M. J. Frisch, G. W. Trucks, H. B. Schlegel, G. E. Scuseria, 
 M. A. Robb, J. R. Cheeseman, G. Scalmani, V. Barone, 
 G. A. Petersson, H. Nakatsuji, X. Li, M. Caricato, A. V. Marenich, 
 J. Bloino, B. G. Janesko, R. Gomperts, B. Mennucci, H. P. Hratchian, 
 J. V. Ortiz, A. F. Izmaylov, J. L. Sonnenberg, D. Williams-Young, 
 F. Ding, F. Lipparini, F. Egidi, J. Goings, B. Peng, A. Petrone, 
 T. Henderson, D. Ranasinghe, V. G. Zakrzewski, J. Gao, N. Rega, 
 G. Zheng, W. Liang, M. Hada, M. Ehara, K. Toyota, R. Fukuda, 
 J. Hasegawa, M. Ishida, T. Nakajima, Y. Honda, O. Kitao, H. Nakai, 
 T. Vreven, K. Throssell, J. A. Montgomery, Jr., J. E. Peralta, 
 F. Ogliaro, M. J. Bearpark, J. J. Heyd, E. N. Brothers, K. N. Kudin, 
 V. N. Staroverov, T. A. Keith, R. Kobayashi, J. Normand, 
 K. Raghavachari, A. P. Rendell, J. C. Burant, S. S. Iyengar, 
 J. Tomasi, M. Cossi, J. M. Millam, M. Klene, C. Adamo, R. Cammi, 
 J. W. Ochterski, R. L. Martin, K. Morokuma, O. Farkas, 
 J. B. Foresman, and D. J. Fox, Gaussian, Inc., Wallingford CT, 2019.
 
 ******************************************
 Gaussian 16:  AS64L-G16RevC.01  3-Jul-2019
                 8-May-2024 
 ******************************************
 %nprocshared=8
 Will use up to    8 processors via shared memory.
 %mem=32GB
 ------------------
 # wb97xd/def2qzvpp
 ------------------
 1/38=1,172=1/1;
 2/12=2,17=6,18=5,40=1/2;
 3/5=45,7=202,11=2,25=1,30=1,74=-58/1,2,3;
 4//1;
 5/5=2,38=5/2;
 6/7=2,8=2,9=2,10=2,28=1/1;
 99/5=1,9=1/99;
 ----------------------
 Ac4_rdkit_conf_1_qzvpp
 ----------------------
 Symbolic Z-matrix:
 Charge =  0 Multiplicity = 1
 C                    -2.0465   -2.26067  -0.05619 
 O                    -0.78472  -1.63121  -0.03365 
 C                    -0.73337  -0.29098  -0.00378 
 C                    -1.87575   0.51093   0.00266 
 C                    -1.76295   1.89222   0.02171 
 C                    -0.51967   2.50367   0.02967 
 C                     0.61595   1.71255   0.01968 
 C                     0.53564   0.32216   0.00832 
 C                     1.78434  -0.48375   0.02403 
 O                     1.87782  -1.66792   0.18366 
 O                     2.88426   0.28664  -0.15822 
 H                    -2.62646  -2.01748   0.83768 
 H                    -2.61432  -1.9792   -0.9468 
 H                    -1.84393  -3.32751  -0.07715 
 H                    -2.85666   0.0609   -0.00764 
 H                    -2.66396   2.4925    0.02866 
 H                    -0.43425   3.58111   0.04324 
 H                     1.59522   2.16871   0.02499 
 H                     3.63924  -0.31589  -0.1139 
 
                          Input orientation:                          
 ---------------------------------------------------------------------
 Center     Atomic      Atomic             Coordinates (Angstroms)
 Number     Number       Type             X           Y           Z
 ---------------------------------------------------------------------
      1          6           0       -2.046496   -2.260665   -0.056193
      2          8           0       -0.784718   -1.631211   -0.033646
      3          6           0       -0.733371   -0.290984   -0.003777
      4          6           0       -1.875750    0.510929    0.002664
      5          6           0       -1.762951    1.892223    0.021712
      6          6           0       -0.519669    2.503674    0.029674
      7          6           0        0.615952    1.712550    0.019679
      8          6           0        0.535641    0.322156    0.008315
      9          6           0        1.784342   -0.483754    0.024025
     10          8           0        1.877819   -1.667923    0.183657
     11          8           0        2.884264    0.286644   -0.158218
     12          1           0       -2.626459   -2.017476    0.837681
     13          1           0       -2.614323   -1.979204   -0.946801
     14          1           0       -1.843925   -3.327508   -0.077149
     15          1           0       -2.856661    0.060901   -0.007641
     16          1           0       -2.663958    2.492495    0.028658
     17          1           0       -0.434248    3.581107    0.043235
     18          1           0        1.595222    2.168712    0.024987
     19          1           0        3.639243   -0.315885   -0.113899
 ---------------------------------------------------------------------
                    Distance matrix (angstroms):
                    1          2          3          4          5
     1  C    0.000000
     2  O    1.410250   0.000000
     3  C    2.367845   1.341543   0.000000
     4  C    2.777472   2.404253   1.395756   0.000000
     5  C    4.163285   3.657129   2.413934   1.386023   0.000000
     6  C    5.003749   4.143855   2.803016   2.410543   1.385527
     7  C    4.783390   3.625667   2.415651   2.766362   2.385679
     8  C    3.652747   2.358125   1.409425   2.418775   2.783669
     9  C    4.223644   2.814259   2.525235   3.792904   4.269492
    10  O    3.976068   2.671642   2.957939   4.343896   5.094710
    11  O    5.550819   4.141873   3.666714   4.768010   4.920047
    12  H    1.092936   2.073746   2.696777   2.766523   4.086220
    13  H    1.093083   2.074224   2.697659   2.765454   4.080539
    14  H    1.086107   2.000309   3.234067   3.839399   5.221295
    15  H    2.459348   2.675232   2.152254   1.079267   2.133261
    16  H    4.793849   4.532149   3.387621   2.132733   1.082676
    17  H    6.060984   5.224653   3.883912   3.391986   2.149010
    18  H    5.734813   4.484079   3.387223   3.846608   3.369537
    19  H    6.009420   4.616054   4.374071   5.577845   5.837622
                    6          7          8          9         10
     6  C    0.000000
     7  C    1.384056   0.000000
     8  C    2.423460   1.392758   0.000000
     9  C    3.772695   2.487751   1.486268   0.000000
    10  O    4.813926   3.612035   2.406782   1.198531   0.000000
    11  O    4.066606   2.685162   2.354788   1.355195   2.224892
    12  H    5.052943   5.009536   4.020025   4.740201   4.564916
    13  H    5.043538   4.999781   4.016314   4.746275   4.642647
    14  H    5.980614   5.609149   4.357716   4.611019   4.083334
    15  H    3.380838   3.845482   3.402385   4.672961   5.043880
    16  H    2.144318   3.371380   3.866293   5.352145   6.161237
    17  H    1.080899   2.143590   3.400392   4.630940   5.737394
    18  H    2.141258   1.080316   2.129028   2.659200   3.850299
    19  H    5.026637   3.643169   3.170864   1.867582   2.240348
                   11         12         13         14         15
    11  O    0.000000
    12  H    6.055481   0.000000
    13  H    5.999199   1.784934   0.000000
    14  H    5.951843   1.779173   1.779812   0.000000
    15  H    5.747334   2.255485   2.258933   3.537200   0.000000
    16  H    5.973564   4.582113   4.577125   5.878442   2.439488
    17  H    4.680448   6.064739   6.053921   7.051996   4.273467
    18  H    2.288531   6.000603   5.989144   6.484335   4.925768
    19  H    0.966953   6.562007   6.524373   6.255906   6.507690
                   16         17         18         19
    16  H    0.000000
    17  H    2.481309   0.000000
    18  H    4.271471   2.472638   0.000000
    19  H    6.902004   5.639554   3.220331   0.000000
 Stoichiometry    C8H8O3
 Framework group  C1[X(C8H8O3)]
 Deg. of freedom    51
 Full point group                 C1      NOp   1
 Largest Abelian subgroup         C1      NOp   1
 Largest concise Abelian subgroup C1      NOp   1
                         Standard orientation:                         
 ---------------------------------------------------------------------
 Center     Atomic      Atomic             Coordinates (Angstroms)
 Number     Number       Type             X           Y           Z
 ---------------------------------------------------------------------
      1          6           0        2.046496   -2.260665    0.056193
      2          8           0        0.784718   -1.631211    0.033646
      3          6           0        0.733371   -0.290984    0.003777
      4          6           0        1.875750    0.510929   -0.002664
      5          6           0        1.762951    1.892223   -0.021712
      6          6           0        0.519669    2.503674   -0.029674
      7          6           0       -0.615952    1.712550   -0.019679
      8          6           0       -0.535641    0.322156   -0.008315
      9          6           0       -1.784342   -0.483754   -0.024025
     10          8           0       -1.877819   -1.667923   -0.183657
     11          8           0       -2.884264    0.286644    0.158218
     12          1           0        2.626459   -2.017476   -0.837681
     13          1           0        2.614323   -1.979204    0.946801
     14          1           0        1.843925   -3.327508    0.077149
     15          1           0        2.856661    0.060901    0.007641
     16          1           0        2.663958    2.492495   -0.028658
     17          1           0        0.434247    3.581107   -0.043235
     18          1           0       -1.595222    2.168712   -0.024987
     19          1           0       -3.639243   -0.315885    0.113899
 ---------------------------------------------------------------------
 Rotational constants (GHZ):           1.4203255           1.1555472           0.6414600
 Standard basis: def2QZVPP (5D, 7F)
 There are  1072 symmetry adapted cartesian basis functions of A   symmetry.
 There are   867 symmetry adapted basis functions of A   symmetry.
   867 basis functions,  1316 primitive gaussians,  1072 cartesian basis functions
    40 alpha electrons       40 beta electrons
       nuclear repulsion energy       596.8247346160 Hartrees.
 NAtoms=   19 NActive=   19 NUniq=   19 SFac= 1.00D+00 NAtFMM=   60 NAOKFM=F Big=F
 Integral buffers will be    131072 words long.
 Raffenetti 2 integral format.
 Two-electron integral symmetry is turned on.
 Nuclear repulsion after empirical dispersion term =      596.8155484253 Hartrees.
 One-electron integrals computed using PRISM.
   1 Symmetry operations used in ECPInt.
 ECPInt:  NShTT=   35778 NPrTT=   90153 LenC2=   32157 LenP2D=   62832.
 LDataN:  DoStor=T MaxTD1= 8 Len=  415
 NBasis=   867 RedAO= T EigKep=  5.24D-06  NBF=   867
 NBsUse=   867 1.00D-06 EigRej= -1.00D+00 NBFU=   867
 ExpMin= 7.60D-02 ExpMax= 1.17D+05 ExpMxC= 1.13D+03 IAcc=3 IRadAn=         5 AccDes= 0.00D+00
 Harris functional with IExCor= 4639 and IRadAn=       5 diagonalized for initial guess.
 HarFok:  IExCor= 4639 AccDes= 0.00D+00 IRadAn=         5 IDoV= 1 UseB2=F ITyADJ=14
 ICtDFT=  3500011 ScaDFX=  1.000000  1.000000  1.000000  1.000000
 FoFCou: FMM=F IPFlag=           0 FMFlag=      100000 FMFlg1=           0
         NFxFlg=           0 DoJE=T BraDBF=F KetDBF=T FulRan=T
         wScrn=  0.000000 ICntrl=       500 IOpCl=  0 I1Cent=   200000004 NGrid=           0
         NMat0=    1 NMatS0=      1 NMatT0=    0 NMatD0=    1 NMtDS0=    0 NMtDT0=    0
 Petite list used in FoFCou.
 Requested convergence on RMS density matrix=1.00D-08 within 128 cycles.
 Requested convergence on MAX density matrix=1.00D-06.
 Requested convergence on             energy=1.00D-06.
 No special actions if energy rises.
 Integral accuracy reduced to 1.0D-05 until final iterations.
 Rare condition: small coef for last iteration:  0.000D+00
 Initial convergence to 1.0D-05 achieved.  Increase integral accuracy.
 SCF Done:  E(RwB97XD) =  -535.406388408     A.U. after   18 cycles
            NFock= 18  Conv=0.60D-08     -V/T= 2.0044

 **********************************************************************

            Population analysis using the SCF Density.

 **********************************************************************

 Orbital symmetries:
       Occupied  (A) (A) (A) (A) (A) (A) (A) (A) (A) (A) (A) (A)
                 (A) (A) (A) (A) (A) (A) (A) (A) (A) (A) (A) (A)
                 (A) (A) (A) (A) (A) (A) (A) (A) (A) (A) (A) (A)
                 (A) (A) (A) (A)
       Virtual   (A) (A) (A) (A) (A) (A) (A) (A) (A) (A) (A) (A)
                 (A) (A) (A) (A) (A) (A) (A) (A) (A) (A) (A) (A)
                 (A) (A) (A) (A) (A) (A) (A) (A) (A) (A) (A) (A)
                 (A) (A) (A) (A) (A) (A) (A) (A) (A) (A) (A) (A)
                 (A) (A) (A) (A) (A) (A) (A) (A) (A) (A) (A) (A)
                 (A) (A) (A) (A) (A) (A) (A) (A) (A) (A) (A) (A)
                 (A) (A) (A) (A) (A) (A) (A) (A) (A) (A) (A) (A)
                 (A) (A) (A) (A) (A) (A) (A) (A) (A) (A) (A) (A)
                 (A) (A) (A) (A) (A) (A) (A) (A) (A) (A) (A) (A)
                 (A) (A) (A) (A) (A) (A) (A) (A) (A) (A) (A) (A)
                 (A) (A) (A) (A) (A) (A) (A) (A) (A) (A) (A) (A)
                 (A) (A) (A) (A) (A) (A) (A) (A) (A) (A) (A) (A)
                 (A) (A) (A) (A) (A) (A) (A) (A) (A) (A) (A) (A)
                 (A) (A) (A) (A) (A) (A) (A) (A) (A) (A) (A) (A)
                 (A) (A) (A) (A) (A) (A) (A) (A) (A) (A) (A) (A)
                 (A) (A) (A) (A) (A) (A) (A) (A) (A) (A) (A) (A)
                 (A) (A) (A) (A) (A) (A) (A) (A) (A) (A) (A) (A)
                 (A) (A) (A) (A) (A) (A) (A) (A) (A) (A) (A) (A)
                 (A) (A) (A) (A) (A) (A) (A) (A) (A) (A) (A) (A)
                 (A) (A) (A) (A) (A) (A) (A) (A) (A) (A) (A) (A)
                 (A) (A) (A) (A) (A) (A) (A) (A) (A) (A) (A) (A)
                 (A) (A) (A) (A) (A) (A) (A) (A) (A) (A) (A) (A)
                 (A) (A) (A) (A) (A) (A) (A) (A) (A) (A) (A) (A)
                 (A) (A) (A) (A) (A) (A) (A) (A) (A) (A) (A) (A)
                 (A) (A) (A) (A) (A) (A) (A) (A) (A) (A) (A) (A)
                 (A) (A) (A) (A) (A) (A) (A) (A) (A) (A) (A) (A)
                 (A) (A) (A) (A) (A) (A) (A) (A) (A) (A) (A) (A)
                 (A) (A) (A) (A) (A) (A) (A) (A) (A) (A) (A) (A)
                 (A) (A) (A) (A) (A) (A) (A) (A) (A) (A) (A) (A)
                 (A) (A) (A) (A) (A) (A) (A) (A) (A) (A) (A) (A)
                 (A) (A) (A) (A) (A) (A) (A) (A) (A) (A) (A) (A)
                 (A) (A) (A) (A) (A) (A) (A) (A) (A) (A) (A) (A)
                 (A) (A) (A) (A) (A) (A) (A) (A) (A) (A) (A) (A)
                 (A) (A) (A) (A) (A) (A) (A) (A) (A) (A) (A) (A)
                 (A) (A) (A) (A) (A) (A) (A) (A) (A) (A) (A) (A)
                 (A) (A) (A) (A) (A) (A) (A) (A) (A) (A) (A) (A)
                 (A) (A) (A) (A) (A) (A) (A) (A) (A) (A) (A) (A)
                 (A) (A) (A) (A) (A) (A) (A) (A) (A) (A) (A) (A)
                 (A) (A) (A) (A) (A) (A) (A) (A) (A) (A) (A) (A)
                 (A) (A) (A) (A) (A) (A) (A) (A) (A) (A) (A) (A)
                 (A) (A) (A) (A) (A) (A) (A) (A) (A) (A) (A) (A)
                 (A) (A) (A) (A) (A) (A) (A) (A) (A) (A) (A) (A)
                 (A) (A) (A) (A) (A) (A) (A) (A) (A) (A) (A) (A)
                 (A) (A) (A) (A) (A) (A) (A) (A) (A) (A) (A) (A)
                 (A) (A) (A) (A) (A) (A) (A) (A) (A) (A) (A) (A)
                 (A) (A) (A) (A) (A) (A) (A) (A) (A) (A) (A) (A)
                 (A) (A) (A) (A) (A) (A) (A) (A) (A) (A) (A) (A)
                 (A) (A) (A) (A) (A) (A) (A) (A) (A) (A) (A) (A)
                 (A) (A) (A) (A) (A) (A) (A) (A) (A) (A) (A) (A)
                 (A) (A) (A) (A) (A) (A) (A) (A) (A) (A) (A) (A)
                 (A) (A) (A) (A) (A) (A) (A) (A) (A) (A) (A) (A)
                 (A) (A) (A) (A) (A) (A) (A) (A) (A) (A) (A) (A)
                 (A) (A) (A) (A) (A) (A) (A) (A) (A) (A) (A) (A)
                 (A) (A) (A) (A) (A) (A) (A) (A) (A) (A) (A) (A)
                 (A) (A) (A) (A) (A) (A) (A) (A) (A) (A) (A) (A)
                 (A) (A) (A) (A) (A) (A) (A) (A) (A) (A) (A) (A)
                 (A) (A) (A) (A) (A) (A) (A) (A) (A) (A) (A) (A)
                 (A) (A) (A) (A) (A) (A) (A) (A) (A) (A) (A) (A)
                 (A) (A) (A) (A) (A) (A) (A) (A) (A) (A) (A) (A)
                 (A) (A) (A) (A) (A) (A) (A) (A) (A) (A) (A) (A)
                 (A) (A) (A) (A) (A) (A) (A) (A) (A) (A) (A) (A)
                 (A) (A) (A) (A) (A) (A) (A) (A) (A) (A) (A) (A)
                 (A) (A) (A) (A) (A) (A) (A) (A) (A) (A) (A) (A)
                 (A) (A) (A) (A) (A) (A) (A) (A) (A) (A) (A) (A)
                 (A) (A) (A) (A) (A) (A) (A) (A) (A) (A) (A) (A)
                 (A) (A) (A) (A) (A) (A) (A) (A) (A) (A) (A) (A)
                 (A) (A) (A) (A) (A) (A) (A) (A) (A) (A) (A) (A)
                 (A) (A) (A) (A) (A) (A) (A) (A) (A) (A) (A) (A)
                 (A) (A) (A) (A) (A) (A) (A) (A) (A) (A) (A)
 The electronic state is 1-A.
 Alpha  occ. eigenvalues --  -19.29193 -19.29045 -19.23003 -10.41816 -10.36956
 Alpha  occ. eigenvalues --  -10.34276 -10.30841 -10.30669 -10.30347 -10.29734
 Alpha  occ. eigenvalues --  -10.29170  -1.20993  -1.18612  -1.11412  -0.97214
 Alpha  occ. eigenvalues --   -0.88164  -0.86307  -0.81012  -0.75711  -0.71036
 Alpha  occ. eigenvalues --   -0.68335  -0.63866  -0.60126  -0.58302  -0.57316
 Alpha  occ. eigenvalues --   -0.57197  -0.55510  -0.54182  -0.53589  -0.51008
 Alpha  occ. eigenvalues --   -0.48865  -0.47758  -0.46799  -0.45086  -0.42609
 Alpha  occ. eigenvalues --   -0.42206  -0.40571  -0.35476  -0.34627  -0.31117
 Alpha virt. eigenvalues --    0.01484   0.06002   0.08520   0.09894   0.10698
 Alpha virt. eigenvalues --    0.12257   0.12463   0.13027   0.14461   0.15285
 Alpha virt. eigenvalues --    0.16151   0.17544   0.18392   0.18503   0.19208
 Alpha virt. eigenvalues --    0.20458   0.22409   0.22785   0.23666   0.23803
 Alpha virt. eigenvalues --    0.24291   0.25598   0.26035   0.26607   0.27585
 Alpha virt. eigenvalues --    0.28167   0.30272   0.31402   0.31747   0.31970
 Alpha virt. eigenvalues --    0.32743   0.34005   0.34125   0.34369   0.35020
 Alpha virt. eigenvalues --    0.35913   0.36982   0.37323   0.37870   0.39710
 Alpha virt. eigenvalues --    0.39805   0.40738   0.40925   0.41511   0.42192
 Alpha virt. eigenvalues --    0.42648   0.43031   0.43505   0.44056   0.44849
 Alpha virt. eigenvalues --    0.45041   0.46978   0.47685   0.49059   0.49500
 Alpha virt. eigenvalues --    0.51210   0.51464   0.52509   0.52722   0.52954
 Alpha virt. eigenvalues --    0.53777   0.54874   0.56088   0.56377   0.57366
 Alpha virt. eigenvalues --    0.57784   0.59288   0.60286   0.61729   0.62990
 Alpha virt. eigenvalues --    0.63512   0.64408   0.64654   0.65900   0.67801
 Alpha virt. eigenvalues --    0.68595   0.69619   0.70404   0.71658   0.72017
 Alpha virt. eigenvalues --    0.72453   0.74040   0.75702   0.76166   0.77197
 Alpha virt. eigenvalues --    0.78571   0.78845   0.79113   0.79679   0.80441
 Alpha virt. eigenvalues --    0.82214   0.82494   0.83673   0.83774   0.85572
 Alpha virt. eigenvalues --    0.86059   0.86605   0.87831   0.88539   0.89694
 Alpha virt. eigenvalues --    0.89945   0.91063   0.91950   0.93064   0.94088
 Alpha virt. eigenvalues --    0.94591   0.96617   0.97160   0.97961   0.98259
 Alpha virt. eigenvalues --    0.98924   0.99422   0.99777   1.02230   1.02710
 Alpha virt. eigenvalues --    1.03182   1.05007   1.05551   1.06282   1.06747
 Alpha virt. eigenvalues --    1.07077   1.07668   1.08717   1.09464   1.10541
 Alpha virt. eigenvalues --    1.11406   1.12583   1.13330   1.14228   1.14444
 Alpha virt. eigenvalues --    1.14852   1.15379   1.16805   1.17707   1.18613
 Alpha virt. eigenvalues --    1.18771   1.21601   1.21792   1.23837   1.25264
 Alpha virt. eigenvalues --    1.25444   1.26894   1.28859   1.30246   1.31846
 Alpha virt. eigenvalues --    1.32507   1.34114   1.35166   1.35482   1.37392
 Alpha virt. eigenvalues --    1.38883   1.39447   1.41073   1.42670   1.43503
 Alpha virt. eigenvalues --    1.44628   1.45506   1.48373   1.49200   1.49929
 Alpha virt. eigenvalues --    1.51420   1.52538   1.52862   1.54081   1.55691
 Alpha virt. eigenvalues --    1.57570   1.58645   1.59283   1.60227   1.61303
 Alpha virt. eigenvalues --    1.62383   1.63305   1.64692   1.65093   1.67617
 Alpha virt. eigenvalues --    1.68378   1.69460   1.71296   1.72697   1.74596
 Alpha virt. eigenvalues --    1.75345   1.76459   1.77340   1.78967   1.80127
 Alpha virt. eigenvalues --    1.81810   1.82527   1.82854   1.83466   1.86137
 Alpha virt. eigenvalues --    1.87148   1.88039   1.89243   1.90568   1.90999
 Alpha virt. eigenvalues --    1.92065   1.92592   1.93673   1.94779   1.96500
 Alpha virt. eigenvalues --    1.96940   1.97725   1.97979   1.99032   1.99783
 Alpha virt. eigenvalues --    2.01294   2.01939   2.03283   2.05990   2.06664
 Alpha virt. eigenvalues --    2.06932   2.08148   2.08456   2.09107   2.09656
 Alpha virt. eigenvalues --    2.10757   2.11328   2.12510   2.14002   2.14800
 Alpha virt. eigenvalues --    2.15579   2.17324   2.17576   2.17921   2.18358
 Alpha virt. eigenvalues --    2.18812   2.20520   2.21613   2.21937   2.23339
 Alpha virt. eigenvalues --    2.24076   2.25296   2.25660   2.27799   2.28035
 Alpha virt. eigenvalues --    2.29228   2.30026   2.31105   2.32265   2.33822
 Alpha virt. eigenvalues --    2.34146   2.34988   2.35835   2.37571   2.38490
 Alpha virt. eigenvalues --    2.39350   2.40761   2.40841   2.41348   2.42524
 Alpha virt. eigenvalues --    2.43605   2.44208   2.45362   2.45888   2.47496
 Alpha virt. eigenvalues --    2.48592   2.48828   2.49611   2.50067   2.50890
 Alpha virt. eigenvalues --    2.51437   2.52861   2.53531   2.54088   2.55956
 Alpha virt. eigenvalues --    2.56701   2.57015   2.58490   2.60676   2.61583
 Alpha virt. eigenvalues --    2.62551   2.63813   2.64421   2.65729   2.66140
 Alpha virt. eigenvalues --    2.67005   2.67427   2.68478   2.69515   2.70201
 Alpha virt. eigenvalues --    2.72131   2.73230   2.73548   2.75758   2.75893
 Alpha virt. eigenvalues --    2.77349   2.78099   2.79360   2.80074   2.81734
 Alpha virt. eigenvalues --    2.82511   2.83155   2.84450   2.86158   2.87266
 Alpha virt. eigenvalues --    2.87455   2.88793   2.89316   2.91369   2.92198
 Alpha virt. eigenvalues --    2.93312   2.93458   2.93784   2.94886   2.96419
 Alpha virt. eigenvalues --    2.97995   2.99076   3.00302   3.02265   3.04048
 Alpha virt. eigenvalues --    3.05367   3.05944   3.07580   3.09835   3.10597
 Alpha virt. eigenvalues --    3.12650   3.13274   3.14266   3.16661   3.17361
 Alpha virt. eigenvalues --    3.19293   3.20905   3.22272   3.23418   3.26070
 Alpha virt. eigenvalues --    3.26364   3.27830   3.32480   3.32913   3.33506
 Alpha virt. eigenvalues --    3.35345   3.36287   3.37993   3.41381   3.41601
 Alpha virt. eigenvalues --    3.43542   3.44495   3.46120   3.48203   3.49017
 Alpha virt. eigenvalues --    3.49962   3.51168   3.52975   3.53335   3.54996
 Alpha virt. eigenvalues --    3.56554   3.57923   3.58437   3.61423   3.61908
 Alpha virt. eigenvalues --    3.63158   3.64735   3.65249   3.66990   3.69605
 Alpha virt. eigenvalues --    3.72126   3.72971   3.75651   3.79983   3.81332
 Alpha virt. eigenvalues --    3.83776   3.86582   3.87343   3.88585   3.90074
 Alpha virt. eigenvalues --    3.90732   3.91627   3.92658   3.94149   3.96789
 Alpha virt. eigenvalues --    3.98003   4.01507   4.02821   4.05084   4.06026
 Alpha virt. eigenvalues --    4.06753   4.08082   4.11845   4.13608   4.15631
 Alpha virt. eigenvalues --    4.17964   4.19199   4.21358   4.24010   4.24827
 Alpha virt. eigenvalues --    4.27830   4.28505   4.32302   4.33522   4.34485
 Alpha virt. eigenvalues --    4.35054   4.36892   4.39516   4.41055   4.42472
 Alpha virt. eigenvalues --    4.44022   4.46638   4.48996   4.52211   4.53175
 Alpha virt. eigenvalues --    4.56200   4.58156   4.60165   4.60932   4.64691
 Alpha virt. eigenvalues --    4.66353   4.67345   4.72362   4.73136   4.74590
 Alpha virt. eigenvalues --    4.78032   4.80670   4.84119   4.86822   4.88368
 Alpha virt. eigenvalues --    4.91602   4.92439   4.96909   4.98431   4.99864
 Alpha virt. eigenvalues --    5.02483   5.04459   5.06298   5.07587   5.08607
 Alpha virt. eigenvalues --    5.09603   5.13274   5.14115   5.15801   5.17064
 Alpha virt. eigenvalues --    5.17704   5.18975   5.20500   5.23244   5.23545
 Alpha virt. eigenvalues --    5.25050   5.26962   5.29188   5.30985   5.32178
 Alpha virt. eigenvalues --    5.33067   5.34630   5.35922   5.38691   5.40508
 Alpha virt. eigenvalues --    5.41879   5.42971   5.45049   5.47330   5.48430
 Alpha virt. eigenvalues --    5.49881   5.50945   5.52297   5.53368   5.54783
 Alpha virt. eigenvalues --    5.57238   5.58589   5.60223   5.62506   5.63485
 Alpha virt. eigenvalues --    5.65163   5.66513   5.69011   5.69360   5.70437
 Alpha virt. eigenvalues --    5.72158   5.74319   5.76213   5.77630   5.79571
 Alpha virt. eigenvalues --    5.81076   5.82200   5.84378   5.85812   5.86471
 Alpha virt. eigenvalues --    5.88089   5.89097   5.90684   5.91330   5.93321
 Alpha virt. eigenvalues --    5.94206   5.94541   5.95682   5.97766   5.99076
 Alpha virt. eigenvalues --    5.99620   6.00618   6.00822   6.01348   6.02350
 Alpha virt. eigenvalues --    6.05032   6.06956   6.07790   6.08344   6.08663
 Alpha virt. eigenvalues --    6.13360   6.14152   6.14348   6.15145   6.16589
 Alpha virt. eigenvalues --    6.17057   6.18030   6.18925   6.20282   6.21013
 Alpha virt. eigenvalues --    6.22605   6.24322   6.25514   6.26177   6.26741
 Alpha virt. eigenvalues --    6.27259   6.28318   6.29990   6.31400   6.31706
 Alpha virt. eigenvalues --    6.33493   6.34512   6.35175   6.35504   6.36485
 Alpha virt. eigenvalues --    6.37343   6.38555   6.39692   6.40007   6.41015
 Alpha virt. eigenvalues --    6.41828   6.43757   6.45049   6.46185   6.47128
 Alpha virt. eigenvalues --    6.47725   6.50385   6.51149   6.52197   6.53618
 Alpha virt. eigenvalues --    6.55035   6.55848   6.57948   6.59328   6.61230
 Alpha virt. eigenvalues --    6.62365   6.63617   6.64684   6.67561   6.67936
 Alpha virt. eigenvalues --    6.69315   6.69562   6.70342   6.70793   6.73066
 Alpha virt. eigenvalues --    6.74749   6.75550   6.76731   6.78542   6.80215
 Alpha virt. eigenvalues --    6.81495   6.82269   6.83489   6.84587   6.85145
 Alpha virt. eigenvalues --    6.87151   6.87685   6.90021   6.91286   6.93294
 Alpha virt. eigenvalues --    6.93914   6.94514   6.97256   6.99872   6.99908
 Alpha virt. eigenvalues --    7.02955   7.03821   7.07583   7.10916   7.11228
 Alpha virt. eigenvalues --    7.11635   7.13218   7.14602   7.16293   7.20467
 Alpha virt. eigenvalues --    7.23658   7.25611   7.26736   7.28088   7.29833
 Alpha virt. eigenvalues --    7.31419   7.32869   7.36318   7.37143   7.39886
 Alpha virt. eigenvalues --    7.41291   7.43416   7.44503   7.45414   7.47420
 Alpha virt. eigenvalues --    7.49158   7.50059   7.52361   7.52671   7.54906
 Alpha virt. eigenvalues --    7.56662   7.57187   7.59143   7.59435   7.60998
 Alpha virt. eigenvalues --    7.62688   7.63018   7.63973   7.65333   7.68918
 Alpha virt. eigenvalues --    7.70139   7.72241   7.72699   7.76153   7.76495
 Alpha virt. eigenvalues --    7.79203   7.80396   7.80636   7.85698   7.86274
 Alpha virt. eigenvalues --    7.88320   7.89696   7.91638   7.91850   7.94358
 Alpha virt. eigenvalues --    7.94510   7.98677   8.00059   8.02616   8.02966
 Alpha virt. eigenvalues --    8.04022   8.04717   8.05468   8.06888   8.10329
 Alpha virt. eigenvalues --    8.13889   8.14961   8.21210   8.22367   8.23025
 Alpha virt. eigenvalues --    8.25392   8.26200   8.27693   8.30943   8.31079
 Alpha virt. eigenvalues --    8.34784   8.35031   8.35445   8.37033   8.37928
 Alpha virt. eigenvalues --    8.40279   8.40979   8.41496   8.42118   8.43395
 Alpha virt. eigenvalues --    8.44843   8.46181   8.47277   8.48599   8.49590
 Alpha virt. eigenvalues --    8.51124   8.52029   8.53015   8.55170   8.56287
 Alpha virt. eigenvalues --    8.58206   8.58993   8.60001   8.61450   8.62965
 Alpha virt. eigenvalues --    8.64939   8.66479   8.68721   8.70338   8.71427
 Alpha virt. eigenvalues --    8.73218   8.78414   8.79190   8.81062   8.81939
 Alpha virt. eigenvalues --    8.83413   8.84578   8.88076   8.91797   8.92146
 Alpha virt. eigenvalues --    8.93573   8.94623   8.96721   8.98424   8.99349
 Alpha virt. eigenvalues --    9.00141   9.00496   9.00796   9.04901   9.05862
 Alpha virt. eigenvalues --    9.08776   9.15926   9.17281   9.19899   9.29323
 Alpha virt. eigenvalues --    9.29800   9.34176   9.39821   9.45809   9.50012
 Alpha virt. eigenvalues --    9.53377   9.55577   9.59297   9.61575   9.62930
 Alpha virt. eigenvalues --    9.71793   9.76796   9.77457   9.79450   9.82411
 Alpha virt. eigenvalues --    9.82492   9.85494   9.89527   9.89977   9.92031
 Alpha virt. eigenvalues --    9.93796   9.95303   9.96087  10.00452  10.03235
 Alpha virt. eigenvalues --   10.07058  10.10304  10.12888  10.14304  10.15829
 Alpha virt. eigenvalues --   10.17295  10.20771  10.23948  10.26648  10.27187
 Alpha virt. eigenvalues --   10.29607  10.35842  10.36535  10.37436  10.41941
 Alpha virt. eigenvalues --   10.43529  10.45632  10.47649  10.50059  10.52617
 Alpha virt. eigenvalues --   10.54920  10.60496  10.68257  10.83726  10.86711
 Alpha virt. eigenvalues --   10.91780  10.93981  10.99042  10.99320  11.10224
 Alpha virt. eigenvalues --   11.11163  11.18688  11.23200  11.40158  11.47684
 Alpha virt. eigenvalues --   11.51828  11.54190  11.62374  11.68655  11.74451
 Alpha virt. eigenvalues --   11.75809  11.78195  11.80396  11.95078  11.96653
 Alpha virt. eigenvalues --   11.97164  12.01193  12.06131  12.10702  12.15069
 Alpha virt. eigenvalues --   12.16217  12.22155  12.24532  12.28437  12.31477
 Alpha virt. eigenvalues --   12.36096  12.43373  12.49530  12.57362  12.62249
 Alpha virt. eigenvalues --   12.69671  12.80336  12.84498  12.86882  12.91138
 Alpha virt. eigenvalues --   12.97821  13.28821  13.34040  13.39736  13.42369
 Alpha virt. eigenvalues --   13.69798  13.76395  13.87483  13.89166  14.16397
 Alpha virt. eigenvalues --   14.31154  14.55012  14.73665  14.85759  16.73281
 Alpha virt. eigenvalues --   27.94148  28.45071  28.53837  28.62961  28.95873
 Alpha virt. eigenvalues --   29.04252  29.10781  29.46874  48.29365  48.49383
 Alpha virt. eigenvalues --   48.52640 147.09081 147.56972 147.65828 147.74082
 Alpha virt. eigenvalues --  148.04257 148.15175 148.20309 148.58335 253.41277
 Alpha virt. eigenvalues --  253.64326 253.66505
          Condensed to atoms (all electrons):
               1          2          3          4          5          6
     1  C    4.467374   0.322748  -0.059225  -0.017990   0.001932  -0.000046
     2  O    0.322748   7.907103   0.437905  -0.097342   0.004417  -0.000494
     3  C   -0.059225   0.437905   5.161344   0.396524  -0.106373  -0.039646
     4  C   -0.017990  -0.097342   0.396524   5.137470   0.527969  -0.085867
     5  C    0.001932   0.004417  -0.106373   0.527969   4.914416   0.545076
     6  C   -0.000046  -0.000494  -0.039646  -0.085867   0.545076   4.968800
     7  C   -0.000444   0.005272  -0.125348  -0.065957  -0.089204   0.549963
     8  C    0.009228  -0.094919   0.308944  -0.099639  -0.032986  -0.102775
     9  C   -0.000077   0.000684  -0.102159   0.002807   0.001839   0.004062
    10  O    0.001160  -0.018008   0.005526  -0.001819   0.001067  -0.001389
    11  O    0.000048  -0.000665   0.005335  -0.001156   0.000582   0.005331
    12  H    0.401228  -0.039367  -0.009209   0.013442   0.001520   0.000131
    13  H    0.400163  -0.038755  -0.007410   0.011077   0.000675   0.000013
    14  H    0.415514  -0.041441   0.005644  -0.003085  -0.000276  -0.000023
    15  H   -0.001877  -0.007661  -0.052088   0.376613  -0.034576   0.012269
    16  H    0.000044  -0.000175   0.010308  -0.015311   0.343405  -0.033553
    17  H   -0.000007   0.000011  -0.001808   0.009158  -0.030008   0.362267
    18  H    0.000014  -0.000157   0.015109  -0.004544   0.009767  -0.048615
    19  H   -0.000005   0.000152  -0.000427   0.000264  -0.000083  -0.000109
               7          8          9         10         11         12
     1  C   -0.000444   0.009228  -0.000077   0.001160   0.000048   0.401228
     2  O    0.005272  -0.094919   0.000684  -0.018008  -0.000665  -0.039367
     3  C   -0.125348   0.308944  -0.102159   0.005526   0.005335  -0.009209
     4  C   -0.065957  -0.099639   0.002807  -0.001819  -0.001156   0.013442
     5  C   -0.089204  -0.032986   0.001839   0.001067   0.000582   0.001520
     6  C    0.549963  -0.102775   0.004062  -0.001389   0.005331   0.000131
     7  C    5.071279   0.387547  -0.066943   0.012370   0.007365  -0.000561
     8  C    0.387547   5.498528   0.360869  -0.108651  -0.135223  -0.002937
     9  C   -0.066943   0.360869   4.302892   0.776198   0.443123  -0.000177
    10  O    0.012370  -0.108651   0.776198   7.746265  -0.105439  -0.000130
    11  O    0.007365  -0.135223   0.443123  -0.105439   7.827938  -0.000001
    12  H   -0.000561  -0.002937  -0.000177  -0.000130  -0.000001   0.641503
    13  H   -0.000440  -0.001214   0.000021  -0.000135  -0.000003  -0.043793
    14  H    0.000286   0.001876   0.000023   0.000404   0.000004  -0.022260
    15  H   -0.003052   0.008172  -0.000353  -0.000135   0.000001   0.004161
    16  H    0.010647  -0.003112   0.000015   0.000006  -0.000001   0.000016
    17  H   -0.025109   0.009955  -0.000101  -0.000016   0.000040   0.000003
    18  H    0.363750  -0.024269  -0.005551   0.001005   0.008568  -0.000009
    19  H   -0.004823   0.021958  -0.038463   0.012522   0.299663   0.000000
              13         14         15         16         17         18
     1  C    0.400163   0.415514  -0.001877   0.000044  -0.000007   0.000014
     2  O   -0.038755  -0.041441  -0.007661  -0.000175   0.000011  -0.000157
     3  C   -0.007410   0.005644  -0.052088   0.010308  -0.001808   0.015109
     4  C    0.011077  -0.003085   0.376613  -0.015311   0.009158  -0.004544
     5  C    0.000675  -0.000276  -0.034576   0.343405  -0.030008   0.009767
     6  C    0.000013  -0.000023   0.012269  -0.033553   0.362267  -0.048615
     7  C   -0.000440   0.000286  -0.003052   0.010647  -0.025109   0.363750
     8  C   -0.001214   0.001876   0.008172  -0.003112   0.009955  -0.024269
     9  C    0.000021   0.000023  -0.000353   0.000015  -0.000101  -0.005551
    10  O   -0.000135   0.000404  -0.000135   0.000006  -0.000016   0.001005
    11  O   -0.000003   0.000004   0.000001  -0.000001   0.000040   0.008568
    12  H   -0.043793  -0.022260   0.004161   0.000016   0.000003  -0.000009
    13  H    0.642894  -0.022369   0.003455   0.000022   0.000001  -0.000008
    14  H   -0.022369   0.549341  -0.000536   0.000004   0.000000   0.000003
    15  H    0.003455  -0.000536   0.656191  -0.003373  -0.000381  -0.000087
    16  H    0.000022   0.000004  -0.003373   0.607106  -0.002323  -0.000314
    17  H    0.000001   0.000000  -0.000381  -0.002323   0.597483  -0.003810
    18  H   -0.000008   0.000003  -0.000087  -0.000314  -0.003810   0.597615
    19  H    0.000001  -0.000003   0.000002  -0.000000   0.000006  -0.000934
              19
     1  C   -0.000005
     2  O    0.000152
     3  C   -0.000427
     4  C    0.000264
     5  C   -0.000083
     6  C   -0.000109
     7  C   -0.004823
     8  C    0.021958
     9  C   -0.038463
    10  O    0.012522
    11  O    0.299663
    12  H    0.000000
    13  H    0.000001
    14  H   -0.000003
    15  H    0.000002
    16  H   -0.000000
    17  H    0.000006
    18  H   -0.000934
    19  H    0.464183
 Mulliken charges:
               1
     1  C    0.060218
     2  O   -0.339311
     3  C    0.157052
     4  C   -0.082615
     5  C   -0.059160
     6  C   -0.135393
     7  C   -0.026599
     8  C   -0.001351
     9  C    0.321290
    10  O   -0.320799
    11  O   -0.355512
    12  H    0.056442
    13  H    0.055803
    14  H    0.116893
    15  H    0.043254
    16  H    0.086588
    17  H    0.084638
    18  H    0.092466
    19  H    0.246095
 Sum of Mulliken charges =  -0.00000
 Mulliken charges with hydrogens summed into heavy atoms:
               1
     1  C    0.289356
     2  O   -0.339311
     3  C    0.157052
     4  C   -0.039360
     5  C    0.027429
     6  C   -0.050755
     7  C    0.065867
     8  C   -0.001351
     9  C    0.321290
    10  O   -0.320799
    11  O   -0.109417
 Electronic spatial extent (au):  <R**2>=           1709.3529
 Charge=             -0.0000 electrons
 Dipole moment (field-independent basis, Debye):
    X=              2.0975    Y=              1.1926    Z=              0.2034  Tot=              2.4214
 Quadrupole moment (field-independent basis, Debye-Ang):
   XX=            -50.8900   YY=            -61.5777   ZZ=            -65.6589
   XY=             -4.8339   XZ=             -0.2643   YZ=             -1.0499
 Traceless Quadrupole moment (field-independent basis, Debye-Ang):
   XX=              8.4856   YY=             -2.2022   ZZ=             -6.2834
   XY=             -4.8339   XZ=             -0.2643   YZ=             -1.0499
 Octapole moment (field-independent basis, Debye-Ang**2):
  XXX=            -30.5452  YYY=             -1.0143  ZZZ=              0.2854  XYY=             17.9889
  XXY=            -11.1944  XXZ=              1.1313  XZZ=             -6.6763  YZZ=            -10.3800
  YYZ=              1.2947  XYZ=              1.7358
 Hexadecapole moment (field-independent basis, Debye-Ang**3):
 XXXX=           -920.3098 YYYY=           -912.0598 ZZZZ=            -77.1188 XXXY=             18.6055
 XXXZ=             -4.4121 YYYX=            -41.0867 YYYZ=             -3.4328 ZZZX=              0.0386
 ZZZY=              0.9335 XXYY=           -341.0581 XXZZ=           -207.7818 YYZZ=           -190.7056
 XXYZ=             -5.0115 YYXZ=             -2.2816 ZZXY=             -4.9907
 N-N= 5.968155484253D+02 E-N=-2.445695829212D+03  KE= 5.330359537087D+02
 Unable to Open any file for archive entry.
 1\1\GINC-NODE20\SP\RwB97XD\def2QZVPP\C8H8O3\J77KING\08-May-2024\0\\# w
 b97xd/def2qzvpp\\Ac4_rdkit_conf_1_qzvpp\\0,1\C,0,-2.046496,-2.260665,-
 0.056193\O,0,-0.784718,-1.631211,-0.033646\C,0,-0.733371,-0.290984,-0.
 003777\C,0,-1.87575,0.510929,0.002664\C,0,-1.762951,1.892223,0.021712\
 C,0,-0.519669,2.503674,0.029674\C,0,0.615952,1.71255,0.019679\C,0,0.53
 5641,0.322156,0.008315\C,0,1.784342,-0.483754,0.024025\O,0,1.877819,-1
 .667923,0.183657\O,0,2.884264,0.286644,-0.158218\H,0,-2.626459,-2.0174
 76,0.837681\H,0,-2.614323,-1.979204,-0.946801\H,0,-1.843925,-3.327508,
 -0.077149\H,0,-2.856661,0.060901,-0.007641\H,0,-2.663958,2.492495,0.02
 8658\H,0,-0.434248,3.581107,0.043235\H,0,1.595222,2.168712,0.024987\H,
 0,3.639243,-0.315885,-0.113899\\Version=AS64L-G16RevC.01\State=1-A\HF=
 -535.4063884\RMSD=5.959e-09\Dipole=-0.8252105,0.4692169,-0.0800335\Qua
 drupole=6.308799,-1.6372534,-4.6715455,3.5939209,-0.1964699,0.7806\PG=
 C01 [X(C8H8O3)]\\@
 The archive entry for this job was punched.


 I LOVE MANKIND - IT'S PEOPLE I CAN'T STAND.
     -- LINUS OF PEANUTS
 Job cpu time:       0 days  2 hours 57 minutes 39.2 seconds.
 Elapsed time:       0 days  0 hours 22 minutes 49.0 seconds.
 File lengths (MBytes):  RWF=    409 Int=      0 D2E=      0 Chk=     44 Scr=      1
 Normal termination of Gaussian 16 at Wed May  8 19:32:43 2024.
