Job Start Time: Wed May  8 19:16:50 MDT 2024
SLURM Job ID: 265090
SLURM Job Name: Ac4_rdkit_conf_3_qzvpp
 Entering Gaussian System, Link 0=/opt/apps/Gaussian/G16C/g16/g16
 Initial command:
 /opt/apps/Gaussian/G16C/g16/l1.exe "/tmp/Gau-2693496.inp" -scrdir="/tmp/"
 Entering Link 1 = /opt/apps/Gaussian/G16C/g16/l1.exe PID=   2693497.
  
 Copyright (c) 1988-2019, Gaussian, Inc.  All Rights Reserved.
  
 This is part of the Gaussian(R) 16 program.  It is based on
 the Gaussian(R) 09 system (copyright 2009, Gaussian, Inc.),
 the Gaussian(R) 03 system (copyright 2003, Gaussian, Inc.),
 the Gaussian(R) 98 system (copyright 1998, Gaussian, Inc.),
 the Gaussian(R) 94 system (copyright 1995, Gaussian, Inc.),
 the Gaussian 92(TM) system (copyright 1992, Gaussian, Inc.),
 the Gaussian 90(TM) system (copyright 1990, Gaussian, Inc.),
 the Gaussian 88(TM) system (copyright 1988, Gaussian, Inc.),
 the Gaussian 86(TM) system (copyright 1986, Carnegie Mellon
 University), and the Gaussian 82(TM) system (copyright 1983,
 Carnegie Mellon University). Gaussian is a federally registered
 trademark of Gaussian, Inc.
  
 This software contains proprietary and confidential information,
 including trade secrets, belonging to Gaussian, Inc.
  
 This software is provided under written license and may be
 used, copied, transmitted, or stored only in accord with that
 written license.
  
 The following legend is applicable only to US Government
 contracts under FAR:
  
                    RESTRICTED RIGHTS LEGEND
  
 Use, reproduction and disclosure by the US Government is
 subject to restrictions as set forth in subparagraphs (a)
 and (c) of the Commercial Computer Software - Restricted
 Rights clause in FAR 52.227-19.
  
 Gaussian, Inc.
 340 Quinnipiac St., Bldg. 40, Wallingford CT 06492
  
  
 ---------------------------------------------------------------
 Warning -- This program may not be used in any manner that
 competes with the business of Gaussian, Inc. or will provide
 assistance to any competitor of Gaussian, Inc.  The licensee
 of this program is prohibited from giving any competitor of
 Gaussian, Inc. access to this program.  By using this program,
 the user acknowledges that Gaussian, Inc. is engaged in the
 business of creating and licensing software in the field of
 computational chemistry and represents and warrants to the
 licensee that it is not a competitor of Gaussian, Inc. and that
 it will not use this program in any manner prohibited above.
 ---------------------------------------------------------------
  

 Cite this work as:
 Gaussian 16, Revision C.01,
 M. J. Frisch, G. W. Trucks, H. B. Schlegel, G. E. Scuseria, 
 M. A. Robb, J. R. Cheeseman, G. Scalmani, V. Barone, 
 G. A. Petersson, H. Nakatsuji, X. Li, M. Caricato, A. V. Marenich, 
 J. Bloino, B. G. Janesko, R. Gomperts, B. Mennucci, H. P. Hratchian, 
 J. V. Ortiz, A. F. Izmaylov, J. L. Sonnenberg, D. Williams-Young, 
 F. Ding, F. Lipparini, F. Egidi, J. Goings, B. Peng, A. Petrone, 
 T. Henderson, D. Ranasinghe, V. G. Zakrzewski, J. Gao, N. Rega, 
 G. Zheng, W. Liang, M. Hada, M. Ehara, K. Toyota, R. Fukuda, 
 J. Hasegawa, M. Ishida, T. Nakajima, Y. Honda, O. Kitao, H. Nakai, 
 T. Vreven, K. Throssell, J. A. Montgomery, Jr., J. E. Peralta, 
 F. Ogliaro, M. J. Bearpark, J. J. Heyd, E. N. Brothers, K. N. Kudin, 
 V. N. Staroverov, T. A. Keith, R. Kobayashi, J. Normand, 
 K. Raghavachari, A. P. Rendell, J. C. Burant, S. S. Iyengar, 
 J. Tomasi, M. Cossi, J. M. Millam, M. Klene, C. Adamo, R. Cammi, 
 J. W. Ochterski, R. L. Martin, K. Morokuma, O. Farkas, 
 J. B. Foresman, and D. J. Fox, Gaussian, Inc., Wallingford CT, 2019.
 
 ******************************************
 Gaussian 16:  AS64L-G16RevC.01  3-Jul-2019
                 8-May-2024 
 ******************************************
 %nprocshared=8
 Will use up to    8 processors via shared memory.
 %mem=32GB
 ------------------
 # wb97xd/def2qzvpp
 ------------------
 1/38=1,172=1/1;
 2/12=2,17=6,18=5,40=1/2;
 3/5=45,7=202,11=2,25=1,30=1,74=-58/1,2,3;
 4//1;
 5/5=2,38=5/2;
 6/7=2,8=2,9=2,10=2,28=1/1;
 99/5=1,9=1/99;
 ----------------------
 Ac4_rdkit_conf_3_qzvpp
 ----------------------
 Symbolic Z-matrix:
 Charge =  0 Multiplicity = 1
 C                     0.81887   2.56857   0.48624 
 O                     0.47873   1.71006  -0.59178 
 C                    -0.39191   0.71336  -0.26415 
 C                    -1.75258   1.0017   -0.22777 
 C                    -2.67589   0.00311   0.02705 
 C                    -2.2512   -1.30422   0.2351 
 C                    -0.90147  -1.59595   0.18956 
 C                     0.04394  -0.59595  -0.04136 
 C                     1.46906  -1.02971  -0.04837 
 O                     1.81427  -2.17055  -0.20107 
 O                     2.35493  -0.04619   0.17686 
 H                    -0.07309   3.05402   0.89168 
 H                     1.49222   3.32115   0.08363 
 H                     1.32437   2.00873   1.27541 
 H                    -2.06599   2.01851  -0.4268 
 H                    -3.73139   0.24209   0.0493 
 H                    -2.97015  -2.08964   0.42368 
 H                    -0.54211  -2.60606   0.33441 
 H                     3.22979  -0.46082   0.15887 
 
                          Input orientation:                          
 ---------------------------------------------------------------------
 Center     Atomic      Atomic             Coordinates (Angstroms)
 Number     Number       Type             X           Y           Z
 ---------------------------------------------------------------------
      1          6           0        0.818870    2.568572    0.486238
      2          8           0        0.478730    1.710061   -0.591784
      3          6           0       -0.391914    0.713364   -0.264149
      4          6           0       -1.752579    1.001698   -0.227769
      5          6           0       -2.675893    0.003110    0.027052
      6          6           0       -2.251199   -1.304215    0.235095
      7          6           0       -0.901466   -1.595949    0.189559
      8          6           0        0.043937   -0.595951   -0.041361
      9          6           0        1.469064   -1.029710   -0.048370
     10          8           0        1.814267   -2.170553   -0.201068
     11          8           0        2.354933   -0.046194    0.176857
     12          1           0       -0.073093    3.054019    0.891683
     13          1           0        1.492221    3.321149    0.083629
     14          1           0        1.324367    2.008731    1.275413
     15          1           0       -2.065986    2.018507   -0.426795
     16          1           0       -3.731391    0.242092    0.049298
     17          1           0       -2.970150   -2.089642    0.423680
     18          1           0       -0.542114   -2.606055    0.334406
     19          1           0        3.229789   -0.460822    0.158868
 ---------------------------------------------------------------------
                    Distance matrix (angstroms):
                    1          2          3          4          5
     1  C    0.000000
     2  O    1.419460   0.000000
     3  C    2.338990   1.363367   0.000000
     4  C    3.094713   2.369182   1.391355   0.000000
     5  C    4.359566   3.639819   2.409527   1.383698   0.000000
     6  C    4.948422   4.149952   2.788693   2.404184   1.390232
     7  C    4.515618   3.666762   2.407991   2.765199   2.394157
     8  C    3.300468   2.410332   1.397822   2.411369   2.785862
     9  C    3.695428   2.963512   2.558927   3.812845   4.272362
    10  O    4.891064   4.122558   3.631555   4.773498   4.993835
    11  O    3.048312   2.682420   2.883849   4.258339   5.033297
    12  H    1.093454   2.076393   2.629878   2.878518   4.102463
    13  H    1.087137   2.019641   3.235963   4.000694   5.327829
    14  H    1.091671   2.071408   2.644588   3.569491   4.645751
    15  H    3.075483   2.568646   2.128936   1.082467   2.154017
    16  H    5.129162   4.504557   3.387101   2.137631   1.082443
    17  H    6.004960   5.231031   3.870046   3.385742   2.150235
    18  H    5.352765   4.530873   3.376295   3.846706   3.384556
    19  H    3.885477   3.583928   3.830716   5.206961   5.925343
                    6          7          8          9         10
     6  C    0.000000
     7  C    1.381652   0.000000
     8  C    2.417791   1.395388   0.000000
     9  C    3.741131   2.448806   1.489692   0.000000
    10  O    4.179569   2.803206   2.374647   1.201667   0.000000
    11  O    4.775192   3.606388   2.385488   1.342682   2.224421
    12  H    4.916244   4.775079   3.769157   4.465287   5.661483
    13  H    5.952321   5.469809   4.178136   4.352922   5.508499
    14  H    4.984230   4.373457   3.187125   3.317448   4.459418
    15  H    3.393064   3.847115   3.381675   4.683098   5.714503
    16  H    2.148617   3.377357   3.868286   5.354601   6.052922
    17  H    1.081365   2.139626   3.395894   4.588345   4.825713
    18  H    2.150726   1.081864   2.127246   2.583838   2.455387
    19  H    5.546021   4.284475   3.194997   1.861917   2.248652
                   11         12         13         14         15
    11  O    0.000000
    12  H    4.002200   0.000000
    13  H    3.477350   1.781718   0.000000
    14  H    2.547863   1.786832   1.780720   0.000000
    15  H    4.916494   2.604283   3.823381   3.793692   0.000000
    16  H    6.094483   4.690383   6.063653   5.494093   2.481106
    17  H    5.709038   5.921927   7.021755   5.997082   4.291586
    18  H    3.869185   5.706748   6.271615   5.066112   4.928305
    19  H    0.968304   4.878540   4.162704   3.313004   5.876675
                   16         17         18         19
    16  H    0.000000
    17  H    2.481256   0.000000
    18  H    4.285407   2.483951   0.000000
    19  H    6.997437   6.415795   4.342821   0.000000
 Stoichiometry    C8H8O3
 Framework group  C1[X(C8H8O3)]
 Deg. of freedom    51
 Full point group                 C1      NOp   1
 Largest Abelian subgroup         C1      NOp   1
 Largest concise Abelian subgroup C1      NOp   1
                         Standard orientation:                         
 ---------------------------------------------------------------------
 Center     Atomic      Atomic             Coordinates (Angstroms)
 Number     Number       Type             X           Y           Z
 ---------------------------------------------------------------------
      1          6           0        0.818869    2.568572    0.486238
      2          8           0        0.478729    1.710061   -0.591784
      3          6           0       -0.391914    0.713364   -0.264149
      4          6           0       -1.752579    1.001697   -0.227769
      5          6           0       -2.675893    0.003109    0.027052
      6          6           0       -2.251199   -1.304216    0.235095
      7          6           0       -0.901466   -1.595949    0.189559
      8          6           0        0.043937   -0.595951   -0.041361
      9          6           0        1.469064   -1.029710   -0.048370
     10          8           0        1.814268   -2.170553   -0.201068
     11          8           0        2.354933   -0.046193    0.176857
     12          1           0       -0.073094    3.054019    0.891683
     13          1           0        1.492220    3.321149    0.083629
     14          1           0        1.324366    2.008731    1.275413
     15          1           0       -2.065987    2.018506   -0.426795
     16          1           0       -3.731391    0.242091    0.049298
     17          1           0       -2.970149   -2.089643    0.423680
     18          1           0       -0.542113   -2.606055    0.334406
     19          1           0        3.229789   -0.460821    0.158868
 ---------------------------------------------------------------------
 Rotational constants (GHZ):           1.4786082           1.1698909           0.6795928
 Standard basis: def2QZVPP (5D, 7F)
 There are  1072 symmetry adapted cartesian basis functions of A   symmetry.
 There are   867 symmetry adapted basis functions of A   symmetry.
   867 basis functions,  1316 primitive gaussians,  1072 cartesian basis functions
    40 alpha electrons       40 beta electrons
       nuclear repulsion energy       601.2380960696 Hartrees.
 NAtoms=   19 NActive=   19 NUniq=   19 SFac= 1.00D+00 NAtFMM=   60 NAOKFM=F Big=F
 Integral buffers will be    131072 words long.
 Raffenetti 2 integral format.
 Two-electron integral symmetry is turned on.
 Nuclear repulsion after empirical dispersion term =      601.2283551101 Hartrees.
 One-electron integrals computed using PRISM.
   1 Symmetry operations used in ECPInt.
 ECPInt:  NShTT=   35778 NPrTT=   90153 LenC2=   32532 LenP2D=   63595.
 LDataN:  DoStor=T MaxTD1= 8 Len=  415
 NBasis=   867 RedAO= T EigKep=  5.67D-06  NBF=   867
 NBsUse=   867 1.00D-06 EigRej= -1.00D+00 NBFU=   867
 ExpMin= 7.60D-02 ExpMax= 1.17D+05 ExpMxC= 1.13D+03 IAcc=3 IRadAn=         5 AccDes= 0.00D+00
 Harris functional with IExCor= 4639 and IRadAn=       5 diagonalized for initial guess.
 HarFok:  IExCor= 4639 AccDes= 0.00D+00 IRadAn=         5 IDoV= 1 UseB2=F ITyADJ=14
 ICtDFT=  3500011 ScaDFX=  1.000000  1.000000  1.000000  1.000000
 FoFCou: FMM=F IPFlag=           0 FMFlag=      100000 FMFlg1=           0
         NFxFlg=           0 DoJE=T BraDBF=F KetDBF=T FulRan=T
         wScrn=  0.000000 ICntrl=       500 IOpCl=  0 I1Cent=   200000004 NGrid=           0
         NMat0=    1 NMatS0=      1 NMatT0=    0 NMatD0=    1 NMtDS0=    0 NMtDT0=    0
 Petite list used in FoFCou.
 Requested convergence on RMS density matrix=1.00D-08 within 128 cycles.
 Requested convergence on MAX density matrix=1.00D-06.
 Requested convergence on             energy=1.00D-06.
 No special actions if energy rises.
 Integral accuracy reduced to 1.0D-05 until final iterations.
 Problem detected with inexpensive integrals.
 Switching to full accuracy and repeating last cycle.
 SCF Done:  E(RwB97XD) =  -535.403351325     A.U. after   18 cycles
            NFock= 18  Conv=0.48D-08     -V/T= 2.0044

 **********************************************************************

            Population analysis using the SCF Density.

 **********************************************************************

 Orbital symmetries:
       Occupied  (A) (A) (A) (A) (A) (A) (A) (A) (A) (A) (A) (A)
                 (A) (A) (A) (A) (A) (A) (A) (A) (A) (A) (A) (A)
                 (A) (A) (A) (A) (A) (A) (A) (A) (A) (A) (A) (A)
                 (A) (A) (A) (A)
       Virtual   (A) (A) (A) (A) (A) (A) (A) (A) (A) (A) (A) (A)
                 (A) (A) (A) (A) (A) (A) (A) (A) (A) (A) (A) (A)
                 (A) (A) (A) (A) (A) (A) (A) (A) (A) (A) (A) (A)
                 (A) (A) (A) (A) (A) (A) (A) (A) (A) (A) (A) (A)
                 (A) (A) (A) (A) (A) (A) (A) (A) (A) (A) (A) (A)
                 (A) (A) (A) (A) (A) (A) (A) (A) (A) (A) (A) (A)
                 (A) (A) (A) (A) (A) (A) (A) (A) (A) (A) (A) (A)
                 (A) (A) (A) (A) (A) (A) (A) (A) (A) (A) (A) (A)
                 (A) (A) (A) (A) (A) (A) (A) (A) (A) (A) (A) (A)
                 (A) (A) (A) (A) (A) (A) (A) (A) (A) (A) (A) (A)
                 (A) (A) (A) (A) (A) (A) (A) (A) (A) (A) (A) (A)
                 (A) (A) (A) (A) (A) (A) (A) (A) (A) (A) (A) (A)
                 (A) (A) (A) (A) (A) (A) (A) (A) (A) (A) (A) (A)
                 (A) (A) (A) (A) (A) (A) (A) (A) (A) (A) (A) (A)
                 (A) (A) (A) (A) (A) (A) (A) (A) (A) (A) (A) (A)
                 (A) (A) (A) (A) (A) (A) (A) (A) (A) (A) (A) (A)
                 (A) (A) (A) (A) (A) (A) (A) (A) (A) (A) (A) (A)
                 (A) (A) (A) (A) (A) (A) (A) (A) (A) (A) (A) (A)
                 (A) (A) (A) (A) (A) (A) (A) (A) (A) (A) (A) (A)
                 (A) (A) (A) (A) (A) (A) (A) (A) (A) (A) (A) (A)
                 (A) (A) (A) (A) (A) (A) (A) (A) (A) (A) (A) (A)
                 (A) (A) (A) (A) (A) (A) (A) (A) (A) (A) (A) (A)
                 (A) (A) (A) (A) (A) (A) (A) (A) (A) (A) (A) (A)
                 (A) (A) (A) (A) (A) (A) (A) (A) (A) (A) (A) (A)
                 (A) (A) (A) (A) (A) (A) (A) (A) (A) (A) (A) (A)
                 (A) (A) (A) (A) (A) (A) (A) (A) (A) (A) (A) (A)
                 (A) (A) (A) (A) (A) (A) (A) (A) (A) (A) (A) (A)
                 (A) (A) (A) (A) (A) (A) (A) (A) (A) (A) (A) (A)
                 (A) (A) (A) (A) (A) (A) (A) (A) (A) (A) (A) (A)
                 (A) (A) (A) (A) (A) (A) (A) (A) (A) (A) (A) (A)
                 (A) (A) (A) (A) (A) (A) (A) (A) (A) (A) (A) (A)
                 (A) (A) (A) (A) (A) (A) (A) (A) (A) (A) (A) (A)
                 (A) (A) (A) (A) (A) (A) (A) (A) (A) (A) (A) (A)
                 (A) (A) (A) (A) (A) (A) (A) (A) (A) (A) (A) (A)
                 (A) (A) (A) (A) (A) (A) (A) (A) (A) (A) (A) (A)
                 (A) (A) (A) (A) (A) (A) (A) (A) (A) (A) (A) (A)
                 (A) (A) (A) (A) (A) (A) (A) (A) (A) (A) (A) (A)
                 (A) (A) (A) (A) (A) (A) (A) (A) (A) (A) (A) (A)
                 (A) (A) (A) (A) (A) (A) (A) (A) (A) (A) (A) (A)
                 (A) (A) (A) (A) (A) (A) (A) (A) (A) (A) (A) (A)
                 (A) (A) (A) (A) (A) (A) (A) (A) (A) (A) (A) (A)
                 (A) (A) (A) (A) (A) (A) (A) (A) (A) (A) (A) (A)
                 (A) (A) (A) (A) (A) (A) (A) (A) (A) (A) (A) (A)
                 (A) (A) (A) (A) (A) (A) (A) (A) (A) (A) (A) (A)
                 (A) (A) (A) (A) (A) (A) (A) (A) (A) (A) (A) (A)
                 (A) (A) (A) (A) (A) (A) (A) (A) (A) (A) (A) (A)
                 (A) (A) (A) (A) (A) (A) (A) (A) (A) (A) (A) (A)
                 (A) (A) (A) (A) (A) (A) (A) (A) (A) (A) (A) (A)
                 (A) (A) (A) (A) (A) (A) (A) (A) (A) (A) (A) (A)
                 (A) (A) (A) (A) (A) (A) (A) (A) (A) (A) (A) (A)
                 (A) (A) (A) (A) (A) (A) (A) (A) (A) (A) (A) (A)
                 (A) (A) (A) (A) (A) (A) (A) (A) (A) (A) (A) (A)
                 (A) (A) (A) (A) (A) (A) (A) (A) (A) (A) (A) (A)
                 (A) (A) (A) (A) (A) (A) (A) (A) (A) (A) (A) (A)
                 (A) (A) (A) (A) (A) (A) (A) (A) (A) (A) (A) (A)
                 (A) (A) (A) (A) (A) (A) (A) (A) (A) (A) (A) (A)
                 (A) (A) (A) (A) (A) (A) (A) (A) (A) (A) (A) (A)
                 (A) (A) (A) (A) (A) (A) (A) (A) (A) (A) (A) (A)
                 (A) (A) (A) (A) (A) (A) (A) (A) (A) (A) (A) (A)
                 (A) (A) (A) (A) (A) (A) (A) (A) (A) (A) (A) (A)
                 (A) (A) (A) (A) (A) (A) (A) (A) (A) (A) (A) (A)
                 (A) (A) (A) (A) (A) (A) (A) (A) (A) (A) (A) (A)
                 (A) (A) (A) (A) (A) (A) (A) (A) (A) (A) (A) (A)
                 (A) (A) (A) (A) (A) (A) (A) (A) (A) (A) (A) (A)
                 (A) (A) (A) (A) (A) (A) (A) (A) (A) (A) (A) (A)
                 (A) (A) (A) (A) (A) (A) (A) (A) (A) (A) (A) (A)
                 (A) (A) (A) (A) (A) (A) (A) (A) (A) (A) (A) (A)
                 (A) (A) (A) (A) (A) (A) (A) (A) (A) (A) (A) (A)
                 (A) (A) (A) (A) (A) (A) (A) (A) (A) (A) (A)
 The electronic state is 1-A.
 Alpha  occ. eigenvalues --  -19.30231 -19.27350 -19.23932 -10.42710 -10.36320
 Alpha  occ. eigenvalues --  -10.33532 -10.31348 -10.30825 -10.30500 -10.29990
 Alpha  occ. eigenvalues --  -10.29883  -1.22073  -1.16850  -1.12430  -0.97437
 Alpha  occ. eigenvalues --   -0.88040  -0.86288  -0.79797  -0.76407  -0.70603
 Alpha  occ. eigenvalues --   -0.69406  -0.63666  -0.60218  -0.58992  -0.57251
 Alpha  occ. eigenvalues --   -0.56283  -0.55855  -0.54284  -0.53295  -0.52109
 Alpha  occ. eigenvalues --   -0.49661  -0.47436  -0.46372  -0.45230  -0.43422
 Alpha  occ. eigenvalues --   -0.41543  -0.37668  -0.36491  -0.34643  -0.33214
 Alpha virt. eigenvalues --    0.01240   0.04772   0.08594   0.09911   0.10688
 Alpha virt. eigenvalues --    0.11756   0.12321   0.13429   0.14298   0.14974
 Alpha virt. eigenvalues --    0.15911   0.17187   0.18259   0.18825   0.19505
 Alpha virt. eigenvalues --    0.20852   0.21734   0.22263   0.22667   0.23216
 Alpha virt. eigenvalues --    0.23952   0.25147   0.26245   0.26527   0.27812
 Alpha virt. eigenvalues --    0.28473   0.30440   0.31011   0.31259   0.32210
 Alpha virt. eigenvalues --    0.33134   0.33902   0.34034   0.34716   0.35117
 Alpha virt. eigenvalues --    0.35742   0.35897   0.37633   0.38263   0.39074
 Alpha virt. eigenvalues --    0.39241   0.39390   0.39863   0.40815   0.41295
 Alpha virt. eigenvalues --    0.42474   0.43354   0.43854   0.44669   0.44980
 Alpha virt. eigenvalues --    0.46223   0.47576   0.48107   0.48935   0.49729
 Alpha virt. eigenvalues --    0.50659   0.51143   0.51532   0.52446   0.53669
 Alpha virt. eigenvalues --    0.53848   0.55290   0.55573   0.56932   0.57252
 Alpha virt. eigenvalues --    0.58184   0.58392   0.59162   0.60338   0.61829
 Alpha virt. eigenvalues --    0.62983   0.64656   0.65692   0.66121   0.66852
 Alpha virt. eigenvalues --    0.68536   0.69817   0.71219   0.71926   0.72857
 Alpha virt. eigenvalues --    0.73284   0.75588   0.76166   0.76478   0.77756
 Alpha virt. eigenvalues --    0.78169   0.78906   0.79598   0.80612   0.81590
 Alpha virt. eigenvalues --    0.82227   0.83063   0.83349   0.83991   0.84811
 Alpha virt. eigenvalues --    0.86082   0.87045   0.87286   0.88215   0.89332
 Alpha virt. eigenvalues --    0.89372   0.89966   0.91253   0.91954   0.93650
 Alpha virt. eigenvalues --    0.94765   0.95772   0.96285   0.97002   0.97968
 Alpha virt. eigenvalues --    0.98242   0.98636   0.99689   0.99948   1.00682
 Alpha virt. eigenvalues --    1.02165   1.02700   1.03522   1.04468   1.05616
 Alpha virt. eigenvalues --    1.06436   1.07685   1.08458   1.09160   1.10002
 Alpha virt. eigenvalues --    1.10417   1.12431   1.12551   1.13267   1.14056
 Alpha virt. eigenvalues --    1.14163   1.16720   1.17263   1.18343   1.19168
 Alpha virt. eigenvalues --    1.19554   1.20353   1.22215   1.23557   1.24737
 Alpha virt. eigenvalues --    1.25898   1.26915   1.27957   1.29913   1.31259
 Alpha virt. eigenvalues --    1.31578   1.32152   1.34995   1.36350   1.37438
 Alpha virt. eigenvalues --    1.38559   1.40104   1.40902   1.41870   1.42267
 Alpha virt. eigenvalues --    1.43524   1.44403   1.47133   1.48908   1.49219
 Alpha virt. eigenvalues --    1.49798   1.51276   1.52443   1.53071   1.54757
 Alpha virt. eigenvalues --    1.55659   1.57020   1.59740   1.60952   1.61727
 Alpha virt. eigenvalues --    1.62806   1.63654   1.65400   1.66729   1.68328
 Alpha virt. eigenvalues --    1.69218   1.70178   1.72146   1.72586   1.73302
 Alpha virt. eigenvalues --    1.74446   1.76700   1.79124   1.79686   1.80417
 Alpha virt. eigenvalues --    1.81325   1.83738   1.84028   1.85024   1.86514
 Alpha virt. eigenvalues --    1.87329   1.88050   1.89065   1.90486   1.90700
 Alpha virt. eigenvalues --    1.91221   1.92983   1.94577   1.94979   1.96093
 Alpha virt. eigenvalues --    1.96394   1.98557   1.99377   1.99955   2.00705
 Alpha virt. eigenvalues --    2.01080   2.02881   2.03862   2.04494   2.06060
 Alpha virt. eigenvalues --    2.06807   2.07532   2.08567   2.08713   2.09507
 Alpha virt. eigenvalues --    2.10030   2.11030   2.12354   2.13257   2.14193
 Alpha virt. eigenvalues --    2.15245   2.16192   2.16962   2.18440   2.19149
 Alpha virt. eigenvalues --    2.19520   2.20193   2.21463   2.22010   2.23857
 Alpha virt. eigenvalues --    2.25107   2.25825   2.27048   2.27396   2.28653
 Alpha virt. eigenvalues --    2.29439   2.30428   2.31249   2.32266   2.33268
 Alpha virt. eigenvalues --    2.33691   2.34861   2.36425   2.36715   2.37510
 Alpha virt. eigenvalues --    2.37747   2.38626   2.39622   2.40863   2.41946
 Alpha virt. eigenvalues --    2.43239   2.43564   2.45827   2.46450   2.47743
 Alpha virt. eigenvalues --    2.48264   2.49608   2.50748   2.51860   2.52500
 Alpha virt. eigenvalues --    2.53210   2.53988   2.55079   2.55590   2.56502
 Alpha virt. eigenvalues --    2.57226   2.58018   2.59325   2.61236   2.61869
 Alpha virt. eigenvalues --    2.62591   2.63618   2.64933   2.66384   2.66973
 Alpha virt. eigenvalues --    2.67742   2.67841   2.70684   2.71078   2.71787
 Alpha virt. eigenvalues --    2.72922   2.73756   2.74739   2.75358   2.76420
 Alpha virt. eigenvalues --    2.77180   2.77542   2.78486   2.78613   2.80564
 Alpha virt. eigenvalues --    2.80796   2.82993   2.83254   2.84006   2.84584
 Alpha virt. eigenvalues --    2.85879   2.86550   2.88482   2.89287   2.90788
 Alpha virt. eigenvalues --    2.92138   2.93151   2.94110   2.95460   2.96002
 Alpha virt. eigenvalues --    2.96826   2.97769   2.98688   3.01296   3.02428
 Alpha virt. eigenvalues --    3.04440   3.06127   3.07153   3.09458   3.10447
 Alpha virt. eigenvalues --    3.11800   3.13074   3.15400   3.16199   3.18224
 Alpha virt. eigenvalues --    3.19477   3.22613   3.23111   3.24656   3.25457
 Alpha virt. eigenvalues --    3.26866   3.28494   3.29613   3.30394   3.31996
 Alpha virt. eigenvalues --    3.33742   3.38016   3.39256   3.39767   3.40896
 Alpha virt. eigenvalues --    3.43450   3.45048   3.46830   3.47186   3.48253
 Alpha virt. eigenvalues --    3.49128   3.49957   3.53023   3.53576   3.54083
 Alpha virt. eigenvalues --    3.55356   3.56191   3.58352   3.61025   3.64336
 Alpha virt. eigenvalues --    3.65597   3.66077   3.66570   3.68480   3.70373
 Alpha virt. eigenvalues --    3.71879   3.73695   3.77281   3.78516   3.81180
 Alpha virt. eigenvalues --    3.81264   3.85058   3.85318   3.88652   3.90536
 Alpha virt. eigenvalues --    3.92119   3.93458   3.93825   3.95438   3.95761
 Alpha virt. eigenvalues --    3.96675   3.99592   4.00974   4.03239   4.05739
 Alpha virt. eigenvalues --    4.07841   4.10395   4.12315   4.15212   4.16920
 Alpha virt. eigenvalues --    4.18970   4.19133   4.19559   4.21694   4.22739
 Alpha virt. eigenvalues --    4.25184   4.27197   4.28044   4.30284   4.32568
 Alpha virt. eigenvalues --    4.34719   4.34873   4.37484   4.39930   4.43392
 Alpha virt. eigenvalues --    4.45221   4.47193   4.49009   4.52623   4.54623
 Alpha virt. eigenvalues --    4.57662   4.59548   4.60264   4.62698   4.63489
 Alpha virt. eigenvalues --    4.65666   4.69099   4.71008   4.73826   4.74216
 Alpha virt. eigenvalues --    4.75630   4.80197   4.82120   4.86241   4.88520
 Alpha virt. eigenvalues --    4.89063   4.90272   4.93658   4.94864   4.97332
 Alpha virt. eigenvalues --    4.99963   5.01343   5.02334   5.04903   5.08859
 Alpha virt. eigenvalues --    5.11570   5.12857   5.14779   5.15159   5.17667
 Alpha virt. eigenvalues --    5.18394   5.19582   5.20816   5.22120   5.23732
 Alpha virt. eigenvalues --    5.24835   5.28811   5.29137   5.30366   5.32094
 Alpha virt. eigenvalues --    5.34221   5.35058   5.35379   5.38917   5.41346
 Alpha virt. eigenvalues --    5.42264   5.44380   5.45942   5.46842   5.48962
 Alpha virt. eigenvalues --    5.51037   5.51967   5.53289   5.54425   5.55623
 Alpha virt. eigenvalues --    5.58399   5.59152   5.59805   5.62892   5.64724
 Alpha virt. eigenvalues --    5.66859   5.67956   5.68385   5.70080   5.71632
 Alpha virt. eigenvalues --    5.72360   5.74773   5.75687   5.77095   5.78576
 Alpha virt. eigenvalues --    5.81243   5.82808   5.84058   5.84884   5.86716
 Alpha virt. eigenvalues --    5.87789   5.90286   5.90864   5.92356   5.93175
 Alpha virt. eigenvalues --    5.94344   5.95102   5.95793   5.96453   5.98202
 Alpha virt. eigenvalues --    5.98656   6.01782   6.01906   6.04135   6.04676
 Alpha virt. eigenvalues --    6.06235   6.07503   6.09054   6.10402   6.10885
 Alpha virt. eigenvalues --    6.11936   6.13072   6.13433   6.14763   6.16689
 Alpha virt. eigenvalues --    6.16816   6.18681   6.20687   6.21213   6.22337
 Alpha virt. eigenvalues --    6.23015   6.24163   6.24734   6.25523   6.26840
 Alpha virt. eigenvalues --    6.27621   6.28322   6.30482   6.31821   6.32255
 Alpha virt. eigenvalues --    6.33412   6.34205   6.34852   6.34987   6.36976
 Alpha virt. eigenvalues --    6.36991   6.37738   6.38632   6.39563   6.40829
 Alpha virt. eigenvalues --    6.42466   6.43750   6.44691   6.46032   6.46867
 Alpha virt. eigenvalues --    6.47242   6.48554   6.49117   6.50571   6.52493
 Alpha virt. eigenvalues --    6.54816   6.55780   6.56757   6.60166   6.61460
 Alpha virt. eigenvalues --    6.61775   6.62869   6.64302   6.65851   6.66683
 Alpha virt. eigenvalues --    6.69006   6.69453   6.71131   6.71832   6.74190
 Alpha virt. eigenvalues --    6.74983   6.75402   6.76012   6.76901   6.79396
 Alpha virt. eigenvalues --    6.80404   6.81852   6.82706   6.83721   6.84615
 Alpha virt. eigenvalues --    6.85990   6.87474   6.88611   6.93637   6.93674
 Alpha virt. eigenvalues --    6.95246   6.97914   7.00190   7.00812   7.03097
 Alpha virt. eigenvalues --    7.04885   7.07147   7.07951   7.10253   7.11475
 Alpha virt. eigenvalues --    7.12787   7.14470   7.16251   7.16695   7.18933
 Alpha virt. eigenvalues --    7.22327   7.24384   7.26728   7.27761   7.28373
 Alpha virt. eigenvalues --    7.31405   7.35527   7.36190   7.36595   7.38348
 Alpha virt. eigenvalues --    7.41374   7.42740   7.44665   7.45901   7.47601
 Alpha virt. eigenvalues --    7.48778   7.49710   7.51701   7.52463   7.53324
 Alpha virt. eigenvalues --    7.55037   7.56017   7.57374   7.58199   7.59094
 Alpha virt. eigenvalues --    7.60803   7.61105   7.64705   7.66462   7.67502
 Alpha virt. eigenvalues --    7.71496   7.73786   7.74803   7.76599   7.79716
 Alpha virt. eigenvalues --    7.80436   7.81112   7.82127   7.82560   7.85197
 Alpha virt. eigenvalues --    7.87159   7.88652   7.89899   7.91573   7.93495
 Alpha virt. eigenvalues --    7.94836   7.98238   7.99295   8.00594   8.01676
 Alpha virt. eigenvalues --    8.02271   8.03431   8.04932   8.05867   8.08930
 Alpha virt. eigenvalues --    8.10313   8.13908   8.14458   8.21805   8.22169
 Alpha virt. eigenvalues --    8.22503   8.23853   8.24365   8.27085   8.30292
 Alpha virt. eigenvalues --    8.32829   8.33928   8.34744   8.36112   8.37617
 Alpha virt. eigenvalues --    8.39707   8.39809   8.41130   8.41324   8.42163
 Alpha virt. eigenvalues --    8.43265   8.43798   8.46152   8.46926   8.48785
 Alpha virt. eigenvalues --    8.49089   8.51237   8.52278   8.53701   8.54586
 Alpha virt. eigenvalues --    8.55996   8.56841   8.58073   8.60086   8.62700
 Alpha virt. eigenvalues --    8.64072   8.65123   8.66718   8.67753   8.69902
 Alpha virt. eigenvalues --    8.71063   8.78309   8.79509   8.80614   8.81844
 Alpha virt. eigenvalues --    8.84488   8.84760   8.85575   8.89432   8.90026
 Alpha virt. eigenvalues --    8.92917   8.95264   8.96550   8.97866   8.98193
 Alpha virt. eigenvalues --    8.99471   9.00087   9.01136   9.02348   9.03865
 Alpha virt. eigenvalues --    9.05446   9.07206   9.10541   9.20048   9.26111
 Alpha virt. eigenvalues --    9.30111   9.31413   9.38148   9.40880   9.45327
 Alpha virt. eigenvalues --    9.50866   9.52213   9.58828   9.62980   9.69314
 Alpha virt. eigenvalues --    9.70989   9.75978   9.80196   9.81570   9.82110
 Alpha virt. eigenvalues --    9.85968   9.87012   9.89705   9.90356   9.90918
 Alpha virt. eigenvalues --    9.92933   9.95248   9.98288   9.99763  10.01465
 Alpha virt. eigenvalues --   10.07237  10.07953  10.12244  10.13245  10.14764
 Alpha virt. eigenvalues --   10.16097  10.18967  10.22347  10.25066  10.29190
 Alpha virt. eigenvalues --   10.32636  10.34089  10.36285  10.38628  10.40974
 Alpha virt. eigenvalues --   10.44318  10.47940  10.50179  10.51225  10.54516
 Alpha virt. eigenvalues --   10.66801  10.68074  10.71907  10.82685  10.84348
 Alpha virt. eigenvalues --   10.85255  10.93050  10.95105  10.98937  11.02160
 Alpha virt. eigenvalues --   11.04062  11.11412  11.18409  11.41899  11.46282
 Alpha virt. eigenvalues --   11.53720  11.57908  11.59909  11.62135  11.74980
 Alpha virt. eigenvalues --   11.75940  11.76843  11.82600  11.94354  11.95516
 Alpha virt. eigenvalues --   11.97114  12.00992  12.07266  12.09164  12.12927
 Alpha virt. eigenvalues --   12.19159  12.22588  12.28513  12.29927  12.31487
 Alpha virt. eigenvalues --   12.34403  12.37110  12.48576  12.62779  12.64564
 Alpha virt. eigenvalues --   12.67342  12.76043  12.79024  12.88773  12.94493
 Alpha virt. eigenvalues --   13.10108  13.26483  13.32113  13.32380  13.45156
 Alpha virt. eigenvalues --   13.57861  13.68376  13.78861  13.86667  14.18006
 Alpha virt. eigenvalues --   14.27853  14.57722  14.67771  14.81052  16.72486
 Alpha virt. eigenvalues --   27.96523  28.41495  28.56161  28.62839  28.94172
 Alpha virt. eigenvalues --   29.07352  29.10805  29.45949  48.28216  48.51304
 Alpha virt. eigenvalues --   48.53855 147.11669 147.53203 147.67318 147.75802
 Alpha virt. eigenvalues --  148.02439 148.19468 148.20346 148.57430 253.40208
 Alpha virt. eigenvalues --  253.65716 253.68464
          Condensed to atoms (all electrons):
               1          2          3          4          5          6
     1  C    4.472780   0.294521  -0.058624  -0.002048  -0.000832   0.000926
     2  O    0.294521   7.995362   0.420939  -0.110381   0.011646   0.000801
     3  C   -0.058624   0.420939   5.255507   0.442007  -0.097961  -0.032962
     4  C   -0.002048  -0.110381   0.442007   5.006780   0.531684  -0.079126
     5  C   -0.000832   0.011646  -0.097961   0.531684   4.917609   0.547424
     6  C    0.000926   0.000801  -0.032962  -0.079126   0.547424   4.940012
     7  C   -0.002288   0.008516  -0.096800  -0.047459  -0.091179   0.552710
     8  C   -0.000443  -0.097371   0.183203  -0.069942  -0.027678  -0.104813
     9  C   -0.003623  -0.005492  -0.096057   0.007253  -0.000910   0.005329
    10  O   -0.000037  -0.000188   0.005542  -0.001970   0.000792   0.003210
    11  O   -0.007258  -0.011256  -0.000108  -0.001113   0.000340  -0.000485
    12  H    0.402718  -0.048769   0.005088   0.005582  -0.003159   0.000102
    13  H    0.407828  -0.036118   0.000575   0.000699   0.000059  -0.000019
    14  H    0.407036  -0.049605   0.004191  -0.002144   0.001061  -0.000374
    15  H   -0.002353   0.002793  -0.025665   0.350406  -0.046930   0.008334
    16  H   -0.000035  -0.000298   0.010572  -0.014319   0.345647  -0.036103
    17  H    0.000005   0.000029  -0.001488   0.007649  -0.030282   0.360925
    18  H   -0.000058  -0.000325   0.013014  -0.003224   0.008326  -0.046011
    19  H    0.000652   0.000802  -0.001337   0.000403  -0.000053   0.000091
               7          8          9         10         11         12
     1  C   -0.002288  -0.000443  -0.003623  -0.000037  -0.007258   0.402718
     2  O    0.008516  -0.097371  -0.005492  -0.000188  -0.011256  -0.048769
     3  C   -0.096800   0.183203  -0.096057   0.005542  -0.000108   0.005088
     4  C   -0.047459  -0.069942   0.007253  -0.001970  -0.001113   0.005582
     5  C   -0.091179  -0.027678  -0.000910   0.000792   0.000340  -0.003159
     6  C    0.552710  -0.104813   0.005329   0.003210  -0.000485   0.000102
     7  C    5.031574   0.453098  -0.112017  -0.001619   0.008407   0.000394
     8  C    0.453098   5.502364   0.338553  -0.110836  -0.113728  -0.003313
     9  C   -0.112017   0.338553   4.354226   0.755279   0.447262   0.000551
    10  O   -0.001619  -0.110836   0.755279   7.777196  -0.106069   0.000002
    11  O    0.008407  -0.113728   0.447262  -0.106069   7.823325   0.000687
    12  H    0.000394  -0.003313   0.000551   0.000002   0.000687   0.668659
    13  H    0.000034  -0.000748  -0.000198   0.000006   0.000350  -0.021740
    14  H   -0.000414   0.011714   0.000402  -0.000006   0.004947  -0.046521
    15  H   -0.003283   0.020243   0.000246  -0.000020  -0.000027   0.001307
    16  H    0.010751  -0.003263   0.000006   0.000002  -0.000000   0.000081
    17  H   -0.025564   0.010670  -0.000289  -0.000038   0.000003   0.000001
    18  H    0.353409  -0.016455  -0.003880   0.012622   0.001456  -0.000014
    19  H   -0.001621   0.019984  -0.037310   0.014393   0.291577  -0.000007
              13         14         15         16         17         18
     1  C    0.407828   0.407036  -0.002353  -0.000035   0.000005  -0.000058
     2  O   -0.036118  -0.049605   0.002793  -0.000298   0.000029  -0.000325
     3  C    0.000575   0.004191  -0.025665   0.010572  -0.001488   0.013014
     4  C    0.000699  -0.002144   0.350406  -0.014319   0.007649  -0.003224
     5  C    0.000059   0.001061  -0.046930   0.345647  -0.030282   0.008326
     6  C   -0.000019  -0.000374   0.008334  -0.036103   0.360925  -0.046011
     7  C    0.000034  -0.000414  -0.003283   0.010751  -0.025564   0.353409
     8  C   -0.000748   0.011714   0.020243  -0.003263   0.010670  -0.016455
     9  C   -0.000198   0.000402   0.000246   0.000006  -0.000289  -0.003880
    10  O    0.000006  -0.000006  -0.000020   0.000002  -0.000038   0.012622
    11  O    0.000350   0.004947  -0.000027  -0.000000   0.000003   0.001456
    12  H   -0.021740  -0.046521   0.001307   0.000081   0.000001  -0.000014
    13  H    0.579338  -0.025450  -0.000486  -0.000002   0.000000  -0.000002
    14  H   -0.025450   0.644465   0.001254   0.000004  -0.000004   0.000089
    15  H   -0.000486   0.001254   0.623013  -0.002182  -0.000375  -0.000013
    16  H   -0.000002   0.000004  -0.002182   0.600172  -0.001945  -0.000223
    17  H    0.000000  -0.000004  -0.000375  -0.001945   0.594996  -0.002911
    18  H   -0.000002   0.000089  -0.000013  -0.000223  -0.002911   0.587551
    19  H    0.000101  -0.000494   0.000003   0.000000  -0.000000  -0.000262
              19
     1  C    0.000652
     2  O    0.000802
     3  C   -0.001337
     4  C    0.000403
     5  C   -0.000053
     6  C    0.000091
     7  C   -0.001621
     8  C    0.019984
     9  C   -0.037310
    10  O    0.014393
    11  O    0.291577
    12  H   -0.000007
    13  H    0.000101
    14  H   -0.000494
    15  H    0.000003
    16  H    0.000000
    17  H   -0.000000
    18  H   -0.000262
    19  H    0.463251
 Mulliken charges:
               1
     1  C    0.091134
     2  O   -0.375604
     3  C    0.070365
     4  C   -0.020737
     5  C   -0.065604
     6  C   -0.119971
     7  C   -0.036648
     8  C    0.008763
     9  C    0.350672
    10  O   -0.348260
    11  O   -0.338310
    12  H    0.038348
    13  H    0.095772
    14  H    0.049850
    15  H    0.073735
    16  H    0.091138
    17  H    0.088617
    18  H    0.096912
    19  H    0.249826
 Sum of Mulliken charges =  -0.00000
 Mulliken charges with hydrogens summed into heavy atoms:
               1
     1  C    0.275105
     2  O   -0.375604
     3  C    0.070365
     4  C    0.052998
     5  C    0.025534
     6  C   -0.031353
     7  C    0.060264
     8  C    0.008763
     9  C    0.350672
    10  O   -0.348260
    11  O   -0.088484
 Electronic spatial extent (au):  <R**2>=           1640.9798
 Charge=             -0.0000 electrons
 Dipole moment (field-independent basis, Debye):
    X=             -0.9920    Y=              2.0582    Z=              1.4180  Tot=              2.6891
 Quadrupole moment (field-independent basis, Debye-Ang):
   XX=            -52.8482   YY=            -63.6376   ZZ=            -66.1189
   XY=              4.1634   XZ=              1.4172   YZ=              0.3106
 Traceless Quadrupole moment (field-independent basis, Debye-Ang):
   XX=              8.0200   YY=             -2.7694   ZZ=             -5.2506
   XY=              4.1634   XZ=              1.4172   YZ=              0.3106
 Octapole moment (field-independent basis, Debye-Ang**2):
  XXX=             29.7681  YYY=             27.4079  ZZZ=             -1.8934  XYY=            -10.5556
  XXY=              5.6527  XXZ=              3.0558  XZZ=             11.7389  YZZ=             -0.1926
  YYZ=              7.9333  XYZ=              1.6875
 Hexadecapole moment (field-independent basis, Debye-Ang**3):
 XXXX=           -903.6636 YYYY=           -885.8419 ZZZZ=           -110.1739 XXXY=             -5.2410
 XXXZ=              3.0154 YYYX=             52.0508 YYYZ=             -6.6488 ZZZX=              1.6045
 ZZZY=              0.6731 XXYY=           -339.9456 XXZZ=           -215.0842 YYZZ=           -175.6761
 XXYZ=            -10.8193 YYXZ=              3.8310 ZZXY=             -5.7298
 N-N= 6.012283551101D+02 E-N=-2.454446320543D+03  KE= 5.330349419394D+02
 Unable to Open any file for archive entry.
 1\1\GINC-NODE02\SP\RwB97XD\def2QZVPP\C8H8O3\J77KING\08-May-2024\0\\# w
 b97xd/def2qzvpp\\Ac4_rdkit_conf_3_qzvpp\\0,1\C,0,0.81887,2.568572,0.48
 6238\O,0,0.47873,1.710061,-0.591784\C,0,-0.391914,0.713364,-0.264149\C
 ,0,-1.752579,1.001698,-0.227769\C,0,-2.675893,0.00311,0.027052\C,0,-2.
 251199,-1.304215,0.235095\C,0,-0.901466,-1.595949,0.189559\C,0,0.04393
 7,-0.595951,-0.041361\C,0,1.469064,-1.02971,-0.04837\O,0,1.814267,-2.1
 70553,-0.201068\O,0,2.354933,-0.046194,0.176857\H,0,-0.073093,3.054019
 ,0.891683\H,0,1.492221,3.321149,0.083629\H,0,1.324367,2.008731,1.27541
 3\H,0,-2.065986,2.018507,-0.426795\H,0,-3.731391,0.242092,0.049298\H,0
 ,-2.97015,-2.089642,0.42368\H,0,-0.542114,-2.606055,0.334406\H,0,3.229
 789,-0.460822,0.158868\\Version=AS64L-G16RevC.01\State=1-A\HF=-535.403
 3513\RMSD=4.849e-09\Dipole=-0.3902741,0.8097771,0.5578722\Quadrupole=5
 .9626929,-2.0589729,-3.90372,3.0954124,1.0536824,0.2309499\PG=C01 [X(C
 8H8O3)]\\@
 The archive entry for this job was punched.


     "IF I COULD JUST GET IT ON PAPER"
 LIFE AND INK, THEY RUN OUT AT THE SAME TIME,
 OR SO SAID MY OLD FRIEND THE SQUID.
     -- JIMMY BUFFETT, 1981
 Job cpu time:       0 days  3 hours 39 minutes 47.9 seconds.
 Elapsed time:       0 days  0 hours 28 minutes  1.3 seconds.
 File lengths (MBytes):  RWF=    409 Int=      0 D2E=      0 Chk=     44 Scr=      1
 Normal termination of Gaussian 16 at Wed May  8 19:44:51 2024.
