Job Start Time: Wed May  8 19:32:08 MDT 2024
SLURM Job ID: 265092
SLURM Job Name: Ac5_rdkit_conf_2_qzvpp
 Entering Gaussian System, Link 0=/opt/apps/Gaussian/G16C/g16/g16
 Initial command:
 /opt/apps/Gaussian/G16C/g16/l1.exe "/tmp/Gau-3098233.inp" -scrdir="/tmp/"
 Entering Link 1 = /opt/apps/Gaussian/G16C/g16/l1.exe PID=   3098234.
  
 Copyright (c) 1988-2019, Gaussian, Inc.  All Rights Reserved.
  
 This is part of the Gaussian(R) 16 program.  It is based on
 the Gaussian(R) 09 system (copyright 2009, Gaussian, Inc.),
 the Gaussian(R) 03 system (copyright 2003, Gaussian, Inc.),
 the Gaussian(R) 98 system (copyright 1998, Gaussian, Inc.),
 the Gaussian(R) 94 system (copyright 1995, Gaussian, Inc.),
 the Gaussian 92(TM) system (copyright 1992, Gaussian, Inc.),
 the Gaussian 90(TM) system (copyright 1990, Gaussian, Inc.),
 the Gaussian 88(TM) system (copyright 1988, Gaussian, Inc.),
 the Gaussian 86(TM) system (copyright 1986, Carnegie Mellon
 University), and the Gaussian 82(TM) system (copyright 1983,
 Carnegie Mellon University). Gaussian is a federally registered
 trademark of Gaussian, Inc.
  
 This software contains proprietary and confidential information,
 including trade secrets, belonging to Gaussian, Inc.
  
 This software is provided under written license and may be
 used, copied, transmitted, or stored only in accord with that
 written license.
  
 The following legend is applicable only to US Government
 contracts under FAR:
  
                    RESTRICTED RIGHTS LEGEND
  
 Use, reproduction and disclosure by the US Government is
 subject to restrictions as set forth in subparagraphs (a)
 and (c) of the Commercial Computer Software - Restricted
 Rights clause in FAR 52.227-19.
  
 Gaussian, Inc.
 340 Quinnipiac St., Bldg. 40, Wallingford CT 06492
  
  
 ---------------------------------------------------------------
 Warning -- This program may not be used in any manner that
 competes with the business of Gaussian, Inc. or will provide
 assistance to any competitor of Gaussian, Inc.  The licensee
 of this program is prohibited from giving any competitor of
 Gaussian, Inc. access to this program.  By using this program,
 the user acknowledges that Gaussian, Inc. is engaged in the
 business of creating and licensing software in the field of
 computational chemistry and represents and warrants to the
 licensee that it is not a competitor of Gaussian, Inc. and that
 it will not use this program in any manner prohibited above.
 ---------------------------------------------------------------
  

 Cite this work as:
 Gaussian 16, Revision C.01,
 M. J. Frisch, G. W. Trucks, H. B. Schlegel, G. E. Scuseria, 
 M. A. Robb, J. R. Cheeseman, G. Scalmani, V. Barone, 
 G. A. Petersson, H. Nakatsuji, X. Li, M. Caricato, A. V. Marenich, 
 J. Bloino, B. G. Janesko, R. Gomperts, B. Mennucci, H. P. Hratchian, 
 J. V. Ortiz, A. F. Izmaylov, J. L. Sonnenberg, D. Williams-Young, 
 F. Ding, F. Lipparini, F. Egidi, J. Goings, B. Peng, A. Petrone, 
 T. Henderson, D. Ranasinghe, V. G. Zakrzewski, J. Gao, N. Rega, 
 G. Zheng, W. Liang, M. Hada, M. Ehara, K. Toyota, R. Fukuda, 
 J. Hasegawa, M. Ishida, T. Nakajima, Y. Honda, O. Kitao, H. Nakai, 
 T. Vreven, K. Throssell, J. A. Montgomery, Jr., J. E. Peralta, 
 F. Ogliaro, M. J. Bearpark, J. J. Heyd, E. N. Brothers, K. N. Kudin, 
 V. N. Staroverov, T. A. Keith, R. Kobayashi, J. Normand, 
 K. Raghavachari, A. P. Rendell, J. C. Burant, S. S. Iyengar, 
 J. Tomasi, M. Cossi, J. M. Millam, M. Klene, C. Adamo, R. Cammi, 
 J. W. Ochterski, R. L. Martin, K. Morokuma, O. Farkas, 
 J. B. Foresman, and D. J. Fox, Gaussian, Inc., Wallingford CT, 2019.
 
 ******************************************
 Gaussian 16:  AS64L-G16RevC.01  3-Jul-2019
                 8-May-2024 
 ******************************************
 %nprocshared=8
 Will use up to    8 processors via shared memory.
 %mem=32GB
 ------------------
 # wb97xd/def2qzvpp
 ------------------
 1/38=1,172=1/1;
 2/12=2,17=6,18=5,40=1/2;
 3/5=45,7=202,11=2,25=1,30=1,74=-58/1,2,3;
 4//1;
 5/5=2,38=5/2;
 6/7=2,8=2,9=2,10=2,28=1/1;
 99/5=1,9=1/99;
 ----------------------
 Ac5_rdkit_conf_2_qzvpp
 ----------------------
 Symbolic Z-matrix:
 Charge =  0 Multiplicity = 1
 C                     1.32151   0.58391   1.7169 
 C                     0.96652   0.48245   0.22414 
 C                     1.40881   1.77534  -0.47803 
 C                     1.76481  -0.63503  -0.44265 
 O                     1.36379  -1.38899  -1.28181 
 O                     3.04698  -0.65924  -0.02092 
 C                    -0.52267   0.20173   0.07876 
 C                    -1.41346   1.13728  -0.43184 
 C                    -2.77643   0.86511  -0.4927 
 C                    -3.26726  -0.34908  -0.04551 
 C                    -2.38502  -1.29525   0.46288 
 C                    -1.03078  -1.01928   0.52341 
 H                     1.10676  -0.34746   2.2408 
 H                     2.37562   0.82171   1.84963 
 H                     0.71842   1.3726    2.16763 
 H                     0.93319   2.63568  -0.00655 
 H                     1.14511   1.7631   -1.5361 
 H                     2.48779   1.89337  -0.38558 
 H                     3.49451  -1.35006  -0.53004 
 H                    -1.05809   2.0921   -0.79389 
 H                    -3.45145   1.60899  -0.89599 
 H                    -4.327    -0.56242  -0.09542 
 H                    -2.75425  -2.25247   0.80765 
 H                    -0.35285  -1.77242   0.90769 
 
                          Input orientation:                          
 ---------------------------------------------------------------------
 Center     Atomic      Atomic             Coordinates (Angstroms)
 Number     Number       Type             X           Y           Z
 ---------------------------------------------------------------------
      1          6           0        1.321507    0.583906    1.716899
      2          6           0        0.966515    0.482447    0.224139
      3          6           0        1.408811    1.775344   -0.478034
      4          6           0        1.764810   -0.635028   -0.442652
      5          8           0        1.363794   -1.388985   -1.281814
      6          8           0        3.046975   -0.659240   -0.020920
      7          6           0       -0.522671    0.201729    0.078761
      8          6           0       -1.413457    1.137278   -0.431842
      9          6           0       -2.776432    0.865113   -0.492702
     10          6           0       -3.267260   -0.349082   -0.045514
     11          6           0       -2.385022   -1.295248    0.462875
     12          6           0       -1.030784   -1.019277    0.523406
     13          1           0        1.106764   -0.347461    2.240800
     14          1           0        2.375615    0.821706    1.849632
     15          1           0        0.718423    1.372597    2.167632
     16          1           0        0.933189    2.635681   -0.006546
     17          1           0        1.145112    1.763103   -1.536097
     18          1           0        2.487786    1.893367   -0.385577
     19          1           0        3.494506   -1.350061   -0.530038
     20          1           0       -1.058094    2.092101   -0.793887
     21          1           0       -3.451449    1.608985   -0.895989
     22          1           0       -4.326995   -0.562420   -0.095424
     23          1           0       -2.754247   -2.252468    0.807653
     24          1           0       -0.352852   -1.772417    0.907692
 ---------------------------------------------------------------------
                    Distance matrix (angstroms):
                    1          2          3          4          5
     1  C    0.000000
     2  C    1.537740   0.000000
     3  C    2.498975   1.536312   0.000000
     4  C    2.519122   1.526642   2.436777   0.000000
     5  O    3.589759   2.434745   3.265129   1.197271   0.000000
     6  O    2.746392   2.385753   2.969804   1.349960   2.226091
     7  C    2.496107   1.522371   2.552823   2.490904   2.817851
     8  C    3.521837   2.554091   2.893866   3.639034   3.849361
     9  C    4.664174   3.830137   4.283106   4.782866   4.779658
    10  C    5.003334   4.323078   5.154212   5.055810   4.904742
    11  C    4.340755   3.801315   4.970615   4.298485   4.135982
    12  C    3.086729   2.516732   3.842449   2.982660   3.021507
    13  H    1.089968   2.185255   3.462599   2.777883   3.682342
    14  H    1.088720   2.177817   2.694840   2.783832   3.964453
    15  H    1.090369   2.151995   2.763764   3.455295   4.465593
    16  H    2.707551   2.165812   1.090274   3.402840   4.243780
    17  H    3.464622   2.184126   1.090497   2.707523   3.169880
    18  H    2.737755   2.162571   1.089341   2.630348   3.583355
    19  H    3.675715   3.212103   3.757790   1.873701   2.259782
    20  H    3.773751   2.779641   2.507134   3.940734   4.268674
    21  H    5.537064   4.694910   4.881034   5.696531   5.685354
    22  H    6.041867   5.405101   6.205723   6.102125   5.871611
    23  H    5.048120   4.654494   5.933575   4.959965   4.697844
    24  H    3.001758   2.700442   4.196463   2.757095   2.808528
                    6          7          8          9         10
     6  O    0.000000
     7  C    3.673360   0.000000
     8  C    4.826157   1.389053   0.000000
     9  C    6.038071   2.417868   1.391215   0.000000
    10  C    6.321896   2.802072   2.407302   1.383893   0.000000
    11  C    5.490460   2.420090   2.767967   2.394470   1.389976
    12  C    4.129653   1.395258   2.389491   2.762370   2.403051
    13  H    2.996165   2.762441   3.962194   4.901181   4.935516
    14  H    2.478485   3.452596   4.434160   5.659682   6.066660
    15  H    3.786856   2.697152   3.370097   4.421417   4.873178
    16  H    3.914691   2.837416   2.816529   4.139148   5.153067
    17  H    3.432286   2.797705   2.856101   4.156148   5.113921
    18  H    2.638460   3.484265   3.974105   5.364771   6.185853
    19  H    0.967842   4.349299   5.503144   6.650793   6.852605
    20  H    5.001894   2.149814   1.081224   2.132814   3.376367
    21  H    6.938307   3.392381   2.142744   1.082420   2.142722
    22  H    7.374982   3.884217   3.389816   2.144744   1.082147
    23  H    6.072815   3.396218   3.850252   3.377977   2.148012
    24  H    3.695985   2.147840   3.374249   3.845960   3.380571
                   11         12         13         14         15
    11  C    0.000000
    12  C    1.383396   0.000000
    13  H    4.031363   2.823099   0.000000
    14  H    5.391498   4.092878   1.769166   0.000000
    15  H    4.433392   3.388844   1.764869   1.775075   0.000000
    16  H    5.165567   4.182913   3.738961   2.969258   2.523600
    17  H    5.080477   4.088730   4.326766   3.723376   3.748622
    18  H    5.884844   4.657261   3.718385   2.481370   3.149718
    19  H    5.963030   4.658048   3.792633   3.410472   4.732539
    20  H    3.848938   3.378858   4.455042   4.515800   3.527647
    21  H    3.379105   3.844745   5.868938   6.489447   5.179719
    22  H    2.149417   3.384771   5.918605   7.115056   5.858494
    23  H    1.082344   2.138196   4.537661   6.070564   5.200969
    24  H    2.134307   1.083738   2.436833   3.880884   3.553335
                   16         17         18         19         20
    16  H    0.000000
    17  H    1.773649   0.000000
    18  H    1.763935   1.772974   0.000000
    19  H    4.766605   4.027853   3.399144   0.000000
    20  H    2.209206   2.348027   3.574839   5.713516   0.000000
    21  H    4.590236   4.643475   5.967906   7.558847   2.443762
    22  H    6.156727   6.117806   7.249574   7.873065   4.268495
    23  H    6.176901   6.068194   6.789010   6.453733   4.931242
    24  H    4.681993   4.551473   4.814534   4.128876   4.281032
                   21         22         23         24
    21  H    0.000000
    22  H    2.474366   0.000000
    23  H    4.277769   2.478981   0.000000
    24  H    4.928331   4.273657   2.450950   0.000000
 Stoichiometry    C10H12O2
 Framework group  C1[X(C10H12O2)]
 Deg. of freedom    66
 Full point group                 C1      NOp   1
 Largest Abelian subgroup         C1      NOp   1
 Largest concise Abelian subgroup C1      NOp   1
                         Standard orientation:                         
 ---------------------------------------------------------------------
 Center     Atomic      Atomic             Coordinates (Angstroms)
 Number     Number       Type             X           Y           Z
 ---------------------------------------------------------------------
      1          6           0        1.321507    0.583906    1.716899
      2          6           0        0.966515    0.482447    0.224139
      3          6           0        1.408811    1.775344   -0.478034
      4          6           0        1.764810   -0.635028   -0.442652
      5          8           0        1.363794   -1.388985   -1.281814
      6          8           0        3.046975   -0.659240   -0.020920
      7          6           0       -0.522671    0.201729    0.078761
      8          6           0       -1.413457    1.137278   -0.431842
      9          6           0       -2.776432    0.865113   -0.492702
     10          6           0       -3.267260   -0.349082   -0.045514
     11          6           0       -2.385022   -1.295248    0.462875
     12          6           0       -1.030784   -1.019277    0.523406
     13          1           0        1.106764   -0.347461    2.240800
     14          1           0        2.375615    0.821706    1.849632
     15          1           0        0.718423    1.372597    2.167632
     16          1           0        0.933189    2.635681   -0.006546
     17          1           0        1.145112    1.763103   -1.536097
     18          1           0        2.487786    1.893367   -0.385577
     19          1           0        3.494506   -1.350061   -0.530038
     20          1           0       -1.058094    2.092101   -0.793887
     21          1           0       -3.451449    1.608985   -0.895989
     22          1           0       -4.326995   -0.562420   -0.095424
     23          1           0       -2.754247   -2.252468    0.807653
     24          1           0       -0.352852   -1.772417    0.907692
 ---------------------------------------------------------------------
 Rotational constants (GHZ):           1.8226471           0.6600857           0.5953216
 Standard basis: def2QZVPP (5D, 7F)
 There are  1284 symmetry adapted cartesian basis functions of A   symmetry.
 There are  1044 symmetry adapted basis functions of A   symmetry.
  1044 basis functions,  1560 primitive gaussians,  1284 cartesian basis functions
    44 alpha electrons       44 beta electrons
       nuclear repulsion energy       700.5680087193 Hartrees.
 NAtoms=   24 NActive=   24 NUniq=   24 SFac= 1.00D+00 NAtFMM=   60 NAOKFM=F Big=F
 Integral buffers will be    131072 words long.
 Raffenetti 2 integral format.
 Two-electron integral symmetry is turned on.
 Nuclear repulsion after empirical dispersion term =      700.5515748556 Hartrees.
 One-electron integrals computed using PRISM.
   1 Symmetry operations used in ECPInt.
 ECPInt:  NShTT=   52650 NPrTT=  127800 LenC2=   47735 LenP2D=   90299.
 LDataN:  DoStor=T MaxTD1= 8 Len=  415
 NBasis=  1044 RedAO= T EigKep=  5.36D-06  NBF=  1044
 NBsUse=  1044 1.00D-06 EigRej= -1.00D+00 NBFU=  1044
 ExpMin= 7.60D-02 ExpMax= 1.17D+05 ExpMxC= 1.13D+03 IAcc=3 IRadAn=         5 AccDes= 0.00D+00
 Harris functional with IExCor= 4639 and IRadAn=       5 diagonalized for initial guess.
 HarFok:  IExCor= 4639 AccDes= 0.00D+00 IRadAn=         5 IDoV= 1 UseB2=F ITyADJ=14
 ICtDFT=  3500011 ScaDFX=  1.000000  1.000000  1.000000  1.000000
 FoFCou: FMM=F IPFlag=           0 FMFlag=      100000 FMFlg1=           0
         NFxFlg=           0 DoJE=T BraDBF=F KetDBF=T FulRan=T
         wScrn=  0.000000 ICntrl=       500 IOpCl=  0 I1Cent=   200000004 NGrid=           0
         NMat0=    1 NMatS0=      1 NMatT0=    0 NMatD0=    1 NMtDS0=    0 NMtDT0=    0
 Petite list used in FoFCou.
 Requested convergence on RMS density matrix=1.00D-08 within 128 cycles.
 Requested convergence on MAX density matrix=1.00D-06.
 Requested convergence on             energy=1.00D-06.
 No special actions if energy rises.
 Integral accuracy reduced to 1.0D-05 until final iterations.
 Rare condition: small coef for last iteration:  0.000D+00
 Rare condition: small coef for last iteration:  0.000D+00
 Rare condition: small coef for last iteration:  0.000D+00
 Problem detected with inexpensive integrals.
 Switching to full accuracy and repeating last cycle.
 SCF Done:  E(RwB97XD) =  -538.824331811     A.U. after   22 cycles
            NFock= 22  Conv=0.43D-08     -V/T= 2.0048

 **********************************************************************

            Population analysis using the SCF Density.

 **********************************************************************

 Orbital symmetries:
       Occupied  (A) (A) (A) (A) (A) (A) (A) (A) (A) (A) (A) (A)
                 (A) (A) (A) (A) (A) (A) (A) (A) (A) (A) (A) (A)
                 (A) (A) (A) (A) (A) (A) (A) (A) (A) (A) (A) (A)
                 (A) (A) (A) (A) (A) (A) (A) (A)
       Virtual   (A) (A) (A) (A) (A) (A) (A) (A) (A) (A) (A) (A)
                 (A) (A) (A) (A) (A) (A) (A) (A) (A) (A) (A) (A)
                 (A) (A) (A) (A) (A) (A) (A) (A) (A) (A) (A) (A)
                 (A) (A) (A) (A) (A) (A) (A) (A) (A) (A) (A) (A)
                 (A) (A) (A) (A) (A) (A) (A) (A) (A) (A) (A) (A)
                 (A) (A) (A) (A) (A) (A) (A) (A) (A) (A) (A) (A)
                 (A) (A) (A) (A) (A) (A) (A) (A) (A) (A) (A) (A)
                 (A) (A) (A) (A) (A) (A) (A) (A) (A) (A) (A) (A)
                 (A) (A) (A) (A) (A) (A) (A) (A) (A) (A) (A) (A)
                 (A) (A) (A) (A) (A) (A) (A) (A) (A) (A) (A) (A)
                 (A) (A) (A) (A) (A) (A) (A) (A) (A) (A) (A) (A)
                 (A) (A) (A) (A) (A) (A) (A) (A) (A) (A) (A) (A)
                 (A) (A) (A) (A) (A) (A) (A) (A) (A) (A) (A) (A)
                 (A) (A) (A) (A) (A) (A) (A) (A) (A) (A) (A) (A)
                 (A) (A) (A) (A) (A) (A) (A) (A) (A) (A) (A) (A)
                 (A) (A) (A) (A) (A) (A) (A) (A) (A) (A) (A) (A)
                 (A) (A) (A) (A) (A) (A) (A) (A) (A) (A) (A) (A)
                 (A) (A) (A) (A) (A) (A) (A) (A) (A) (A) (A) (A)
                 (A) (A) (A) (A) (A) (A) (A) (A) (A) (A) (A) (A)
                 (A) (A) (A) (A) (A) (A) (A) (A) (A) (A) (A) (A)
                 (A) (A) (A) (A) (A) (A) (A) (A) (A) (A) (A) (A)
                 (A) (A) (A) (A) (A) (A) (A) (A) (A) (A) (A) (A)
                 (A) (A) (A) (A) (A) (A) (A) (A) (A) (A) (A) (A)
                 (A) (A) (A) (A) (A) (A) (A) (A) (A) (A) (A) (A)
                 (A) (A) (A) (A) (A) (A) (A) (A) (A) (A) (A) (A)
                 (A) (A) (A) (A) (A) (A) (A) (A) (A) (A) (A) (A)
                 (A) (A) (A) (A) (A) (A) (A) (A) (A) (A) (A) (A)
                 (A) (A) (A) (A) (A) (A) (A) (A) (A) (A) (A) (A)
                 (A) (A) (A) (A) (A) (A) (A) (A) (A) (A) (A) (A)
                 (A) (A) (A) (A) (A) (A) (A) (A) (A) (A) (A) (A)
                 (A) (A) (A) (A) (A) (A) (A) (A) (A) (A) (A) (A)
                 (A) (A) (A) (A) (A) (A) (A) (A) (A) (A) (A) (A)
                 (A) (A) (A) (A) (A) (A) (A) (A) (A) (A) (A) (A)
                 (A) (A) (A) (A) (A) (A) (A) (A) (A) (A) (A) (A)
                 (A) (A) (A) (A) (A) (A) (A) (A) (A) (A) (A) (A)
                 (A) (A) (A) (A) (A) (A) (A) (A) (A) (A) (A) (A)
                 (A) (A) (A) (A) (A) (A) (A) (A) (A) (A) (A) (A)
                 (A) (A) (A) (A) (A) (A) (A) (A) (A) (A) (A) (A)
                 (A) (A) (A) (A) (A) (A) (A) (A) (A) (A) (A) (A)
                 (A) (A) (A) (A) (A) (A) (A) (A) (A) (A) (A) (A)
                 (A) (A) (A) (A) (A) (A) (A) (A) (A) (A) (A) (A)
                 (A) (A) (A) (A) (A) (A) (A) (A) (A) (A) (A) (A)
                 (A) (A) (A) (A) (A) (A) (A) (A) (A) (A) (A) (A)
                 (A) (A) (A) (A) (A) (A) (A) (A) (A) (A) (A) (A)
                 (A) (A) (A) (A) (A) (A) (A) (A) (A) (A) (A) (A)
                 (A) (A) (A) (A) (A) (A) (A) (A) (A) (A) (A) (A)
                 (A) (A) (A) (A) (A) (A) (A) (A) (A) (A) (A) (A)
                 (A) (A) (A) (A) (A) (A) (A) (A) (A) (A) (A) (A)
                 (A) (A) (A) (A) (A) (A) (A) (A) (A) (A) (A) (A)
                 (A) (A) (A) (A) (A) (A) (A) (A) (A) (A) (A) (A)
                 (A) (A) (A) (A) (A) (A) (A) (A) (A) (A) (A) (A)
                 (A) (A) (A) (A) (A) (A) (A) (A) (A) (A) (A) (A)
                 (A) (A) (A) (A) (A) (A) (A) (A) (A) (A) (A) (A)
                 (A) (A) (A) (A) (A) (A) (A) (A) (A) (A) (A) (A)
                 (A) (A) (A) (A) (A) (A) (A) (A) (A) (A) (A) (A)
                 (A) (A) (A) (A) (A) (A) (A) (A) (A) (A) (A) (A)
                 (A) (A) (A) (A) (A) (A) (A) (A) (A) (A) (A) (A)
                 (A) (A) (A) (A) (A) (A) (A) (A) (A) (A) (A) (A)
                 (A) (A) (A) (A) (A) (A) (A) (A) (A) (A) (A) (A)
                 (A) (A) (A) (A) (A) (A) (A) (A) (A) (A) (A) (A)
                 (A) (A) (A) (A) (A) (A) (A) (A) (A) (A) (A) (A)
                 (A) (A) (A) (A) (A) (A) (A) (A) (A) (A) (A) (A)
                 (A) (A) (A) (A) (A) (A) (A) (A) (A) (A) (A) (A)
                 (A) (A) (A) (A) (A) (A) (A) (A) (A) (A) (A) (A)
                 (A) (A) (A) (A) (A) (A) (A) (A) (A) (A) (A) (A)
                 (A) (A) (A) (A) (A) (A) (A) (A) (A) (A) (A) (A)
                 (A) (A) (A) (A) (A) (A) (A) (A) (A) (A) (A) (A)
                 (A) (A) (A) (A) (A) (A) (A) (A) (A) (A) (A) (A)
                 (A) (A) (A) (A) (A) (A) (A) (A) (A) (A) (A) (A)
                 (A) (A) (A) (A) (A) (A) (A) (A) (A) (A) (A) (A)
                 (A) (A) (A) (A) (A) (A) (A) (A) (A) (A) (A) (A)
                 (A) (A) (A) (A) (A) (A) (A) (A) (A) (A) (A) (A)
                 (A) (A) (A) (A) (A) (A) (A) (A) (A) (A) (A) (A)
                 (A) (A) (A) (A) (A) (A) (A) (A) (A) (A) (A) (A)
                 (A) (A) (A) (A) (A) (A) (A) (A) (A) (A) (A) (A)
                 (A) (A) (A) (A) (A) (A) (A) (A) (A) (A) (A) (A)
                 (A) (A) (A) (A) (A) (A) (A) (A) (A) (A) (A) (A)
                 (A) (A) (A) (A) (A) (A) (A) (A) (A) (A) (A) (A)
                 (A) (A) (A) (A) (A) (A) (A) (A) (A) (A) (A) (A)
                 (A) (A) (A) (A) (A) (A) (A) (A) (A) (A) (A) (A)
                 (A) (A) (A) (A) (A) (A) (A) (A) (A) (A) (A) (A)
                 (A) (A) (A) (A) (A) (A) (A) (A) (A) (A) (A) (A)
                 (A) (A) (A) (A) (A) (A) (A) (A) (A) (A) (A) (A)
                 (A) (A) (A) (A)
 The electronic state is 1-A.
 Alpha  occ. eigenvalues --  -19.30319 -19.24167 -10.42179 -10.32606 -10.30007
 Alpha  occ. eigenvalues --  -10.28866 -10.28849 -10.28807 -10.28786 -10.28713
 Alpha  occ. eigenvalues --  -10.28671 -10.28390  -1.22008  -1.12584  -0.97053
 Alpha  occ. eigenvalues --   -0.92661  -0.84760  -0.83849  -0.79875  -0.76041
 Alpha  occ. eigenvalues --   -0.71641  -0.69835  -0.65897  -0.61240  -0.58605
 Alpha  occ. eigenvalues --   -0.58091  -0.56070  -0.54089  -0.53974  -0.52854
 Alpha  occ. eigenvalues --   -0.51449  -0.50536  -0.49134  -0.47612  -0.46835
 Alpha  occ. eigenvalues --   -0.46466  -0.44902  -0.44186  -0.41931  -0.41574
 Alpha  occ. eigenvalues --   -0.41147  -0.36342  -0.33095  -0.32420
 Alpha virt. eigenvalues --    0.05443   0.05859   0.07358   0.08139   0.09819
 Alpha virt. eigenvalues --    0.10688   0.11398   0.12573   0.13193   0.14058
 Alpha virt. eigenvalues --    0.15000   0.15499   0.15754   0.17223   0.17926
 Alpha virt. eigenvalues --    0.19342   0.19761   0.20554   0.20625   0.20984
 Alpha virt. eigenvalues --    0.22344   0.22649   0.23243   0.24269   0.24930
 Alpha virt. eigenvalues --    0.25057   0.26091   0.27199   0.27387   0.27995
 Alpha virt. eigenvalues --    0.28790   0.29932   0.30657   0.31034   0.32167
 Alpha virt. eigenvalues --    0.32984   0.33097   0.34028   0.34380   0.34638
 Alpha virt. eigenvalues --    0.34991   0.35417   0.35919   0.36143   0.36673
 Alpha virt. eigenvalues --    0.37680   0.37971   0.38164   0.38675   0.38731
 Alpha virt. eigenvalues --    0.39909   0.40359   0.40663   0.40718   0.41420
 Alpha virt. eigenvalues --    0.42704   0.42920   0.43464   0.44315   0.44847
 Alpha virt. eigenvalues --    0.46408   0.47111   0.47551   0.48081   0.48200
 Alpha virt. eigenvalues --    0.49376   0.50325   0.50640   0.51520   0.52000
 Alpha virt. eigenvalues --    0.53480   0.54020   0.54543   0.54956   0.56156
 Alpha virt. eigenvalues --    0.57515   0.58438   0.59683   0.60498   0.60787
 Alpha virt. eigenvalues --    0.61278   0.61460   0.62587   0.63497   0.63905
 Alpha virt. eigenvalues --    0.64764   0.65342   0.66302   0.68281   0.68792
 Alpha virt. eigenvalues --    0.69404   0.70539   0.71266   0.71804   0.72524
 Alpha virt. eigenvalues --    0.72791   0.73953   0.74866   0.76418   0.76673
 Alpha virt. eigenvalues --    0.77775   0.78826   0.79490   0.80625   0.81080
 Alpha virt. eigenvalues --    0.81434   0.82467   0.82559   0.83538   0.84072
 Alpha virt. eigenvalues --    0.84713   0.85673   0.85885   0.85958   0.86848
 Alpha virt. eigenvalues --    0.88092   0.88939   0.89435   0.89763   0.90400
 Alpha virt. eigenvalues --    0.90940   0.91692   0.92608   0.93326   0.93419
 Alpha virt. eigenvalues --    0.94528   0.94971   0.95171   0.96131   0.97469
 Alpha virt. eigenvalues --    0.97701   0.98833   0.99212   0.99280   0.99948
 Alpha virt. eigenvalues --    1.00801   1.01178   1.01606   1.02338   1.02795
 Alpha virt. eigenvalues --    1.03795   1.04683   1.05011   1.05659   1.06822
 Alpha virt. eigenvalues --    1.07749   1.07906   1.09175   1.09444   1.10619
 Alpha virt. eigenvalues --    1.10967   1.11625   1.12027   1.13087   1.13833
 Alpha virt. eigenvalues --    1.14053   1.14731   1.15640   1.17507   1.18575
 Alpha virt. eigenvalues --    1.19694   1.20421   1.21401   1.22090   1.22866
 Alpha virt. eigenvalues --    1.24433   1.25954   1.26381   1.26886   1.27610
 Alpha virt. eigenvalues --    1.28153   1.28893   1.29504   1.30985   1.32125
 Alpha virt. eigenvalues --    1.32217   1.33193   1.33729   1.35827   1.36452
 Alpha virt. eigenvalues --    1.36815   1.39749   1.40209   1.41266   1.41998
 Alpha virt. eigenvalues --    1.42690   1.44352   1.44996   1.45581   1.47310
 Alpha virt. eigenvalues --    1.48501   1.48994   1.50243   1.51262   1.52386
 Alpha virt. eigenvalues --    1.53294   1.54430   1.54814   1.55230   1.56117
 Alpha virt. eigenvalues --    1.56804   1.57281   1.59199   1.60018   1.62205
 Alpha virt. eigenvalues --    1.62548   1.63751   1.63992   1.65659   1.67008
 Alpha virt. eigenvalues --    1.67269   1.69804   1.70401   1.71064   1.72244
 Alpha virt. eigenvalues --    1.72711   1.73748   1.74074   1.74950   1.76988
 Alpha virt. eigenvalues --    1.78637   1.79413   1.80243   1.81290   1.82207
 Alpha virt. eigenvalues --    1.82893   1.84093   1.84505   1.86964   1.87751
 Alpha virt. eigenvalues --    1.88004   1.89062   1.90619   1.91412   1.92414
 Alpha virt. eigenvalues --    1.92706   1.94394   1.94756   1.96022   1.96481
 Alpha virt. eigenvalues --    1.96935   1.97785   1.98693   1.99591   2.00077
 Alpha virt. eigenvalues --    2.00817   2.01938   2.02310   2.03827   2.04311
 Alpha virt. eigenvalues --    2.06036   2.06523   2.07659   2.08504   2.09219
 Alpha virt. eigenvalues --    2.10062   2.10445   2.10854   2.11351   2.12676
 Alpha virt. eigenvalues --    2.12995   2.13777   2.14461   2.16787   2.17535
 Alpha virt. eigenvalues --    2.17986   2.18419   2.19965   2.20297   2.20804
 Alpha virt. eigenvalues --    2.21176   2.22129   2.23683   2.24054   2.24403
 Alpha virt. eigenvalues --    2.24687   2.25029   2.25903   2.26318   2.27621
 Alpha virt. eigenvalues --    2.29189   2.29595   2.29910   2.30530   2.31843
 Alpha virt. eigenvalues --    2.33295   2.34176   2.34590   2.35113   2.35917
 Alpha virt. eigenvalues --    2.36729   2.37188   2.37773   2.38380   2.40004
 Alpha virt. eigenvalues --    2.40546   2.41659   2.42289   2.42434   2.42918
 Alpha virt. eigenvalues --    2.43981   2.45262   2.46117   2.47116   2.47571
 Alpha virt. eigenvalues --    2.48588   2.49098   2.49874   2.50855   2.51315
 Alpha virt. eigenvalues --    2.53280   2.53820   2.54217   2.54926   2.55866
 Alpha virt. eigenvalues --    2.56155   2.57508   2.57564   2.58244   2.59584
 Alpha virt. eigenvalues --    2.60118   2.60727   2.61678   2.63286   2.64424
 Alpha virt. eigenvalues --    2.65189   2.65614   2.66525   2.66756   2.67850
 Alpha virt. eigenvalues --    2.68702   2.70036   2.70525   2.70889   2.71726
 Alpha virt. eigenvalues --    2.72722   2.73103   2.74394   2.75080   2.75187
 Alpha virt. eigenvalues --    2.76702   2.77744   2.78325   2.78836   2.79538
 Alpha virt. eigenvalues --    2.80496   2.81549   2.81806   2.82861   2.83594
 Alpha virt. eigenvalues --    2.84657   2.85859   2.86684   2.86838   2.86944
 Alpha virt. eigenvalues --    2.88538   2.89484   2.89754   2.91224   2.92387
 Alpha virt. eigenvalues --    2.92695   2.94203   2.94816   2.95452   2.96226
 Alpha virt. eigenvalues --    2.96917   2.98086   3.00282   3.01726   3.02160
 Alpha virt. eigenvalues --    3.02253   3.02995   3.03628   3.05122   3.05771
 Alpha virt. eigenvalues --    3.06590   3.09215   3.09845   3.10527   3.11482
 Alpha virt. eigenvalues --    3.13213   3.13545   3.15674   3.16523   3.16845
 Alpha virt. eigenvalues --    3.17578   3.18036   3.18650   3.19755   3.22017
 Alpha virt. eigenvalues --    3.22341   3.22689   3.23570   3.25440   3.26018
 Alpha virt. eigenvalues --    3.29333   3.30302   3.31656   3.32628   3.33964
 Alpha virt. eigenvalues --    3.35220   3.35505   3.35999   3.39521   3.40368
 Alpha virt. eigenvalues --    3.41040   3.41814   3.43203   3.44284   3.44676
 Alpha virt. eigenvalues --    3.47382   3.48018   3.48432   3.49461   3.50180
 Alpha virt. eigenvalues --    3.50979   3.52338   3.54218   3.54709   3.55176
 Alpha virt. eigenvalues --    3.56188   3.57221   3.58311   3.59679   3.60564
 Alpha virt. eigenvalues --    3.61114   3.62617   3.63113   3.63770   3.66461
 Alpha virt. eigenvalues --    3.66728   3.68027   3.69795   3.70931   3.71067
 Alpha virt. eigenvalues --    3.73510   3.73838   3.75288   3.77030   3.79547
 Alpha virt. eigenvalues --    3.79653   3.80998   3.82264   3.84354   3.85939
 Alpha virt. eigenvalues --    3.86472   3.88663   3.89866   3.90868   3.92987
 Alpha virt. eigenvalues --    3.93360   3.95306   3.96084   3.96548   3.98562
 Alpha virt. eigenvalues --    4.00003   4.00459   4.01279   4.02046   4.02341
 Alpha virt. eigenvalues --    4.05483   4.06017   4.08922   4.09438   4.11924
 Alpha virt. eigenvalues --    4.12956   4.14768   4.15116   4.19034   4.19598
 Alpha virt. eigenvalues --    4.20897   4.22109   4.22484   4.26903   4.27912
 Alpha virt. eigenvalues --    4.29576   4.31063   4.35328   4.35757   4.37747
 Alpha virt. eigenvalues --    4.41523   4.43370   4.44016   4.45415   4.49380
 Alpha virt. eigenvalues --    4.50586   4.52338   4.54792   4.55333   4.56900
 Alpha virt. eigenvalues --    4.59875   4.63799   4.64831   4.67024   4.68505
 Alpha virt. eigenvalues --    4.69974   4.72686   4.76126   4.77909   4.80244
 Alpha virt. eigenvalues --    4.84077   4.84339   4.86401   4.90528   4.92576
 Alpha virt. eigenvalues --    4.93336   4.94801   4.97736   4.99819   5.00840
 Alpha virt. eigenvalues --    5.02564   5.04100   5.04816   5.06400   5.07328
 Alpha virt. eigenvalues --    5.10527   5.13479   5.17739   5.18023   5.18812
 Alpha virt. eigenvalues --    5.19999   5.22117   5.23552   5.24650   5.26015
 Alpha virt. eigenvalues --    5.26655   5.28117   5.30082   5.30875   5.32732
 Alpha virt. eigenvalues --    5.35193   5.37075   5.37457   5.38797   5.41373
 Alpha virt. eigenvalues --    5.42583   5.45088   5.47502   5.48886   5.50082
 Alpha virt. eigenvalues --    5.50965   5.51351   5.53066   5.54400   5.56230
 Alpha virt. eigenvalues --    5.57404   5.58178   5.59933   5.60332   5.62373
 Alpha virt. eigenvalues --    5.63231   5.64848   5.65837   5.66178   5.68761
 Alpha virt. eigenvalues --    5.69607   5.70438   5.71590   5.73130   5.73792
 Alpha virt. eigenvalues --    5.74578   5.77681   5.78300   5.79930   5.81742
 Alpha virt. eigenvalues --    5.82601   5.83581   5.85373   5.85963   5.86627
 Alpha virt. eigenvalues --    5.87987   5.89439   5.90187   5.90845   5.92654
 Alpha virt. eigenvalues --    5.93234   5.94450   5.95689   5.97047   5.97652
 Alpha virt. eigenvalues --    5.98434   5.99655   6.00338   6.01021   6.01535
 Alpha virt. eigenvalues --    6.02644   6.02927   6.05744   6.06243   6.06493
 Alpha virt. eigenvalues --    6.06685   6.07497   6.08843   6.09556   6.10365
 Alpha virt. eigenvalues --    6.11275   6.11674   6.12409   6.13828   6.14859
 Alpha virt. eigenvalues --    6.15208   6.17128   6.18007   6.19388   6.20437
 Alpha virt. eigenvalues --    6.21459   6.22177   6.22970   6.23465   6.24532
 Alpha virt. eigenvalues --    6.24848   6.25950   6.26206   6.27187   6.27807
 Alpha virt. eigenvalues --    6.28408   6.29091   6.29677   6.30586   6.32594
 Alpha virt. eigenvalues --    6.33035   6.33940   6.34383   6.35047   6.36402
 Alpha virt. eigenvalues --    6.37228   6.38618   6.39522   6.39936   6.40795
 Alpha virt. eigenvalues --    6.41747   6.41892   6.43171   6.44099   6.44500
 Alpha virt. eigenvalues --    6.45141   6.46089   6.46539   6.46751   6.48813
 Alpha virt. eigenvalues --    6.49915   6.50400   6.51167   6.52854   6.54839
 Alpha virt. eigenvalues --    6.55247   6.56023   6.57005   6.57468   6.58516
 Alpha virt. eigenvalues --    6.59158   6.60173   6.61622   6.62344   6.64410
 Alpha virt. eigenvalues --    6.65168   6.66435   6.67308   6.69004   6.69952
 Alpha virt. eigenvalues --    6.70315   6.70718   6.72839   6.74599   6.75084
 Alpha virt. eigenvalues --    6.76524   6.76953   6.77379   6.78687   6.79639
 Alpha virt. eigenvalues --    6.80395   6.80818   6.82246   6.82987   6.84090
 Alpha virt. eigenvalues --    6.85208   6.86187   6.86693   6.87704   6.90263
 Alpha virt. eigenvalues --    6.90871   6.92764   6.93108   6.93268   6.96754
 Alpha virt. eigenvalues --    6.97106   6.98121   7.00987   7.01407   7.02435
 Alpha virt. eigenvalues --    7.03425   7.04940   7.06201   7.07236   7.09158
 Alpha virt. eigenvalues --    7.09547   7.11491   7.12393   7.13748   7.15638
 Alpha virt. eigenvalues --    7.16743   7.18333   7.19277   7.19958   7.20890
 Alpha virt. eigenvalues --    7.22652   7.24588   7.26266   7.27405   7.28021
 Alpha virt. eigenvalues --    7.28884   7.30445   7.31441   7.32426   7.32846
 Alpha virt. eigenvalues --    7.34887   7.36461   7.38462   7.38639   7.42067
 Alpha virt. eigenvalues --    7.42892   7.44196   7.46907   7.47639   7.49502
 Alpha virt. eigenvalues --    7.50764   7.51927   7.52906   7.54913   7.57116
 Alpha virt. eigenvalues --    7.57471   7.58410   7.58713   7.59303   7.59652
 Alpha virt. eigenvalues --    7.60885   7.61751   7.63603   7.64116   7.65690
 Alpha virt. eigenvalues --    7.66219   7.67427   7.68804   7.71782   7.72521
 Alpha virt. eigenvalues --    7.73444   7.74200   7.75893   7.76625   7.77597
 Alpha virt. eigenvalues --    7.80087   7.80340   7.81654   7.82703   7.83390
 Alpha virt. eigenvalues --    7.84699   7.86760   7.87583   7.88102   7.90046
 Alpha virt. eigenvalues --    7.92079   7.92656   7.93493   7.94942   7.95402
 Alpha virt. eigenvalues --    7.96866   7.97845   7.98920   7.99385   8.00784
 Alpha virt. eigenvalues --    8.01990   8.02154   8.03479   8.05585   8.06154
 Alpha virt. eigenvalues --    8.08108   8.09000   8.09529   8.10480   8.11077
 Alpha virt. eigenvalues --    8.14800   8.15431   8.18710   8.19477   8.20594
 Alpha virt. eigenvalues --    8.21572   8.22556   8.22910   8.23907   8.25750
 Alpha virt. eigenvalues --    8.26233   8.27494   8.28209   8.29430   8.29987
 Alpha virt. eigenvalues --    8.31780   8.33763   8.36775   8.37002   8.38232
 Alpha virt. eigenvalues --    8.39383   8.41696   8.42439   8.43191   8.45167
 Alpha virt. eigenvalues --    8.46408   8.47125   8.47811   8.49569   8.50127
 Alpha virt. eigenvalues --    8.50860   8.51563   8.53733   8.53919   8.55070
 Alpha virt. eigenvalues --    8.56537   8.57122   8.58804   8.59331   8.59910
 Alpha virt. eigenvalues --    8.60782   8.61666   8.62081   8.63089   8.64113
 Alpha virt. eigenvalues --    8.65249   8.66327   8.66976   8.67301   8.68847
 Alpha virt. eigenvalues --    8.70177   8.71173   8.72480   8.73805   8.75530
 Alpha virt. eigenvalues --    8.76521   8.76842   8.78640   8.78892   8.80905
 Alpha virt. eigenvalues --    8.81200   8.81846   8.84232   8.85776   8.86685
 Alpha virt. eigenvalues --    8.88101   8.89102   8.92041   8.93926   8.95324
 Alpha virt. eigenvalues --    8.97309   8.98285   8.99680   9.02083   9.03308
 Alpha virt. eigenvalues --    9.04867   9.05236   9.06494   9.08751   9.09588
 Alpha virt. eigenvalues --    9.10677   9.13324   9.15492   9.17365   9.17677
 Alpha virt. eigenvalues --    9.19105   9.19650   9.20946   9.22443   9.23500
 Alpha virt. eigenvalues --    9.25440   9.26660   9.30338   9.35920   9.38856
 Alpha virt. eigenvalues --    9.40981   9.46872   9.47967   9.55208   9.59543
 Alpha virt. eigenvalues --    9.62986   9.66076   9.66558   9.72900   9.79988
 Alpha virt. eigenvalues --    9.82906   9.87124   9.88821   9.89734   9.92871
 Alpha virt. eigenvalues --    9.93217   9.94469   9.95217   9.95944   9.96718
 Alpha virt. eigenvalues --    9.98413  10.00613  10.01405  10.01546  10.02722
 Alpha virt. eigenvalues --   10.03766  10.06359  10.08344  10.09220  10.12898
 Alpha virt. eigenvalues --   10.18292  10.19502  10.21523  10.22181  10.23077
 Alpha virt. eigenvalues --   10.23632  10.25599  10.30554  10.32847  10.38312
 Alpha virt. eigenvalues --   10.39800  10.42728  10.43768  10.45944  10.49639
 Alpha virt. eigenvalues --   10.51913  10.52361  10.54116  10.55800  10.57241
 Alpha virt. eigenvalues --   10.58521  10.71619  10.75453  10.81925  10.87726
 Alpha virt. eigenvalues --   10.90079  10.90672  10.96016  10.96909  11.01384
 Alpha virt. eigenvalues --   11.12056  11.13022  11.20198  11.41299  11.46711
 Alpha virt. eigenvalues --   11.54966  11.62269  11.84079  11.85261  11.86239
 Alpha virt. eigenvalues --   11.98320  12.01850  12.02936  12.04410  12.19231
 Alpha virt. eigenvalues --   12.25435  12.26934  12.33806  12.38625  12.39355
 Alpha virt. eigenvalues --   12.44522  12.46990  12.54314  12.57680  12.66508
 Alpha virt. eigenvalues --   12.76895  12.84902  12.89930  13.08975  13.34252
 Alpha virt. eigenvalues --   13.39215  13.44178  13.48705  13.53767  13.67404
 Alpha virt. eigenvalues --   13.88903  14.16468  14.33852  14.57941  14.77569
 Alpha virt. eigenvalues --   16.71133  28.14920  28.58138  28.64070  28.69876
 Alpha virt. eigenvalues --   28.96068  29.11323  29.18331  29.27454  29.32478
 Alpha virt. eigenvalues --   29.50641  48.32335  48.58978 147.30907 147.67741
 Alpha virt. eigenvalues --  147.78210 147.82836 148.10439 148.24885 148.27857
 Alpha virt. eigenvalues --  148.45208 148.46963 148.62771 253.44549 253.73821
          Condensed to atoms (all electrons):
               1          2          3          4          5          6
     1  C    4.817099   0.376969  -0.065197  -0.074593   0.007830   0.000676
     2  C    0.376969   5.355785   0.468269   0.224987  -0.085479  -0.097625
     3  C   -0.065197   0.468269   4.806645  -0.060288  -0.005082  -0.015681
     4  C   -0.074593   0.224987  -0.060288   4.461512   0.788680   0.468457
     5  O    0.007830  -0.085479  -0.005082   0.788680   7.701356  -0.109357
     6  O    0.000676  -0.097625  -0.015681   0.468457  -0.109357   7.776904
     7  C   -0.074773   0.155650  -0.094871  -0.102100   0.003846   0.004718
     8  C   -0.004047  -0.080376  -0.009248   0.001068  -0.000637  -0.000046
     9  C   -0.000620   0.009532  -0.001323  -0.001790  -0.000229   0.000007
    10  C    0.000560  -0.001728  -0.000172   0.000351  -0.000026   0.000008
    11  C    0.001337   0.000800  -0.001107   0.000724   0.001348   0.000031
    12  C   -0.001227  -0.155275   0.005655   0.001784   0.002251   0.000844
    13  H    0.380644  -0.043991   0.010360  -0.003420   0.000159   0.000357
    14  H    0.383194  -0.032996  -0.003822  -0.002898   0.000182  -0.000829
    15  H    0.364339  -0.008646  -0.003055   0.004314  -0.000556   0.001017
    16  H   -0.008531  -0.038677   0.375711   0.007619  -0.000793  -0.000197
    17  H    0.010574  -0.045590   0.368467   0.000338   0.002668  -0.000128
    18  H   -0.001249  -0.022429   0.366117  -0.003178  -0.000037   0.005087
    19  H   -0.001736   0.012785   0.001336  -0.036150   0.011226   0.309813
    20  H    0.000649  -0.008219   0.002207   0.001329   0.000194  -0.000069
    21  H    0.000033  -0.000099   0.000165  -0.000021  -0.000018  -0.000000
    22  H    0.000011  -0.000110   0.000008   0.000019   0.000007   0.000000
    23  H    0.000085  -0.000468   0.000026   0.000128   0.000243  -0.000003
    24  H   -0.003403   0.020408   0.000588  -0.000335  -0.006349  -0.000287
               7          8          9         10         11         12
     1  C   -0.074773  -0.004047  -0.000620   0.000560   0.001337  -0.001227
     2  C    0.155650  -0.080376   0.009532  -0.001728   0.000800  -0.155275
     3  C   -0.094871  -0.009248  -0.001323  -0.000172  -0.001107   0.005655
     4  C   -0.102100   0.001068  -0.001790   0.000351   0.000724   0.001784
     5  O    0.003846  -0.000637  -0.000229  -0.000026   0.001348   0.002251
     6  O    0.004718  -0.000046   0.000007   0.000008   0.000031   0.000844
     7  C    5.503435   0.345814  -0.111930  -0.053745  -0.084250   0.454638
     8  C    0.345814   5.106507   0.574565  -0.093642  -0.040837  -0.114868
     9  C   -0.111930   0.574565   4.914971   0.576015  -0.081152  -0.035960
    10  C   -0.053745  -0.093642   0.576015   4.890546   0.564292  -0.093965
    11  C   -0.084250  -0.040837  -0.081152   0.564292   4.941295   0.541236
    12  C    0.454638  -0.114868  -0.035960  -0.093965   0.541236   5.082796
    13  H    0.000546   0.000729  -0.000148   0.000120  -0.000188  -0.000122
    14  H    0.010245  -0.000314   0.000067  -0.000046   0.000046  -0.000028
    15  H   -0.006638   0.001328  -0.000181   0.000143  -0.000561  -0.000375
    16  H   -0.001776  -0.004602  -0.000123  -0.000056  -0.000137  -0.000086
    17  H    0.005825  -0.000612   0.000103  -0.000114   0.000048   0.000410
    18  H    0.008434   0.000378  -0.000019  -0.000006   0.000065  -0.000710
    19  H   -0.000903   0.000141  -0.000004   0.000003  -0.000042  -0.000630
    20  H   -0.025441   0.349723  -0.037259   0.012060  -0.003319   0.014285
    21  H    0.015510  -0.011890   0.343697  -0.038475   0.009231  -0.003368
    22  H   -0.005111   0.013258  -0.029282   0.348623  -0.028666   0.014421
    23  H    0.013342  -0.004008   0.009250  -0.040264   0.347933  -0.009587
    24  H   -0.040758   0.013830  -0.003574   0.011987  -0.049839   0.351501
              13         14         15         16         17         18
     1  C    0.380644   0.383194   0.364339  -0.008531   0.010574  -0.001249
     2  C   -0.043991  -0.032996  -0.008646  -0.038677  -0.045590  -0.022429
     3  C    0.010360  -0.003822  -0.003055   0.375711   0.368467   0.366117
     4  C   -0.003420  -0.002898   0.004314   0.007619   0.000338  -0.003178
     5  O    0.000159   0.000182  -0.000556  -0.000793   0.002668  -0.000037
     6  O    0.000357  -0.000829   0.001017  -0.000197  -0.000128   0.005087
     7  C    0.000546   0.010245  -0.006638  -0.001776   0.005825   0.008434
     8  C    0.000729  -0.000314   0.001328  -0.004602  -0.000612   0.000378
     9  C   -0.000148   0.000067  -0.000181  -0.000123   0.000103  -0.000019
    10  C    0.000120  -0.000046   0.000143  -0.000056  -0.000114  -0.000006
    11  C   -0.000188   0.000046  -0.000561  -0.000137   0.000048   0.000065
    12  C   -0.000122  -0.000028  -0.000375  -0.000086   0.000410  -0.000710
    13  H    0.635153  -0.022517  -0.019288   0.000213  -0.000589   0.000176
    14  H   -0.022517   0.640879  -0.026644  -0.000352   0.000214   0.000263
    15  H   -0.019288  -0.026644   0.620112   0.001555  -0.000102  -0.000195
    16  H    0.000213  -0.000352   0.001555   0.670288  -0.022104  -0.020980
    17  H   -0.000589   0.000214  -0.000102  -0.022104   0.630505  -0.017135
    18  H    0.000176   0.000263  -0.000195  -0.020980  -0.017135   0.623967
    19  H   -0.000202  -0.000195   0.000070   0.000195  -0.000170  -0.000542
    20  H    0.000042  -0.000104  -0.000011   0.001470   0.000747  -0.000120
    21  H   -0.000001  -0.000001  -0.000003   0.000050   0.000026   0.000003
    22  H    0.000001   0.000000  -0.000001   0.000001  -0.000001   0.000000
    23  H    0.000019   0.000000  -0.000011  -0.000002   0.000000  -0.000000
    24  H    0.002112  -0.000243   0.000330   0.000149   0.000093  -0.000089
              19         20         21         22         23         24
     1  C   -0.001736   0.000649   0.000033   0.000011   0.000085  -0.003403
     2  C    0.012785  -0.008219  -0.000099  -0.000110  -0.000468   0.020408
     3  C    0.001336   0.002207   0.000165   0.000008   0.000026   0.000588
     4  C   -0.036150   0.001329  -0.000021   0.000019   0.000128  -0.000335
     5  O    0.011226   0.000194  -0.000018   0.000007   0.000243  -0.006349
     6  O    0.309813  -0.000069  -0.000000   0.000000  -0.000003  -0.000287
     7  C   -0.000903  -0.025441   0.015510  -0.005111   0.013342  -0.040758
     8  C    0.000141   0.349723  -0.011890   0.013258  -0.004008   0.013830
     9  C   -0.000004  -0.037259   0.343697  -0.029282   0.009250  -0.003574
    10  C    0.000003   0.012060  -0.038475   0.348623  -0.040264   0.011987
    11  C   -0.000042  -0.003319   0.009231  -0.028666   0.347933  -0.049839
    12  C   -0.000630   0.014285  -0.003368   0.014421  -0.009587   0.351501
    13  H   -0.000202   0.000042  -0.000001   0.000001   0.000019   0.002112
    14  H   -0.000195  -0.000104  -0.000001   0.000000   0.000000  -0.000243
    15  H    0.000070  -0.000011  -0.000003  -0.000001  -0.000011   0.000330
    16  H    0.000195   0.001470   0.000050   0.000001  -0.000002   0.000149
    17  H   -0.000170   0.000747   0.000026  -0.000001   0.000000   0.000093
    18  H   -0.000542  -0.000120   0.000003   0.000000  -0.000000  -0.000089
    19  H    0.456809   0.000013   0.000000  -0.000000  -0.000002   0.000214
    20  H    0.000013   0.653289  -0.005894  -0.000321  -0.000061  -0.000287
    21  H    0.000000  -0.005894   0.612712  -0.002057  -0.000400  -0.000037
    22  H   -0.000000  -0.000321  -0.002057   0.609670  -0.002265  -0.000274
    23  H   -0.000002  -0.000061  -0.000400  -0.002265   0.607842  -0.005204
    24  H    0.000214  -0.000287  -0.000037  -0.000274  -0.005204   0.677140
 Mulliken charges:
               1
     1  C   -0.108628
     2  C   -0.003478
     3  C   -0.145708
     4  C    0.323463
     5  O   -0.311425
     6  O   -0.343698
     7  C    0.080294
     8  C   -0.042217
     9  C   -0.124613
    10  C   -0.082468
    11  C   -0.118285
    12  C   -0.053621
    13  H    0.059836
    14  H    0.055900
    15  H    0.073058
    16  H    0.041166
    17  H    0.066526
    18  H    0.062199
    19  H    0.247968
    20  H    0.045095
    21  H    0.080838
    22  H    0.082065
    23  H    0.083407
    24  H    0.032327
 Sum of Mulliken charges =  -0.00000
 Mulliken charges with hydrogens summed into heavy atoms:
               1
     1  C    0.080166
     2  C   -0.003478
     3  C    0.024183
     4  C    0.323463
     5  O   -0.311425
     6  O   -0.095730
     7  C    0.080294
     8  C    0.002878
     9  C   -0.043776
    10  C   -0.000404
    11  C   -0.034878
    12  C   -0.021294
 Electronic spatial extent (au):  <R**2>=           2055.1305
 Charge=              0.0000 electrons
 Dipole moment (field-independent basis, Debye):
    X=              0.9065    Y=              1.0354    Z=              1.0583  Tot=              1.7360
 Quadrupole moment (field-independent basis, Debye-Ang):
   XX=            -62.6150   YY=            -68.0222   ZZ=            -75.2463
   XY=             -1.1231   XZ=             -0.0314   YZ=             -4.7117
 Traceless Quadrupole moment (field-independent basis, Debye-Ang):
   XX=              6.0128   YY=              0.6056   ZZ=             -6.6184
   XY=             -1.1231   XZ=             -0.0314   YZ=             -4.7117
 Octapole moment (field-independent basis, Debye-Ang**2):
  XXX=             26.4296  YYY=             -6.2429  ZZZ=             -1.0144  XYY=              7.5697
  XXY=            -18.9237  XXZ=            -14.7759  XZZ=             11.2247  YZZ=              2.9159
  YYZ=              3.4249  XYZ=              5.2533
 Hexadecapole moment (field-independent basis, Debye-Ang**3):
 XXXX=          -1600.1745 YYYY=           -563.6808 ZZZZ=           -363.5586 XXXY=            -70.2151
 XXXZ=            -31.6958 YYYX=            -20.9062 YYYZ=            -12.0222 ZZZX=             -2.8051
 ZZZY=             -1.5934 XXYY=           -352.1017 XXZZ=           -373.9690 YYZZ=           -158.8175
 XXYZ=             -1.1396 YYXZ=             -1.2224 ZZXY=             -3.1620
 N-N= 7.005515748556D+02 E-N=-2.657152030529D+03  KE= 5.362759718087D+02
 Unable to Open any file for archive entry.
 1\1\GINC-NODE20\SP\RwB97XD\def2QZVPP\C10H12O2\J77KING\08-May-2024\0\\#
  wb97xd/def2qzvpp\\Ac5_rdkit_conf_2_qzvpp\\0,1\C,0,1.321507,0.583906,1
 .716899\C,0,0.966515,0.482447,0.224139\C,0,1.408811,1.775344,-0.478034
 \C,0,1.76481,-0.635028,-0.442652\O,0,1.363794,-1.388985,-1.281814\O,0,
 3.046975,-0.65924,-0.02092\C,0,-0.522671,0.201729,0.078761\C,0,-1.4134
 57,1.137278,-0.431842\C,0,-2.776432,0.865113,-0.492702\C,0,-3.26726,-0
 .349082,-0.045514\C,0,-2.385022,-1.295248,0.462875\C,0,-1.030784,-1.01
 9277,0.523406\H,0,1.106764,-0.347461,2.2408\H,0,2.375615,0.821706,1.84
 9632\H,0,0.718423,1.372597,2.167632\H,0,0.933189,2.635681,-0.006546\H,
 0,1.145112,1.763103,-1.536097\H,0,2.487786,1.893367,-0.385577\H,0,3.49
 4506,-1.350061,-0.530038\H,0,-1.058094,2.092101,-0.793887\H,0,-3.45144
 9,1.608985,-0.895989\H,0,-4.326995,-0.56242,-0.095424\H,0,-2.754247,-2
 .252468,0.807653\H,0,-0.352852,-1.772417,0.907692\\Version=AS64L-G16Re
 vC.01\State=1-A\HF=-538.8243318\RMSD=4.287e-09\Dipole=0.3566307,0.4073
 401,0.4163736\Quadrupole=4.4703826,0.4502703,-4.920653,-0.8349804,-0.0
 233425,-3.5030687\PG=C01 [X(C10H12O2)]\\@
 The archive entry for this job was punched.


 It is also a good rule not to put too much confidence in
 experimental results until they have been confirmed by
 Theory.
                             -- Sir Arthur Eddington
 Job cpu time:       0 days  6 hours 55 minutes 13.2 seconds.
 Elapsed time:       0 days  0 hours 52 minutes 30.2 seconds.
 File lengths (MBytes):  RWF=    590 Int=      0 D2E=      0 Chk=     64 Scr=      1
 Normal termination of Gaussian 16 at Wed May  8 20:24:39 2024.
