 Entering Gaussian System, Link 0=/usr/local/Gaussian/G16C/g16/g16
 Input=popn/arbr35_xtbopt_popn.com
 Output=popn/arbr35_xtbopt_popn.log
 Initial command:
 /usr/local/Gaussian/G16C/g16/l1.exe "/home/rpaton/opt/xtb/Gau-1512560.inp" -scrdir="/home/rpaton/opt/xtb/"
 Entering Link 1 = /usr/local/Gaussian/G16C/g16/l1.exe PID=   1512561.
  
 Copyright (c) 1988-2019, Gaussian, Inc.  All Rights Reserved.
  
 This is part of the Gaussian(R) 16 program.  It is based on
 the Gaussian(R) 09 system (copyright 2009, Gaussian, Inc.),
 the Gaussian(R) 03 system (copyright 2003, Gaussian, Inc.),
 the Gaussian(R) 98 system (copyright 1998, Gaussian, Inc.),
 the Gaussian(R) 94 system (copyright 1995, Gaussian, Inc.),
 the Gaussian 92(TM) system (copyright 1992, Gaussian, Inc.),
 the Gaussian 90(TM) system (copyright 1990, Gaussian, Inc.),
 the Gaussian 88(TM) system (copyright 1988, Gaussian, Inc.),
 the Gaussian 86(TM) system (copyright 1986, Carnegie Mellon
 University), and the Gaussian 82(TM) system (copyright 1983,
 Carnegie Mellon University). Gaussian is a federally registered
 trademark of Gaussian, Inc.
  
 This software contains proprietary and confidential information,
 including trade secrets, belonging to Gaussian, Inc.
  
 This software is provided under written license and may be
 used, copied, transmitted, or stored only in accord with that
 written license.
  
 The following legend is applicable only to US Government
 contracts under FAR:
  
                    RESTRICTED RIGHTS LEGEND
  
 Use, reproduction and disclosure by the US Government is
 subject to restrictions as set forth in subparagraphs (a)
 and (c) of the Commercial Computer Software - Restricted
 Rights clause in FAR 52.227-19.
  
 Gaussian, Inc.
 340 Quinnipiac St., Bldg. 40, Wallingford CT 06492
  
  
 ---------------------------------------------------------------
 Warning -- This program may not be used in any manner that
 competes with the business of Gaussian, Inc. or will provide
 assistance to any competitor of Gaussian, Inc.  The licensee
 of this program is prohibited from giving any competitor of
 Gaussian, Inc. access to this program.  By using this program,
 the user acknowledges that Gaussian, Inc. is engaged in the
 business of creating and licensing software in the field of
 computational chemistry and represents and warrants to the
 licensee that it is not a competitor of Gaussian, Inc. and that
 it will not use this program in any manner prohibited above.
 ---------------------------------------------------------------
  

 Cite this work as:
 Gaussian 16, Revision C.01,
 M. J. Frisch, G. W. Trucks, H. B. Schlegel, G. E. Scuseria, 
 M. A. Robb, J. R. Cheeseman, G. Scalmani, V. Barone, 
 G. A. Petersson, H. Nakatsuji, X. Li, M. Caricato, A. V. Marenich, 
 J. Bloino, B. G. Janesko, R. Gomperts, B. Mennucci, H. P. Hratchian, 
 J. V. Ortiz, A. F. Izmaylov, J. L. Sonnenberg, D. Williams-Young, 
 F. Ding, F. Lipparini, F. Egidi, J. Goings, B. Peng, A. Petrone, 
 T. Henderson, D. Ranasinghe, V. G. Zakrzewski, J. Gao, N. Rega, 
 G. Zheng, W. Liang, M. Hada, M. Ehara, K. Toyota, R. Fukuda, 
 J. Hasegawa, M. Ishida, T. Nakajima, Y. Honda, O. Kitao, H. Nakai, 
 T. Vreven, K. Throssell, J. A. Montgomery, Jr., J. E. Peralta, 
 F. Ogliaro, M. J. Bearpark, J. J. Heyd, E. N. Brothers, K. N. Kudin, 
 V. N. Staroverov, T. A. Keith, R. Kobayashi, J. Normand, 
 K. Raghavachari, A. P. Rendell, J. C. Burant, S. S. Iyengar, 
 J. Tomasi, M. Cossi, J. M. Millam, M. Klene, C. Adamo, R. Cammi, 
 J. W. Ochterski, R. L. Martin, K. Morokuma, O. Farkas, 
 J. B. Foresman, and D. J. Fox, Gaussian, Inc., Wallingford CT, 2019.
 
 ******************************************
 Gaussian 16:  ES64L-G16RevC.01  3-Jul-2019
                26-Sep-2024 
 ******************************************
 %nprocshared=24
 Will use up to   24 processors via shared memory.
 -----------------------------------------------
 # wb97xd midix pop(nbo6read,savenbos,hirshfeld)
 -----------------------------------------------
 1/38=1,163=2,172=1/1;
 2/12=2,17=6,18=5,40=1/2;
 3/5=20,11=2,25=1,30=1,74=-58/1,2,3;
 4//1;
 5/5=2,38=5/2;
 6/7=2,8=2,9=2,10=2,28=1,40=2,73=1,79=1,113=1,114=1,124=2103,126=1/1,12;
 99/5=1,9=1/99;
 -------------------------------------------------------------------
 energy: -39.823789709276 gnorm: 0.000181017279 xtb: 6.7.0 (08769fc)
 -------------------------------------------------------------------
 Symbolic Z-matrix:
 Charge =  0 Multiplicity = 1
 Br                    5.88606  -0.30481  -0.00001 
 C                     4.02111   0.09351   0.00001 
 C                     3.61829   1.42065   0. 
 C                     2.2694    1.73034   0. 
 C                     1.34512   0.69696   0.00001 
 C                     1.77031  -0.64201   0.00001 
 C                     3.11223  -0.95571   0.00001 
 C                     0.58844  -1.56599   0.00002 
 C                    -0.56795  -0.61006   0.00002 
 C                    -1.91821  -0.88745   0.00002 
 C                    -2.80081   0.18231   0. 
 I                    -4.88315  -0.20732   0.00001 
 C                    -2.36107   1.49641   0. 
 C                    -1.00438   1.7722    0.00001 
 C                    -0.10656   0.71629   0.00001 
 H                     4.35944   2.20495  -0.00001 
 H                     1.95033   2.76111   0. 
 H                     3.45367  -1.97967   0.00001 
 H                     0.57984  -2.21281   0.88056 
 H                     0.57984  -2.21283  -0.88049 
 H                    -2.27875  -1.90489   0.00002 
 H                    -3.07569   2.30493   0. 
 H                    -0.65996   2.79492   0. 
 
                          Input orientation:                          
 ---------------------------------------------------------------------
 Center     Atomic      Atomic             Coordinates (Angstroms)
 Number     Number       Type             X           Y           Z
 ---------------------------------------------------------------------
      1         35           0        5.886060   -0.304810   -0.000010
      2          6           0        4.021110    0.093510    0.000010
      3          6           0        3.618290    1.420650    0.000000
      4          6           0        2.269400    1.730340    0.000000
      5          6           0        1.345120    0.696960    0.000010
      6          6           0        1.770310   -0.642010    0.000010
      7          6           0        3.112230   -0.955710    0.000010
      8          6           0        0.588440   -1.565990    0.000020
      9          6           0       -0.567950   -0.610060    0.000020
     10          6           0       -1.918210   -0.887450    0.000020
     11          6           0       -2.800810    0.182310    0.000000
     12         53           0       -4.883150   -0.207320    0.000010
     13          6           0       -2.361070    1.496410    0.000000
     14          6           0       -1.004380    1.772200    0.000010
     15          6           0       -0.106560    0.716290    0.000010
     16          1           0        4.359440    2.204950   -0.000010
     17          1           0        1.950330    2.761110    0.000000
     18          1           0        3.453670   -1.979670    0.000010
     19          1           0        0.579840   -2.212810    0.880560
     20          1           0        0.579840   -2.212830   -0.880490
     21          1           0       -2.278750   -1.904890    0.000020
     22          1           0       -3.075690    2.304930    0.000000
     23          1           0       -0.659960    2.794920    0.000000
 ---------------------------------------------------------------------
                    Distance matrix (angstroms):
                    1          2          3          4          5
     1  Br   0.000000
     2  C    1.907013   0.000000
     3  C    2.849560   1.386926   0.000000
     4  C    4.149948   2.397436   1.383984   0.000000
     5  C    4.650127   2.743187   2.385588   1.386423   0.000000
     6  C    4.129540   2.367930   2.769404   2.424280   1.404858
     7  C    2.849176   1.388137   2.429647   2.815178   2.419503
     8  C    5.445673   3.812763   4.254411   3.700192   2.386107
     9  C    6.461225   4.642681   4.652783   3.678047   2.316924
    10  C    7.825989   6.019784   5.998346   4.938512   3.627627
    11  C    8.700517   6.822498   6.537456   5.301266   4.177751
    12  I   10.769651   8.909340   8.655909   7.410364   6.293574
    13  C    8.441537   6.534550   5.979840   4.636375   3.791433
    14  C    7.196675   5.298448   4.636018   3.274048   2.583852
    15  C    6.078992   4.174388   3.790861   2.583309   1.451809
    16  H    2.937595   2.138375   1.079087   2.143250   3.370483
    17  H    4.988971   3.377013   2.139842   1.079024   2.151045
    18  H    2.953249   2.149433   3.404303   3.894441   3.407394
    19  H    5.707174   4.235188   4.817634   4.379319   3.134930
    20  H    5.707167   4.235189   4.817636   4.379322   3.134934
    21  H    8.320119   6.609224   6.770103   5.822419   4.461172
    22  H    9.334008   7.433367   6.752134   5.375885   4.704161
    23  H    7.242838   5.404631   4.493556   3.116806   2.902031
                    6          7          8          9         10
     6  C    0.000000
     7  C    1.378099   0.000000
     8  C    1.500185   2.596528   0.000000
     9  C    2.338478   3.696376   1.500347   0.000000
    10  C    3.696677   5.030903   2.596866   1.378458   0.000000
    11  C    4.644851   6.021556   3.813603   2.369286   1.386856
    12  I    6.667645   8.030329   5.637755   4.333953   3.041948
    13  C    4.652004   5.997492   4.251812   2.766314   2.424647
    14  C    3.677950   4.938418   3.698728   2.421907   2.812263
    15  C    2.316812   3.627147   2.385755   1.404309   2.419516
    16  H    3.848217   3.397838   5.332957   5.674809   6.997987
    17  H    3.407878   3.894196   4.536357   4.207912   5.317668
    18  H    2.150124   1.079387   2.894939   4.248442   5.481792
    19  H    2.158703   2.961194   1.092612   2.159069   2.961787
    20  H    2.158697   2.961187   1.092600   2.159072   2.961787
    21  H    4.241433   5.473902   2.887149   2.145559   1.079432
    22  H    5.671699   6.994435   5.330091   3.845247   3.395740
    23  H    4.209359   5.319459   4.536082   3.406223   3.891406
                   11         12         13         14         15
    11  C    0.000000
    12  I    2.118479   0.000000
    13  C    1.385724   3.043614   0.000000
    14  C    2.398940   4.354694   1.384438   0.000000
    15  C    2.746656   4.865066   2.385666   1.386011   0.000000
    16  H    7.440447   9.552200   6.757757   5.381249   4.707575
    17  H    5.405880   7.450371   4.493065   3.115807   2.900360
    18  H    6.617604   8.523133   6.774536   5.826726   4.465808
    19  H    4.235656   5.885713   4.814837   4.377833   3.134667
    20  H    4.235653   5.885712   4.814839   4.377842   3.134672
    21  H    2.151500   3.108801   3.402296   3.891659   3.404261
    22  H    2.140345   3.094885   1.079067   2.138721   3.367419
    23  H    3.377717   5.181581   2.140071   1.079158   2.151036
                   16         17         18         19         20
    16  H    0.000000
    17  H    2.472473   0.000000
    18  H    4.281526   4.973432   0.000000
    19  H    5.880254   5.233881   3.014734   0.000000
    20  H    5.880255   5.233888   3.014721   1.761050   0.000000
    21  H    7.807455   6.297354   5.732908   3.006942   3.006936
    22  H    7.435802   5.046680   7.809631   5.877777   5.877782
    23  H    5.053953   2.610509   6.302274   5.233531   5.233539
                   21         22         23
    21  H    0.000000
    22  H    4.284588   0.000000
    23  H    4.970784   2.464922   0.000000
 Stoichiometry    C13H8BrI
 Framework group  C1[X(C13H8BrI)]
 Deg. of freedom    63
 Full point group                 C1      NOp   1
 Largest Abelian subgroup         C1      NOp   1
 Largest concise Abelian subgroup C1      NOp   1
                         Standard orientation:                         
 ---------------------------------------------------------------------
 Center     Atomic      Atomic             Coordinates (Angstroms)
 Number     Number       Type             X           Y           Z
 ---------------------------------------------------------------------
      1         35           0        5.886487   -0.311101   -0.000016
      2          6           0        4.021658    0.087785    0.000004
      3          6           0        3.619240    1.415047   -0.000006
      4          6           0        2.270444    1.725146   -0.000006
      5          6           0        1.345851    0.692046    0.000004
      6          6           0        1.770635   -0.647053    0.000004
      7          6           0        3.112460   -0.961160    0.000004
      8          6           0        0.588485   -1.570675    0.000014
      9          6           0       -0.567616   -0.614394    0.000014
     10          6           0       -1.917960   -0.891375    0.000014
     11          6           0       -2.800235    0.178652   -0.000006
     12         53           0       -4.882693   -0.210346    0.000004
     13          6           0       -2.360097    1.492619   -0.000006
     14          6           0       -1.003323    1.767998    0.000004
     15          6           0       -0.105824    0.711816    0.000004
     16          1           0        4.360628    2.199122   -0.000016
     17          1           0        1.951686    2.756012   -0.000006
     18          1           0        3.453589   -1.985223    0.000004
     19          1           0        0.579689   -2.217492    0.880554
     20          1           0        0.579689   -2.217512   -0.880496
     21          1           0       -2.278808   -1.908706    0.000014
     22          1           0       -3.074472    2.301356   -0.000006
     23          1           0       -0.658593    2.790613   -0.000006
 ---------------------------------------------------------------------
 Rotational constants (GHZ):           1.9901539           0.0763588           0.0735708
 Standard basis: MIDIx (5D, 7F)
 There are   201 symmetry adapted cartesian basis functions of A   symmetry.
 There are   196 symmetry adapted basis functions of A   symmetry.
   196 basis functions,   375 primitive gaussians,   201 cartesian basis functions
    87 alpha electrons       87 beta electrons
       nuclear repulsion energy      1629.0657348933 Hartrees.
 NAtoms=   23 NActive=   23 NUniq=   23 SFac= 1.00D+00 NAtFMM=   60 NAOKFM=F Big=F
 Integral buffers will be    131072 words long.
 Raffenetti 2 integral format.
 Two-electron integral symmetry is turned on.
 Nuclear repulsion after empirical dispersion term =     1629.0497447173 Hartrees.
 One-electron integrals computed using PRISM.
 NBasis=   196 RedAO= T EigKep=  9.90D-04  NBF=   196
 NBsUse=   196 1.00D-06 EigRej= -1.00D+00 NBFU=   196
 Defaulting to unpruned grid for atomic number  53.
 ExpMin= 1.15D-01 ExpMax= 1.44D+04 ExpMxC= 1.44D+04 IAcc=3 IRadAn=         5 AccDes= 0.00D+00
 Harris functional with IExCor= 4639 and IRadAn=       5 diagonalized for initial guess.
 HarFok:  IExCor= 4639 AccDes= 0.00D+00 IRadAn=         5 IDoV= 1 UseB2=F ITyADJ=14
 ICtDFT=  3500011 ScaDFX=  1.000000  1.000000  1.000000  1.000000
 Defaulting to unpruned grid for atomic number  53.
 FoFCou: FMM=F IPFlag=           0 FMFlag=      100000 FMFlg1=           0
         NFxFlg=           0 DoJE=T BraDBF=F KetDBF=T FulRan=T
         wScrn=  0.000000 ICntrl=       500 IOpCl=  0 I1Cent=   200000004 NGrid=           0
         NMat0=    1 NMatS0=      1 NMatT0=    0 NMatD0=    1 NMtDS0=    0 NMtDT0=    0
 Petite list used in FoFCou.
 Requested convergence on RMS density matrix=1.00D-08 within 128 cycles.
 Requested convergence on MAX density matrix=1.00D-06.
 Requested convergence on             energy=1.00D-06.
 No special actions if energy rises.
 Integral accuracy reduced to 1.0D-05 until final iterations.
 Defaulting to unpruned grid for atomic number  53.
 Defaulting to unpruned grid for atomic number  53.
 Defaulting to unpruned grid for atomic number  53.
 Defaulting to unpruned grid for atomic number  53.
 Defaulting to unpruned grid for atomic number  53.
 Defaulting to unpruned grid for atomic number  53.
 Defaulting to unpruned grid for atomic number  53.
 Defaulting to unpruned grid for atomic number  53.
 Defaulting to unpruned grid for atomic number  53.
 Defaulting to unpruned grid for atomic number  53.
 Defaulting to unpruned grid for atomic number  53.
 Defaulting to unpruned grid for atomic number  53.
 Defaulting to unpruned grid for atomic number  53.
 Defaulting to unpruned grid for atomic number  53.
 Defaulting to unpruned grid for atomic number  53.
 Defaulting to unpruned grid for atomic number  53.
 Defaulting to unpruned grid for atomic number  53.
 Defaulting to unpruned grid for atomic number  53.
 Defaulting to unpruned grid for atomic number  53.
 Defaulting to unpruned grid for atomic number  53.
 Defaulting to unpruned grid for atomic number  53.
 Defaulting to unpruned grid for atomic number  53.
 Defaulting to unpruned grid for atomic number  53.
 Defaulting to unpruned grid for atomic number  53.
 Initial convergence to 1.0D-05 achieved.  Increase integral accuracy.
 SCF Done:  E(RwB97XD) =  -9949.43316853     A.U. after   16 cycles
            NFock= 16  Conv=0.61D-08     -V/T= 1.9997

 **********************************************************************

            Population analysis using the SCF Density.

 **********************************************************************

 Orbital symmetries:
       Occupied  (A) (A) (A) (A) (A) (A) (A) (A) (A) (A) (A) (A)
                 (A) (A) (A) (A) (A) (A) (A) (A) (A) (A) (A) (A)
                 (A) (A) (A) (A) (A) (A) (A) (A) (A) (A) (A) (A)
                 (A) (A) (A) (A) (A) (A) (A) (A) (A) (A) (A) (A)
                 (A) (A) (A) (A) (A) (A) (A) (A) (A) (A) (A) (A)
                 (A) (A) (A) (A) (A) (A) (A) (A) (A) (A) (A) (A)
                 (A) (A) (A) (A) (A) (A) (A) (A) (A) (A) (A) (A)
                 (A) (A) (A)
       Virtual   (A) (A) (A) (A) (A) (A) (A) (A) (A) (A) (A) (A)
                 (A) (A) (A) (A) (A) (A) (A) (A) (A) (A) (A) (A)
                 (A) (A) (A) (A) (A) (A) (A) (A) (A) (A) (A) (A)
                 (A) (A) (A) (A) (A) (A) (A) (A) (A) (A) (A) (A)
                 (A) (A) (A) (A) (A) (A) (A) (A) (A) (A) (A) (A)
                 (A) (A) (A) (A) (A) (A) (A) (A) (A) (A) (A) (A)
                 (A) (A) (A) (A) (A) (A) (A) (A) (A) (A) (A) (A)
                 (A) (A) (A) (A) (A) (A) (A) (A) (A) (A) (A) (A)
                 (A) (A) (A) (A) (A) (A) (A) (A) (A) (A) (A) (A)
                 (A)
 The electronic state is 1-A.
 Alpha  occ. eigenvalues -- **********-480.14823-175.90819-164.64892-164.64661
 Alpha  occ. eigenvalues -- -164.64648 -62.58210 -56.17108 -56.16682 -56.16669
 Alpha  occ. eigenvalues --  -35.93367 -31.09305 -31.08791 -31.08787 -23.03329
 Alpha  occ. eigenvalues --  -23.03105 -23.03076 -23.02685 -23.02681 -10.29885
 Alpha  occ. eigenvalues --  -10.29009 -10.26099 -10.26024 -10.25883 -10.25796
 Alpha  occ. eigenvalues --  -10.25744 -10.25551 -10.25533 -10.25412 -10.25331
 Alpha  occ. eigenvalues --  -10.25298 -10.25279  -8.89052  -6.67532  -6.66107
 Alpha  occ. eigenvalues --   -6.66093  -6.49086  -4.79275  -4.77836  -4.77832
 Alpha  occ. eigenvalues --   -2.77837  -2.77343  -2.77326  -2.76153  -2.76149
 Alpha  occ. eigenvalues --   -2.15791  -2.15302  -2.15278  -2.14029  -2.14027
 Alpha  occ. eigenvalues --   -1.02734  -0.99004  -0.94607  -0.90596  -0.88319
 Alpha  occ. eigenvalues --   -0.87315  -0.82719  -0.81620  -0.76370  -0.73534
 Alpha  occ. eigenvalues --   -0.70644  -0.68841  -0.67844  -0.63203  -0.59976
 Alpha  occ. eigenvalues --   -0.57162  -0.55899  -0.55384  -0.54739  -0.54384
 Alpha  occ. eigenvalues --   -0.52020  -0.51415  -0.49352  -0.48242  -0.47888
 Alpha  occ. eigenvalues --   -0.45262  -0.43826  -0.43423  -0.41914  -0.41395
 Alpha  occ. eigenvalues --   -0.37181  -0.36469  -0.34975  -0.33776  -0.33754
 Alpha  occ. eigenvalues --   -0.33011  -0.28841
 Alpha virt. eigenvalues --    0.01864   0.04250   0.04760   0.06660   0.08602
 Alpha virt. eigenvalues --    0.09966   0.18412   0.19392   0.19601   0.20144
 Alpha virt. eigenvalues --    0.22889   0.23566   0.24260   0.27465   0.27840
 Alpha virt. eigenvalues --    0.27933   0.30426   0.33222   0.34732   0.35608
 Alpha virt. eigenvalues --    0.36513   0.37966   0.38276   0.42870   0.44287
 Alpha virt. eigenvalues --    0.45251   0.46471   0.47070   0.49219   0.49837
 Alpha virt. eigenvalues --    0.50488   0.52928   0.53781   0.55530   0.56851
 Alpha virt. eigenvalues --    0.58076   0.59859   0.61018   0.61254   0.63347
 Alpha virt. eigenvalues --    0.64174   0.64199   0.64264   0.65201   0.65395
 Alpha virt. eigenvalues --    0.65562   0.66739   0.67579   0.67849   0.69467
 Alpha virt. eigenvalues --    0.71697   0.72661   0.75545   0.77258   0.78868
 Alpha virt. eigenvalues --    0.79033   0.82703   0.84553   0.84775   0.86609
 Alpha virt. eigenvalues --    0.90822   0.91428   0.91616   0.92411   0.92945
 Alpha virt. eigenvalues --    0.94188   0.94305   0.95101   0.97242   0.97377
 Alpha virt. eigenvalues --    0.97616   0.98193   0.99065   0.99746   1.00571
 Alpha virt. eigenvalues --    1.02022   1.02791   1.03222   1.04532   1.04624
 Alpha virt. eigenvalues --    1.06018   1.06174   1.07490   1.09861   1.10867
 Alpha virt. eigenvalues --    1.11656   1.14274   1.15654   1.16135   1.17376
 Alpha virt. eigenvalues --    1.20179   1.22440   1.24398   1.27720   1.31888
 Alpha virt. eigenvalues --    1.38598   1.42120   1.45626   1.55941   1.57296
 Alpha virt. eigenvalues --    1.59612   1.63695   1.66835   1.67400   1.79831
 Alpha virt. eigenvalues --    1.82859   1.84407   1.97252   2.01944
          Condensed to atoms (all electrons):
               1          2          3          4          5          6
     1  Br  34.931734   0.213254  -0.039269   0.001841   0.000416   0.002391
     2  C    0.213254   5.042580   0.474750  -0.032803  -0.049454  -0.021429
     3  C   -0.039269   0.474750   4.957903   0.502687  -0.033079  -0.040962
     4  C    0.001841  -0.032803   0.502687   4.848368   0.463192  -0.013155
     5  C    0.000416  -0.049454  -0.033079   0.463192   4.992564   0.465915
     6  C    0.002391  -0.021429  -0.040962  -0.013155   0.465915   5.088922
     7  C   -0.040688   0.485165  -0.037148  -0.024096  -0.021675   0.469237
     8  C   -0.000027   0.000248   0.000843  -0.000009  -0.049997   0.322472
     9  C    0.000001  -0.000123  -0.000110   0.001003  -0.046828  -0.086713
    10  C   -0.000000  -0.000000   0.000001   0.000018   0.001162   0.001873
    11  C    0.000000   0.000000   0.000000   0.000000   0.001045  -0.000121
    12  I   -0.000000   0.000000  -0.000000  -0.000000   0.000003   0.000002
    13  C   -0.000000   0.000000  -0.000001   0.000115   0.000495  -0.000126
    14  C   -0.000000   0.000001   0.000112  -0.001950   0.006708   0.001035
    15  C    0.000001   0.001062   0.000438   0.006736   0.342812  -0.046621
    16  H    0.000613  -0.021512   0.394716  -0.017718   0.003032   0.000113
    17  H   -0.000056   0.002879  -0.020615   0.397415  -0.019616   0.002670
    18  H    0.000683  -0.017794   0.002248   0.000040   0.002502  -0.014816
    19  H   -0.000000   0.000047  -0.000005  -0.000015   0.000952  -0.025120
    20  H   -0.000000   0.000047  -0.000005  -0.000015   0.000952  -0.025119
    21  H   -0.000000  -0.000000  -0.000000  -0.000000  -0.000116   0.000111
    22  H   -0.000000  -0.000000   0.000000  -0.000000  -0.000028   0.000001
    23  H   -0.000000  -0.000000  -0.000015   0.001521  -0.006660   0.000102
               7          8          9         10         11         12
     1  Br  -0.040688  -0.000027   0.000001  -0.000000   0.000000  -0.000000
     2  C    0.485165   0.000248  -0.000123  -0.000000   0.000000   0.000000
     3  C   -0.037148   0.000843  -0.000110   0.000001   0.000000  -0.000000
     4  C   -0.024096  -0.000009   0.001003   0.000018   0.000000  -0.000000
     5  C   -0.021675  -0.049997  -0.046828   0.001162   0.001045   0.000003
     6  C    0.469237   0.322472  -0.086713   0.001873  -0.000121   0.000002
     7  C    4.884424   0.004790   0.001885   0.000029  -0.000000  -0.000000
     8  C    0.004790   5.018242   0.322914   0.004805   0.000238  -0.000047
     9  C    0.001885   0.322914   5.081786   0.478391  -0.026273   0.003591
    10  C    0.000029   0.004805   0.478391   4.878390   0.483355  -0.048100
    11  C   -0.000000   0.000238  -0.026273   0.483355   5.217774   0.260528
    12  I   -0.000000  -0.000047   0.003591  -0.048100   0.260528  52.697558
    13  C    0.000001   0.000924  -0.041470  -0.035824   0.472193  -0.046309
    14  C    0.000019  -0.000097  -0.013887  -0.024873  -0.036857   0.002876
    15  C    0.001163  -0.050417   0.466044  -0.020600  -0.049641   0.000462
    16  H    0.002484   0.000004   0.000000  -0.000000  -0.000000  -0.000000
    17  H   -0.000092  -0.000078   0.000106   0.000001   0.000000  -0.000000
    18  H    0.389239  -0.004883   0.000112   0.000001  -0.000000  -0.000000
    19  H   -0.003968   0.386716  -0.025124  -0.003989   0.000049  -0.000001
    20  H   -0.003968   0.386716  -0.025122  -0.003989   0.000049  -0.000001
    21  H    0.000001  -0.004891  -0.016513   0.394109  -0.019415  -0.000150
    22  H   -0.000000   0.000004   0.000163   0.002391  -0.023119  -0.000076
    23  H    0.000001  -0.000077   0.002675  -0.000061   0.002972  -0.000101
              13         14         15         16         17         18
     1  Br  -0.000000  -0.000000   0.000001   0.000613  -0.000056   0.000683
     2  C    0.000000   0.000001   0.001062  -0.021512   0.002879  -0.017794
     3  C   -0.000001   0.000112   0.000438   0.394716  -0.020615   0.002248
     4  C    0.000115  -0.001950   0.006736  -0.017718   0.397415   0.000040
     5  C    0.000495   0.006708   0.342812   0.003032  -0.019616   0.002502
     6  C   -0.000126   0.001035  -0.046621   0.000113   0.002670  -0.014816
     7  C    0.000001   0.000019   0.001163   0.002484  -0.000092   0.389239
     8  C    0.000924  -0.000097  -0.050417   0.000004  -0.000078  -0.004883
     9  C   -0.041470  -0.013887   0.466044   0.000000   0.000106   0.000112
    10  C   -0.035824  -0.024873  -0.020600  -0.000000   0.000001   0.000001
    11  C    0.472193  -0.036857  -0.049641  -0.000000   0.000000  -0.000000
    12  I   -0.046309   0.002876   0.000462  -0.000000  -0.000000  -0.000000
    13  C    4.954431   0.510013  -0.032504   0.000000  -0.000016  -0.000000
    14  C    0.510013   4.843341   0.463319  -0.000000   0.001527  -0.000000
    15  C   -0.032504   0.463319   4.990954  -0.000026  -0.006678  -0.000113
    16  H    0.000000  -0.000000  -0.000026   0.430199  -0.004001  -0.000056
    17  H   -0.000016   0.001527  -0.006678  -0.004001   0.444562   0.000006
    18  H   -0.000000  -0.000000  -0.000113  -0.000056   0.000006   0.432420
    19  H   -0.000006  -0.000013   0.000970  -0.000000   0.000002   0.000767
    20  H   -0.000006  -0.000013   0.000970  -0.000000   0.000002   0.000767
    21  H    0.002150   0.000079   0.002542   0.000000   0.000000   0.000000
    22  H    0.399439  -0.019438   0.003128   0.000000   0.000001   0.000000
    23  H   -0.021017   0.397589  -0.019749   0.000001   0.002228   0.000000
              19         20         21         22         23
     1  Br  -0.000000  -0.000000  -0.000000  -0.000000  -0.000000
     2  C    0.000047   0.000047  -0.000000  -0.000000  -0.000000
     3  C   -0.000005  -0.000005  -0.000000   0.000000  -0.000015
     4  C   -0.000015  -0.000015  -0.000000  -0.000000   0.001521
     5  C    0.000952   0.000952  -0.000116  -0.000028  -0.006660
     6  C   -0.025120  -0.025119   0.000111   0.000001   0.000102
     7  C   -0.003968  -0.003968   0.000001  -0.000000   0.000001
     8  C    0.386716   0.386716  -0.004891   0.000004  -0.000077
     9  C   -0.025124  -0.025122  -0.016513   0.000163   0.002675
    10  C   -0.003989  -0.003989   0.394109   0.002391  -0.000061
    11  C    0.000049   0.000049  -0.019415  -0.023119   0.002972
    12  I   -0.000001  -0.000001  -0.000150  -0.000076  -0.000101
    13  C   -0.000006  -0.000006   0.002150   0.399439  -0.021017
    14  C   -0.000013  -0.000013   0.000079  -0.019438   0.397589
    15  C    0.000970   0.000970   0.002542   0.003128  -0.019749
    16  H   -0.000000  -0.000000   0.000000   0.000000   0.000001
    17  H    0.000002   0.000002   0.000000   0.000001   0.002228
    18  H    0.000767   0.000767   0.000000   0.000000   0.000000
    19  H    0.455621  -0.022626   0.000797  -0.000000   0.000002
    20  H   -0.022626   0.455619   0.000797  -0.000000   0.000002
    21  H    0.000797   0.000797   0.433819  -0.000051   0.000006
    22  H   -0.000000  -0.000000  -0.000051   0.431404  -0.003904
    23  H    0.000002   0.000002   0.000006  -0.003904   0.445494
 Mulliken charges:
               1
     1  Br  -0.070895
     2  C   -0.076919
     3  C   -0.162488
     4  C   -0.133177
     5  C   -0.054298
     6  C   -0.080662
     7  C   -0.106802
     8  C   -0.338392
     9  C   -0.076509
    10  C   -0.107088
    11  C   -0.282776
    12  I    0.129765
    13  C   -0.162482
    14  C   -0.129490
    15  C   -0.054251
    16  H    0.212149
    17  H    0.199752
    18  H    0.208877
    19  H    0.234942
    20  H    0.234942
    21  H    0.206726
    22  H    0.210085
    23  H    0.198992
 Sum of Mulliken charges =  -0.00000
 Mulliken charges with hydrogens summed into heavy atoms:
               1
     1  Br  -0.070895
     2  C   -0.076919
     3  C    0.049661
     4  C    0.066575
     5  C   -0.054298
     6  C   -0.080662
     7  C    0.102075
     8  C    0.131492
     9  C   -0.076509
    10  C    0.099637
    11  C   -0.282776
    12  I    0.129765
    13  C    0.047603
    14  C    0.069502
    15  C   -0.054251
 Electronic spatial extent (au):  <R**2>=          11277.7397
 Charge=              0.0000 electrons
 Dipole moment (field-independent basis, Debye):
    X=              0.0245    Y=              0.0128    Z=              0.0000  Tot=              0.0276
 Quadrupole moment (field-independent basis, Debye-Ang):
   XX=           -130.6562   YY=           -108.0834   ZZ=           -126.1899
   XY=              0.5287   XZ=             -0.0001   YZ=             -0.0001
 Traceless Quadrupole moment (field-independent basis, Debye-Ang):
   XX=             -9.0130   YY=             13.5598   ZZ=             -4.5468
   XY=              0.5287   XZ=             -0.0001   YZ=             -0.0001
 Octapole moment (field-independent basis, Debye-Ang**2):
  XXX=            -69.1304  YYY=            -10.2095  ZZZ=             -0.0003  XYY=             -3.2811
  XXY=             -2.8351  XXZ=             -0.0003  XZZ=            -13.8786  YZZ=            -11.9729
  YYZ=             -0.0002  XYZ=             -0.0000
 Hexadecapole moment (field-independent basis, Debye-Ang**3):
 XXXX=         -10123.7805 YYYY=           -733.6556 ZZZZ=           -146.3371 XXXY=             22.0274
 XXXZ=              0.0016 YYYX=             -9.4360 YYYZ=              0.0009 ZZZX=              0.0069
 ZZZY=              0.0012 XXYY=          -1783.7224 XXZZ=          -1805.7335 YYZZ=           -168.5190
 XXYZ=              0.0000 YYXZ=              0.0020 ZZXY=             -7.2304
 N-N= 1.629049744717D+03 E-N=-2.690846054314D+04  KE= 9.952575527156D+03
 There are a total of      552474 grid points.
 ElSum from          density=      173.9999890729
 ElSum from atomic densities=      174.0001297158

 Hirshfeld populations at iteration   1 (CX, CA, CB, DipXYZ):
               1          2          3          4          5          6
     1  Br   0.000000  17.525515  17.525515   0.031554  -0.004504  -0.000001
     2  C    0.000000   2.994801   2.994801   0.046983  -0.010114   0.000000
     3  C    0.000000   3.022194   3.022194   0.009063   0.038682  -0.000000
     4  C    0.000000   3.016585   3.016585  -0.012652   0.049613  -0.000000
     5  C    0.000000   3.005928   3.005928  -0.033361   0.023060   0.000001
     6  C    0.000000   2.998955   2.998955  -0.035083  -0.051779  -0.000000
     7  C    0.000000   3.023040   3.023040  -0.001583  -0.045667  -0.000000
     8  C    0.000000   3.017937   3.017937  -0.000075  -0.007742  -0.000002
     9  C    0.000000   2.999239   2.999239   0.034208  -0.052407   0.000001
    10  C    0.000000   3.023770   3.023770   0.009702  -0.046695   0.000001
    11  C    0.000000   3.011314   3.011314  -0.028797  -0.005488   0.000000
    12  I    0.000000  26.505499  26.505499   0.040502   0.010541   0.000001
    13  C    0.000000   3.022879   3.022879   0.000194   0.043373  -0.000000
    14  C    0.000000   3.016900   3.016900   0.014480   0.048994   0.000000
    15  C    0.000000   3.005179   3.005179   0.034184   0.022297  -0.000001
    16  H    0.000000   0.476277   0.476277   0.097615   0.132569  -0.000002
    17  H    0.000000   0.475887   0.475887  -0.039665   0.155678   0.000000
    18  H    0.000000   0.475727   0.475727   0.035834  -0.159156  -0.000000
    19  H    0.000000   0.475249   0.475249  -0.001388  -0.099863   0.121200
    20  H    0.000000   0.475250   0.475250  -0.001387  -0.099867  -0.121198
    21  H    0.000000   0.477648   0.477648  -0.031196  -0.155693  -0.000000
    22  H    0.000000   0.478178   0.478178  -0.084938   0.136047   0.000000
    23  H    0.000000   0.476045   0.476045   0.043501   0.154434  -0.000002
       Tot   0.000000  86.999995  86.999995   0.127692   0.076313  -0.000003

 Dip from Atomic Chgs             -0.118087  -0.071299   0.000005
         Total Dipole              0.009605   0.005014   0.000003

 Hirshfeld charges, spin densities, dipoles, and CM5 charges using IRadAn=      5:
              Q-H        S-H        Dx         Dy         Dz        Q-CM5   
     1  Br  -0.051030   0.000000   0.031554  -0.004504  -0.000001  -0.036523
     2  C    0.010398   0.000000   0.046983  -0.010114   0.000000  -0.010590
     3  C   -0.044389   0.000000   0.009063   0.038682  -0.000000  -0.098541
     4  C   -0.033170   0.000000  -0.012652   0.049613  -0.000000  -0.086237
     5  C   -0.011856   0.000000  -0.033361   0.023060   0.000001  -0.016822
     6  C    0.002090   0.000000  -0.035083  -0.051779  -0.000000  -0.008475
     7  C   -0.046080   0.000000  -0.001583  -0.045667  -0.000000  -0.097603
     8  C   -0.035874   0.000000  -0.000075  -0.007742  -0.000002  -0.131950
     9  C    0.001523   0.000000   0.034208  -0.052407   0.000001  -0.009112
    10  C   -0.047540   0.000000   0.009702  -0.046695   0.000001  -0.099974
    11  C   -0.022628   0.000000  -0.028797  -0.005488   0.000000  -0.051977
    12  I   -0.010997   0.000000   0.040502   0.010541   0.000001   0.014195
    13  C   -0.045759   0.000000   0.000194   0.043373  -0.000000  -0.100822
    14  C   -0.033799   0.000000   0.014480   0.048994   0.000000  -0.086925
    15  C   -0.010357   0.000000   0.034184   0.022297  -0.000001  -0.015337
    16  H    0.047447   0.000000   0.097615   0.132569  -0.000002   0.105046
    17  H    0.048227   0.000000  -0.039665   0.155678   0.000000   0.105616
    18  H    0.048546   0.000000   0.035834  -0.159156  -0.000000   0.106463
    19  H    0.049501   0.000000  -0.001388  -0.099863   0.121200   0.105377
    20  H    0.049501   0.000000  -0.001387  -0.099867  -0.121198   0.105378
    21  H    0.044705   0.000000  -0.031196  -0.155693  -0.000000   0.102468
    22  H    0.043645   0.000000  -0.084938   0.136047   0.000000   0.101078
    23  H    0.047910   0.000000   0.043501   0.154434  -0.000002   0.105276
       Tot   0.000011   0.000000   0.127692   0.076313  -0.000003   0.000011
 Hirshfeld charges with hydrogens summed into heavy atoms:
              Q-H       Q-CM5   
     1  Br  -0.051030  -0.036523
     2  C    0.010398  -0.010590
     3  C    0.003058   0.006506
     4  C    0.015057   0.019379
     5  C   -0.011856  -0.016822
     6  C    0.002090  -0.008475
     7  C    0.002466   0.008861
     8  C    0.063128   0.078805
     9  C    0.001523  -0.009112
    10  C   -0.002835   0.002494
    11  C   -0.022628  -0.051977
    12  I   -0.010997   0.014195
    13  C   -0.002114   0.000256
    14  C    0.014111   0.018352
    15  C   -0.010357  -0.015337
 
 EQQ= 0.000000000000E+00 EQD= 0.000000000000E+00 EDD= 0.718188934454E-02
 EQQ+QD+DD= 0.718188934454E-02
 
 Running external command "gaunbo6 R"
         input file       "/home/rpaton/opt/xtb/Gau-1512561.EIn"
         output file      "/home/rpaton/opt/xtb/Gau-1512561.EOu"
         message file     "/home/rpaton/opt/xtb/Gau-1512561.EMs"
         fchk file        "/home/rpaton/opt/xtb/Gau-1512561.EFC"
         mat. el file     "/home/rpaton/opt/xtb/Gau-1512561.EUF"

 Writing WrtUnf unformatted file "/home/rpaton/opt/xtb/Gau-1512561.EUF"
 Gaussian matrix elements                                         Version   2 NLab=11 Len12L=8 Len4L=8
 Write SHELL TO ATOM MAP                   from file      0 offset           0 length                 106 to matrix element file.
 Write SHELL TYPES                         from file      0 offset           0 length                 106 to matrix element file.
 Write NUMBER OF PRIMITIVES PER SHELL      from file      0 offset           0 length                 106 to matrix element file.
 Write PRIMITIVE EXPONENTS                 from file      0 offset           0 length                 200 to matrix element file.
 Write CONTRACTION COEFFICIENTS            from file      0 offset           0 length                 200 to matrix element file.
 Write P(S=P) CONTRACTION COEFFICIENTS     from file      0 offset           0 length                 200 to matrix element file.
 Write COORDINATES OF EACH SHELL           from file      0 offset           0 length                 318 to matrix element file.
 Write BONDS PER ATOM                      from file      0 offset           0 length                  23 to matrix element file.
 Write BONDED ATOMS                        from file      0 offset           0 length                  50 to matrix element file.
 Write BOND TYPES                          from file      0 offset           0 length                  50 to matrix element file.
 Write ONIOM CHARGE/MULT                   from file      0 offset           0 length                  32 to matrix element file.
 Write ONIOM ATOM LAYERS                   from file      0 offset           0 length                  23 to matrix element file.
 Write ONIOM ATOM MODIFIERS                from file      0 offset           0 length                  23 to matrix element file.
 Write ONIOM ATOM TYPES                    from file      0 offset           0 length                  23 to matrix element file.
 Write ONIOM LINK ATOMS                    from file      0 offset           0 length                  23 to matrix element file.
 Write ONIOM LINK CHARGES                  from file      0 offset           0 length                  23 to matrix element file.
 Write ONIOM LINK DISTANCES                from file      0 offset           0 length                  92 to matrix element file.
 Write SYMINF INTS                         from file      0 offset           0 length                  26 to matrix element file.
 Write ROTTR TO SO                         from file      0 offset           0 length                  12 to matrix element file.
 Write GAUSSIAN SCALARS                    from file    501 offset           0 to matrix element file.
 Write OPTIMIZATION FLAGS                  from file      0 offset           0 length                  23 to matrix element file.
 Write INTEGER ISO                         from file      0 offset           0 length                  23 to matrix element file.
 Write INTEGER SPIN                        from file      0 offset           0 length                  23 to matrix element file.
 Write REAL ZEFFECTIVE                     from file      0 offset           0 length                  23 to matrix element file.
 Write REAL QUADRUPOLEMOMENT               from file      0 offset           0 length                  23 to matrix element file.
 Write REAL GFACTOR                        from file      0 offset           0 length                  23 to matrix element file.
 Write REAL ZNUCLEAR                       from file      0 offset           0 length                  23 to matrix element file.
 Write MULLIKEN CHARGES                    from file      0 offset           0 length                  23 to matrix element file.
 Write TYPE 6 CHARGES                      from file      0 offset           0 length                  23 to matrix element file.
 Write TYPE 7 CHARGES                      from file      0 offset           0 length                  23 to matrix element file.
 Write NUCLEAR GRADIENT                    from file  10584 offset           0 length                  69 to matrix element file.
 Array NUCLEAR FORCE CONSTANTS              on  file  10585 does not exist.
 Write ELECTRIC DIPOLE MOMENT              from file      0 offset           0 length                   3 to matrix element file.
 Write NON-ADIABATIC COUPLING              from file  10810 offset           0 length                  69 to matrix element file.
 Write FINITE EM FIELD                     from file  10521 offset           0 length                  35 to matrix element file.
 Write OVERLAP                             from file  10514 offset           0 length               19306 to matrix element file.
 Write CORE HAMILTONIAN ALPHA              from file  10515 offset           0 length               19306 to matrix element file.
 Write CORE HAMILTONIAN BETA               from file  10515 offset       19306 length               19306 to matrix element file.
 Write KINETIC ENERGY                      from file  10516 offset           0 length               19306 to matrix element file.
 Write ORTHOGONAL BASIS                    from file  10685 offset           0 length               38416 to matrix element file.
 Write DIPOLE INTEGRALS                    from file  10518 offset           0 length               57918 to matrix element file.
 Array DIP VEL INTEGRALS                    on  file  10572 does not exist.
 Array R X DEL INTEGRALS                    on  file  10572 does not exist.
 Write ALPHA ORBITAL ENERGIES              from file      0 offset           0 length                 196 to matrix element file.
 Write ALPHA MO COEFFICIENTS               from file  10524 offset           0 length               38416 to matrix element file.
 Write ALPHA DENSITY MATRIX                from file      0 offset           0 length               19306 to matrix element file.
 Write ALPHA FOCK MATRIX                   from file  10536 offset           0 length               19306 to matrix element file.
 Write ENERGY-WEIGHTED DENSITY             from file  10571 offset           0 length               19306 to matrix element file.
 Write ALPHA SCF DENSITY MATRIX            from file      0 offset           0 length               19306 to matrix element file.
 Write INTEGER PARAMETERS                  from file      0 offset           0 length                   2 to matrix element file.
 No 2e integrals to process.
 Perform NBO analysis...

 *********************************** NBO 7.0 ***********************************
             N A T U R A L   A T O M I C   O R B I T A L   A N D
          N A T U R A L   B O N D   O R B I T A L   A N A L Y S I S
 **************************** Robert Paton (I101709) ***************************
  (c) Copyright 1996-2019 Board of Regents of the University of Wisconsin System
      on behalf of the Theoretical Chemistry Institute.  All rights reserved.

          Cite this program [NBO 7.0.5 (4-Jun-2019)] as:

          NBO 7.0.  E. D. Glendening, J. K. Badenhoop, A. E. Reed,
          J. E. Carpenter, J. A. Bohmann, C. M. Morales, P. Karafiloglou,
          C. R. Landis, and F. Weinhold, Theoretical Chemistry Institute,
          University of Wisconsin, Madison, WI (2018)

       /AONBO  / : Checkpoint the AO to NBO transformation
                   NBOs sorted by occupancy
       /BNDIDX / : Print bond indices based on the NAO density matrix

 Filename set to /home/rpaton/opt/xtb/Gau-1512561

 Job title:  energy: -39.823789709276 gnorm: 0.000181017279 xtb: 6.7.0 (08769fc)


 NATURAL POPULATIONS:  Natural atomic orbital occupancies

  NAO Atom No lang   Type(AO)    Occupancy      Energy
 -------------------------------------------------------
   1   Br  1  s      Cor( 3s)     2.00000     -19.49675
   2   Br  1  s      Cor( 1s)     2.00000    -452.29973
   3   Br  1  s      Cor( 2s)     1.99999     -79.82359
   4   Br  1  s      Val( 4s)     1.87287      -0.77129
   5   Br  1  s      Ryd( 5s)     0.00279       0.85101
   6   Br  1  px     Cor( 3p)     2.00000      -7.18468
   7   Br  1  px     Cor( 2p)     1.99999     -55.66037
   8   Br  1  px     Val( 4p)     1.15525      -0.23877
   9   Br  1  px     Ryd( 5p)     0.00337       0.73692
  10   Br  1  py     Cor( 3p)     2.00000      -7.17126
  11   Br  1  py     Cor( 2p)     1.99999     -55.65703
  12   Br  1  py     Val( 4p)     1.94366      -0.35711
  13   Br  1  py     Ryd( 5p)     0.00137       0.76564
  14   Br  1  pz     Cor( 3p)     2.00000      -7.17076
  15   Br  1  pz     Cor( 2p)     2.00000     -55.65687
  16   Br  1  pz     Val( 4p)     1.94519      -0.35773
  17   Br  1  pz     Ryd( 5p)     0.00073       0.72935
  18   Br  1  dxy    Cor( 3d)     1.99965      -2.77286
  19   Br  1  dxy    Ryd( 4d)     0.00138       0.92967
  20   Br  1  dxz    Cor( 3d)     1.99988      -2.77251
  21   Br  1  dxz    Ryd( 4d)     0.00209       0.71529
  22   Br  1  dyz    Cor( 3d)     1.99999      -2.76199
  23   Br  1  dyz    Ryd( 4d)     0.00014       0.64991
  24   Br  1  dx2y2  Cor( 3d)     1.99947      -2.77302
  25   Br  1  dx2y2  Ryd( 4d)     0.00420       0.98815
  26   Br  1  dz2    Cor( 3d)     1.99980      -2.76543
  27   Br  1  dz2    Ryd( 4d)     0.00157       0.76290

  28    C  2  s      Cor( 1s)     1.99989     -10.29706
  29    C  2  s      Val( 2s)     0.93269      -0.14170
  30    C  2  s      Ryd( 3s)     0.00058       0.71829
  31    C  2  px     Val( 2p)     0.99522      -0.12405
  32    C  2  px     Ryd( 3p)     0.00683       1.34618
  33    C  2  py     Val( 2p)     1.10853      -0.06362
  34    C  2  py     Ryd( 3p)     0.00767       1.11499
  35    C  2  pz     Val( 2p)     1.06802      -0.15946
  36    C  2  pz     Ryd( 3p)     0.00078       0.94487

  37    C  3  s      Cor( 1s)     1.99986     -10.24959
  38    C  3  s      Val( 2s)     0.94200      -0.07958
  39    C  3  s      Ryd( 3s)     0.00092       0.73122
  40    C  3  px     Val( 2p)     1.14533      -0.05023
  41    C  3  px     Ryd( 3p)     0.00636       1.17238
  42    C  3  py     Val( 2p)     1.14869      -0.06189
  43    C  3  py     Ryd( 3p)     0.00518       1.20282
  44    C  3  pz     Val( 2p)     1.00597      -0.12725
  45    C  3  pz     Ryd( 3p)     0.00044       0.92810

  46    C  4  s      Cor( 1s)     1.99983     -10.25060
  47    C  4  s      Val( 2s)     0.93188      -0.06422
  48    C  4  s      Ryd( 3s)     0.00068       0.73289
  49    C  4  px     Val( 2p)     1.07814      -0.02400
  50    C  4  px     Ryd( 3p)     0.00501       1.05217
  51    C  4  py     Val( 2p)     1.19864      -0.06652
  52    C  4  py     Ryd( 3p)     0.00521       1.35754
  53    C  4  pz     Val( 2p)     0.99463      -0.12375
  54    C  4  pz     Ryd( 3p)     0.00036       0.93009

  55    C  5  s      Cor( 1s)     1.99987     -10.25479
  56    C  5  s      Val( 2s)     0.83478      -0.00965
  57    C  5  s      Ryd( 3s)     0.00094       0.75222
  58    C  5  px     Val( 2p)     1.08703      -0.03256
  59    C  5  px     Ryd( 3p)     0.00478       1.51161
  60    C  5  py     Val( 2p)     1.10376      -0.03876
  61    C  5  py     Ryd( 3p)     0.00546       1.46208
  62    C  5  pz     Val( 2p)     1.01102      -0.12032
  63    C  5  pz     Ryd( 3p)     0.00024       1.00045

  64    C  6  s      Cor( 1s)     1.99991     -10.25804
  65    C  6  s      Val( 2s)     0.84352      -0.03323
  66    C  6  s      Ryd( 3s)     0.00102       0.74875
  67    C  6  px     Val( 2p)     1.09515      -0.03609
  68    C  6  px     Ryd( 3p)     0.00490       1.51696
  69    C  6  py     Val( 2p)     1.06601      -0.03971
  70    C  6  py     Ryd( 3p)     0.00410       1.35089
  71    C  6  pz     Val( 2p)     0.98488      -0.12088
  72    C  6  pz     Ryd( 3p)     0.00102       0.99497

  73    C  7  s      Cor( 1s)     1.99984     -10.25183
  74    C  7  s      Val( 2s)     0.93058      -0.06495
  75    C  7  s      Ryd( 3s)     0.00114       0.72286
  76    C  7  px     Val( 2p)     1.08354      -0.03044
  77    C  7  px     Ryd( 3p)     0.00626       1.01342
  78    C  7  py     Val( 2p)     1.20954      -0.08248
  79    C  7  py     Ryd( 3p)     0.00584       1.34291
  80    C  7  pz     Val( 2p)     1.00505      -0.12768
  81    C  7  pz     Ryd( 3p)     0.00037       0.92982

  82    C  8  s      Cor( 1s)     1.99975     -10.25323
  83    C  8  s      Val( 2s)     1.01658      -0.15245
  84    C  8  s      Ryd( 3s)     0.00057       1.19961
  85    C  8  px     Val( 2p)     1.03830      -0.08031
  86    C  8  px     Ryd( 3p)     0.00264       0.94236
  87    C  8  py     Val( 2p)     1.18069      -0.10564
  88    C  8  py     Ryd( 3p)     0.00220       0.94692
  89    C  8  pz     Val( 2p)     1.27502      -0.13470
  90    C  8  pz     Ryd( 3p)     0.00069       1.08939

  91    C  9  s      Cor( 1s)     1.99991     -10.25727
  92    C  9  s      Val( 2s)     0.84353      -0.03296
  93    C  9  s      Ryd( 3s)     0.00103       0.74803
  94    C  9  px     Val( 2p)     1.09600      -0.03558
  95    C  9  px     Ryd( 3p)     0.00493       1.51046
  96    C  9  py     Val( 2p)     1.06472      -0.03949
  97    C  9  py     Ryd( 3p)     0.00415       1.35611
  98    C  9  pz     Val( 2p)     0.98613      -0.12063
  99    C  9  pz     Ryd( 3p)     0.00102       0.99537

 100    C 10  s      Cor( 1s)     1.99984     -10.25209
 101    C 10  s      Val( 2s)     0.92950      -0.06449
 102    C 10  s      Ryd( 3s)     0.00118       0.72155
 103    C 10  px     Val( 2p)     1.08712      -0.03140
 104    C 10  px     Ryd( 3p)     0.00632       1.00097
 105    C 10  py     Val( 2p)     1.20829      -0.08217
 106    C 10  py     Ryd( 3p)     0.00619       1.33314
 107    C 10  pz     Val( 2p)     1.00033      -0.12702
 108    C 10  pz     Ryd( 3p)     0.00037       0.92874

 109    C 11  s      Cor( 1s)     1.99987     -10.28843
 110    C 11  s      Val( 2s)     0.95757      -0.14746
 111    C 11  s      Ryd( 3s)     0.00122       0.74996
 112    C 11  px     Val( 2p)     1.07214      -0.14392
 113    C 11  px     Ryd( 3p)     0.00888       1.26691
 114    C 11  py     Val( 2p)     1.10708      -0.06112
 115    C 11  py     Ryd( 3p)     0.00793       1.06723
 116    C 11  pz     Val( 2p)     1.06983      -0.15812
 117    C 11  pz     Ryd( 3p)     0.00068       0.93873

 118    I 12  s      Cor( 2s)     2.00000    -347.03720
 119    I 12  s      Cor( 1s)     2.00000    -818.19532
 120    I 12  s      Cor( 4s)     2.00000     -81.26105
 121    I 12  s      Cor( 3s)     1.99999    -131.10236
 122    I 12  s      Val( 5s)     1.88505      -0.66908
 123    I 12  s      Ryd( 6s)     0.00393       0.50333
 124    I 12  px     Cor( 4p)     2.00000      -8.54379
 125    I 12  px     Cor( 2p)     2.00000    -102.07204
 126    I 12  px     Cor( 3p)     1.99999     -89.91758
 127    I 12  px     Val( 5p)     1.02132      -0.20205
 128    I 12  px     Ryd( 6p)     0.00468       0.56477
 129    I 12  py     Cor( 4p)     2.00000      -8.53022
 130    I 12  py     Cor( 2p)     2.00000    -102.06798
 131    I 12  py     Cor( 3p)     2.00000     -89.91515
 132    I 12  py     Val( 5p)     1.95226      -0.33076
 133    I 12  py     Ryd( 6p)     0.00126       0.54782
 134    I 12  pz     Cor( 4p)     2.00000      -8.52968
 135    I 12  pz     Cor( 2p)     2.00000    -102.06786
 136    I 12  pz     Cor( 3p)     2.00000     -89.91507
 137    I 12  pz     Val( 5p)     1.95881      -0.33122
 138    I 12  pz     Ryd( 6p)     0.00068       0.50222
 139    I 12  dxy    Cor( 3d)     2.00000     -16.85229
 140    I 12  dxy    Cor( 4d)     1.99983      -8.33103
 141    I 12  dxy    Ryd( 5d)     0.00063       0.88713
 142    I 12  dxz    Cor( 3d)     2.00000     -16.85215
 143    I 12  dxz    Cor( 4d)     1.99994      -8.33052
 144    I 12  dxz    Ryd( 5d)     0.00161       0.71760
 145    I 12  dyz    Cor( 3d)     2.00000     -16.84721
 146    I 12  dyz    Cor( 4d)     2.00000      -8.32041
 147    I 12  dyz    Ryd( 5d)     0.00009       0.65696
 148    I 12  dx2y2  Cor( 3d)     1.99999     -16.85229
 149    I 12  dx2y2  Cor( 4d)     1.99970      -8.33112
 150    I 12  dx2y2  Ryd( 5d)     0.00229       1.01195
 151    I 12  dz2    Cor( 3d)     2.00000     -16.84879
 152    I 12  dz2    Cor( 4d)     1.99989      -8.32376
 153    I 12  dz2    Ryd( 5d)     0.00079       0.78354

 154    C 13  s      Cor( 1s)     1.99987     -10.24988
 155    C 13  s      Val( 2s)     0.94092      -0.07915
 156    C 13  s      Ryd( 3s)     0.00096       0.72998
 157    C 13  px     Val( 2p)     1.14019      -0.04895
 158    C 13  px     Ryd( 3p)     0.00656       1.13558
 159    C 13  py     Val( 2p)     1.15607      -0.06376
 160    C 13  py     Ryd( 3p)     0.00543       1.21639
 161    C 13  pz     Val( 2p)     1.00119      -0.12657
 162    C 13  pz     Ryd( 3p)     0.00044       0.92701

 163    C 14  s      Cor( 1s)     1.99983     -10.24985
 164    C 14  s      Val( 2s)     0.93192      -0.06397
 165    C 14  s      Ryd( 3s)     0.00070       0.73221
 166    C 14  px     Val( 2p)     1.08070      -0.02487
 167    C 14  px     Ryd( 3p)     0.00501       1.05867
 168    C 14  py     Val( 2p)     1.19576      -0.06496
 169    C 14  py     Ryd( 3p)     0.00526       1.35114
 170    C 14  pz     Val( 2p)     0.99601      -0.12352
 171    C 14  pz     Ryd( 3p)     0.00036       0.93046

 172    C 15  s      Cor( 1s)     1.99987     -10.25508
 173    C 15  s      Val( 2s)     0.83497      -0.00946
 174    C 15  s      Ryd( 3s)     0.00096       0.75148
 175    C 15  px     Val( 2p)     1.08611      -0.03246
 176    C 15  px     Ryd( 3p)     0.00483       1.50815
 177    C 15  py     Val( 2p)     1.10545      -0.03861
 178    C 15  py     Ryd( 3p)     0.00548       1.46370
 179    C 15  pz     Val( 2p)     1.00621      -0.11972
 180    C 15  pz     Ryd( 3p)     0.00023       1.00014

 181    H 16  s      Val( 1s)     0.73270       0.14685
 182    H 16  s      Ryd( 2s)     0.00119       0.60941

 183    H 17  s      Val( 1s)     0.74503       0.13753
 184    H 17  s      Ryd( 2s)     0.00080       0.62990

 185    H 18  s      Val( 1s)     0.73365       0.14063
 186    H 18  s      Ryd( 2s)     0.00119       0.61202

 187    H 19  s      Val( 1s)     0.71172       0.12189
 188    H 19  s      Ryd( 2s)     0.00090       0.60435

 189    H 20  s      Val( 1s)     0.71172       0.12190
 190    H 20  s      Ryd( 2s)     0.00090       0.60434

 191    H 21  s      Val( 1s)     0.73661       0.13877
 192    H 21  s      Ryd( 2s)     0.00107       0.61388

 193    H 22  s      Val( 1s)     0.73572       0.14505
 194    H 22  s      Ryd( 2s)     0.00107       0.61106

 195    H 23  s      Val( 1s)     0.74546       0.13739
 196    H 23  s      Ryd( 2s)     0.00080       0.63033


 Summary of Natural Population Analysis:

                                     Natural Population
             Natural    ---------------------------------------------
  Atom No    Charge        Core      Valence    Rydberg      Total
 --------------------------------------------------------------------
   Br  1    0.06663     27.99877     6.91697    0.01764    34.93337
    C  2   -0.12022      1.99989     4.10446    0.01586     6.12022
    C  3   -0.25474      1.99986     4.24199    0.01289     6.25474
    C  4   -0.21438      1.99983     4.20330    0.01125     6.21438
    C  5   -0.04789      1.99987     4.03660    0.01143     6.04789
    C  6   -0.00051      1.99991     3.98956    0.01104     6.00051
    C  7   -0.24217      1.99984     4.22872    0.01361     6.24217
    C  8   -0.51643      1.99975     4.51059    0.00610     6.51643
    C  9   -0.00142      1.99991     3.99038    0.01114     6.00142
    C 10   -0.23914      1.99984     4.22525    0.01405     6.23914
    C 11   -0.22519      1.99987     4.20662    0.01871     6.22519
    I 12    0.16729     45.99932     6.81743    0.01595    52.83271
    C 13   -0.25162      1.99987     4.23836    0.01339     6.25162
    C 14   -0.21555      1.99983     4.20439    0.01133     6.21555
    C 15   -0.04413      1.99987     4.03275    0.01151     6.04413
    H 16    0.26611      0.00000     0.73270    0.00119     0.73389
    H 17    0.25417      0.00000     0.74503    0.00080     0.74583
    H 18    0.26516      0.00000     0.73365    0.00119     0.73484
    H 19    0.28738      0.00000     0.71172    0.00090     0.71262
    H 20    0.28738      0.00000     0.71172    0.00090     0.71262
    H 21    0.26232      0.00000     0.73661    0.00107     0.73768
    H 22    0.26321      0.00000     0.73572    0.00107     0.73679
    H 23    0.25374      0.00000     0.74546    0.00080     0.74626
 ====================================================================
 * Total *  0.00000     99.99622    73.79997    0.20381   174.00000

                                 Natural Population
 ---------------------------------------------------------
   Core                      99.99622 ( 99.9962% of  100)
   Valence                   73.79997 ( 99.7297% of   74)
   Natural Minimal Basis    173.79619 ( 99.8829% of  174)
   Natural Rydberg Basis      0.20381 (  0.1171% of  174)
 ---------------------------------------------------------

    Atom No         Natural Electron Configuration
 ----------------------------------------------------------------------------
     Br  1      [core]4s( 1.87)4p( 5.04)4d( 0.01)5p( 0.01)
      C  2      [core]2s( 0.93)2p( 3.17)3p( 0.02)
      C  3      [core]2s( 0.94)2p( 3.30)3p( 0.01)
      C  4      [core]2s( 0.93)2p( 3.27)3p( 0.01)
      C  5      [core]2s( 0.83)2p( 3.20)3p( 0.01)
      C  6      [core]2s( 0.84)2p( 3.15)3p( 0.01)
      C  7      [core]2s( 0.93)2p( 3.30)3p( 0.01)
      C  8      [core]2s( 1.02)2p( 3.49)3p( 0.01)
      C  9      [core]2s( 0.84)2p( 3.15)3p( 0.01)
      C 10      [core]2s( 0.93)2p( 3.30)3p( 0.01)
      C 11      [core]2s( 0.96)2p( 3.25)3p( 0.02)
      I 12      [core]5s( 1.89)5p( 4.93)5d( 0.01)6p( 0.01)
      C 13      [core]2s( 0.94)2p( 3.30)3p( 0.01)
      C 14      [core]2s( 0.93)2p( 3.27)3p( 0.01)
      C 15      [core]2s( 0.83)2p( 3.20)3p( 0.01)
      H 16            1s( 0.73)
      H 17            1s( 0.75)
      H 18            1s( 0.73)
      H 19            1s( 0.71)
      H 20            1s( 0.71)
      H 21            1s( 0.74)
      H 22            1s( 0.74)
      H 23            1s( 0.75)


 Wiberg bond index matrix in the NAO basis:

     Atom    1       2       3       4       5       6       7       8       9
     ---- ------  ------  ------  ------  ------  ------  ------  ------  ------
   1. Br  0.0000  1.0317  0.0343  0.0120  0.0114  0.0116  0.0342  0.0012  0.0015
   2.  C  1.0317  0.0000  1.4010  0.0143  0.0931  0.0145  1.3973  0.0069  0.0092
   3.  C  0.0343  1.4010  0.0000  1.4355  0.0120  0.1007  0.0149  0.0012  0.0003
   4.  C  0.0120  0.0143  1.4355  0.0000  1.3723  0.0137  0.1039  0.0053  0.0196
   5.  C  0.0114  0.0931  0.0120  1.3723  0.0000  1.3249  0.0130  0.0110  0.0114
   6.  C  0.0116  0.0145  0.1007  0.0137  1.3249  0.0000  1.4208  1.0083  0.0197
   7.  C  0.0342  1.3973  0.0149  0.1039  0.0130  1.4208  0.0000  0.0128  0.0046
   8.  C  0.0012  0.0069  0.0012  0.0053  0.0110  1.0083  0.0128  0.0000  1.0080
   9.  C  0.0015  0.0092  0.0003  0.0196  0.0114  0.0197  0.0046  1.0080  0.0000
  10.  C  0.0001  0.0004  0.0002  0.0002  0.0057  0.0047  0.0001  0.0127  1.4197
  11.  C  0.0010  0.0068  0.0002  0.0092  0.0003  0.0093  0.0004  0.0069  0.0143
  12.  I  0.0001  0.0009  0.0000  0.0012  0.0005  0.0013  0.0001  0.0014  0.0129
  13.  C  0.0000  0.0002  0.0001  0.0003  0.0074  0.0002  0.0002  0.0012  0.1012
  14.  C  0.0014  0.0091  0.0003  0.0144  0.0129  0.0196  0.0002  0.0053  0.0138
  15.  C  0.0004  0.0003  0.0075  0.0128  1.0618  0.0114  0.0057  0.0110  1.3253
  16.  H  0.0051  0.0044  0.9014  0.0050  0.0060  0.0002  0.0057  0.0002  0.0002
  17.  H  0.0009  0.0059  0.0047  0.9077  0.0044  0.0070  0.0001  0.0003  0.0001
  18.  H  0.0050  0.0045  0.0057  0.0001  0.0072  0.0054  0.8998  0.0025  0.0001
  19.  H  0.0000  0.0002  0.0029  0.0002  0.0081  0.0030  0.0052  0.8778  0.0030
  20.  H  0.0000  0.0002  0.0029  0.0002  0.0081  0.0030  0.0052  0.8778  0.0030
  21.  H  0.0000  0.0000  0.0000  0.0001  0.0002  0.0000  0.0000  0.0025  0.0051
  22.  H  0.0000  0.0000  0.0000  0.0000  0.0002  0.0002  0.0000  0.0002  0.0002
  23.  H  0.0000  0.0000  0.0001  0.0001  0.0020  0.0001  0.0000  0.0003  0.0070

     Atom   10      11      12      13      14      15      16      17      18
     ---- ------  ------  ------  ------  ------  ------  ------  ------  ------
   1. Br  0.0001  0.0010  0.0001  0.0000  0.0014  0.0004  0.0051  0.0009  0.0050
   2.  C  0.0004  0.0068  0.0009  0.0002  0.0091  0.0003  0.0044  0.0059  0.0045
   3.  C  0.0002  0.0002  0.0000  0.0001  0.0003  0.0075  0.9014  0.0047  0.0057
   4.  C  0.0002  0.0092  0.0012  0.0003  0.0144  0.0128  0.0050  0.9077  0.0001
   5.  C  0.0057  0.0003  0.0005  0.0074  0.0129  1.0618  0.0060  0.0044  0.0072
   6.  C  0.0047  0.0093  0.0013  0.0002  0.0196  0.0114  0.0002  0.0070  0.0054
   7.  C  0.0001  0.0004  0.0001  0.0002  0.0002  0.0057  0.0057  0.0001  0.8998
   8.  C  0.0127  0.0069  0.0014  0.0012  0.0053  0.0110  0.0002  0.0003  0.0025
   9.  C  1.4197  0.0143  0.0129  0.1012  0.0138  1.3253  0.0002  0.0001  0.0001
  10.  C  0.0000  1.4045  0.0264  0.0153  0.1042  0.0131  0.0000  0.0000  0.0000
  11.  C  1.4045  0.0000  0.9974  1.4088  0.0140  0.0944  0.0000  0.0000  0.0000
  12.  I  0.0264  0.9974  0.0000  0.0265  0.0134  0.0094  0.0000  0.0000  0.0000
  13.  C  0.0153  1.4088  0.0265  0.0000  1.4339  0.0120  0.0000  0.0001  0.0000
  14.  C  0.1042  0.0140  0.0134  1.4339  0.0000  1.3727  0.0000  0.0001  0.0001
  15.  C  0.0131  0.0944  0.0094  0.0120  1.3727  0.0000  0.0002  0.0020  0.0002
  16.  H  0.0000  0.0000  0.0000  0.0000  0.0000  0.0002  0.0000  0.0023  0.0003
  17.  H  0.0000  0.0000  0.0000  0.0001  0.0001  0.0020  0.0023  0.0000  0.0003
  18.  H  0.0000  0.0000  0.0000  0.0000  0.0001  0.0002  0.0003  0.0003  0.0000
  19.  H  0.0051  0.0002  0.0000  0.0030  0.0002  0.0081  0.0000  0.0001  0.0001
  20.  H  0.0051  0.0002  0.0000  0.0030  0.0002  0.0081  0.0000  0.0001  0.0001
  21.  H  0.9016  0.0049  0.0046  0.0058  0.0001  0.0071  0.0000  0.0000  0.0000
  22.  H  0.0058  0.0047  0.0046  0.9033  0.0047  0.0059  0.0000  0.0000  0.0000
  23.  H  0.0001  0.0059  0.0011  0.0046  0.9079  0.0044  0.0000  0.0004  0.0000

     Atom   19      20      21      22      23
     ---- ------  ------  ------  ------  ------
   1. Br  0.0000  0.0000  0.0000  0.0000  0.0000
   2.  C  0.0002  0.0002  0.0000  0.0000  0.0000
   3.  C  0.0029  0.0029  0.0000  0.0000  0.0001
   4.  C  0.0002  0.0002  0.0001  0.0000  0.0001
   5.  C  0.0081  0.0081  0.0002  0.0002  0.0020
   6.  C  0.0030  0.0030  0.0000  0.0002  0.0001
   7.  C  0.0052  0.0052  0.0000  0.0000  0.0000
   8.  C  0.8778  0.8778  0.0025  0.0002  0.0003
   9.  C  0.0030  0.0030  0.0051  0.0002  0.0070
  10.  C  0.0051  0.0051  0.9016  0.0058  0.0001
  11.  C  0.0002  0.0002  0.0049  0.0047  0.0059
  12.  I  0.0000  0.0000  0.0046  0.0046  0.0011
  13.  C  0.0030  0.0030  0.0058  0.9033  0.0046
  14.  C  0.0002  0.0002  0.0001  0.0047  0.9079
  15.  C  0.0081  0.0081  0.0071  0.0059  0.0044
  16.  H  0.0000  0.0000  0.0000  0.0000  0.0000
  17.  H  0.0001  0.0001  0.0000  0.0000  0.0004
  18.  H  0.0001  0.0001  0.0000  0.0000  0.0000
  19.  H  0.0000  0.0012  0.0001  0.0000  0.0001
  20.  H  0.0012  0.0000  0.0001  0.0000  0.0001
  21.  H  0.0001  0.0001  0.0000  0.0002  0.0003
  22.  H  0.0000  0.0000  0.0002  0.0000  0.0022
  23.  H  0.0001  0.0001  0.0003  0.0022  0.0000


 Wiberg bond index, Totals by atom:

     Atom    1
     ---- ------
   1. Br  1.1521
   2.  C  4.0009
   3.  C  3.9260
   4.  C  3.9283
   5.  C  3.9738
   6.  C  3.9798
   7.  C  3.9241
   8.  C  3.8547
   9.  C  3.9801
  10.  C  3.9251
  11.  C  3.9835
  12.  I  1.1020
  13.  C  3.9271
  14.  C  3.9288
  15.  C  3.9740
  16.  H  0.9309
  17.  H  0.9366
  18.  H  0.9314
  19.  H  0.9187
  20.  H  0.9187
  21.  H  0.9328
  22.  H  0.9323
  23.  H  0.9368


 NBI: Natural Binding Index (NCU strength parameters)

     Atom    1       2       3       4       5       6       7       8       9
     ---- ------  ------  ------  ------  ------  ------  ------  ------  ------
   1. Br  0.0000  1.0157  0.1853  0.1096  0.1067  0.1076  0.1849  0.0347  0.0383
   2.  C  1.0157  0.0000  1.1836  0.1195  0.3051  0.1205  1.1821  0.0831  0.0959
   3.  C  0.1853  1.1836  0.0000  1.1981  0.1095  0.3174  0.1223  0.0339  0.0158
   4.  C  0.1096  0.1195  1.1981  0.0000  1.1715  0.1171  0.3223  0.0729  0.1401
   5.  C  0.1067  0.3051  0.1095  1.1715  0.0000  1.1510  0.1139  0.1051  0.1068
   6.  C  0.1076  0.1205  0.3174  0.1171  1.1510  0.0000  1.1920  1.0041  0.1403
   7.  C  0.1849  1.1821  0.1223  0.3223  0.1139  1.1920  0.0000  0.1130  0.0676
   8.  C  0.0347  0.0831  0.0339  0.0729  0.1051  1.0041  0.1130  0.0000  1.0040
   9.  C  0.0383  0.0959  0.0158  0.1401  0.1068  0.1403  0.0676  1.0040  0.0000
  10.  C  0.0119  0.0211  0.0149  0.0141  0.0753  0.0683  0.0106  0.1126  1.1915
  11.  C  0.0324  0.0824  0.0153  0.0962  0.0182  0.0966  0.0198  0.0828  0.1197
  12.  I  0.0119  0.0297  0.0030  0.0343  0.0215  0.0365  0.0114  0.0372  0.1135
  13.  C  0.0030  0.0137  0.0102  0.0165  0.0863  0.0145  0.0146  0.0345  0.3181
  14.  C  0.0373  0.0955  0.0180  0.1199  0.1136  0.1401  0.0127  0.0730  0.1173
  15.  C  0.0209  0.0173  0.0864  0.1132  1.0304  0.1069  0.0752  0.1050  1.1512
  16.  H  0.0712  0.0662  0.9494  0.0705  0.0773  0.0146  0.0758  0.0134  0.0125
  17.  H  0.0306  0.0769  0.0683  0.9528  0.0661  0.0835  0.0101  0.0180  0.0112
  18.  H  0.0705  0.0671  0.0756  0.0122  0.0847  0.0735  0.9486  0.0502  0.0072
  19.  H  0.0065  0.0128  0.0541  0.0156  0.0900  0.0552  0.0718  0.9369  0.0551
  20.  H  0.0065  0.0128  0.0541  0.0156  0.0900  0.0552  0.0718  0.9369  0.0551
  21.  H  0.0021  0.0026  0.0048  0.0114  0.0141  0.0070  0.0047  0.0497  0.0716
  22.  H  0.0005  0.0016  0.0029  0.0038  0.0133  0.0125  0.0040  0.0138  0.0140
  23.  H  0.0027  0.0031  0.0094  0.0117  0.0445  0.0112  0.0051  0.0179  0.0836

     Atom   10      11      12      13      14      15      16      17      18
     ---- ------  ------  ------  ------  ------  ------  ------  ------  ------
   1. Br  0.0119  0.0324  0.0119  0.0030  0.0373  0.0209  0.0712  0.0306  0.0705
   2.  C  0.0211  0.0824  0.0297  0.0137  0.0955  0.0173  0.0662  0.0769  0.0671
   3.  C  0.0149  0.0153  0.0030  0.0102  0.0180  0.0864  0.9494  0.0683  0.0756
   4.  C  0.0141  0.0962  0.0343  0.0165  0.1199  0.1132  0.0705  0.9528  0.0122
   5.  C  0.0753  0.0182  0.0215  0.0863  0.1136  1.0304  0.0773  0.0661  0.0847
   6.  C  0.0683  0.0966  0.0365  0.0145  0.1401  0.1069  0.0146  0.0835  0.0735
   7.  C  0.0106  0.0198  0.0114  0.0146  0.0127  0.0752  0.0758  0.0101  0.9486
   8.  C  0.1126  0.0828  0.0372  0.0345  0.0730  0.1050  0.0134  0.0180  0.0502
   9.  C  1.1915  0.1197  0.1135  0.3181  0.1173  1.1512  0.0125  0.0112  0.0072
  10.  C  0.0000  1.1851  0.1625  0.1237  0.3228  0.1145  0.0041  0.0052  0.0048
  11.  C  1.1851  0.0000  0.9987  1.1869  0.1184  0.3073  0.0016  0.0034  0.0026
  12.  I  0.1625  0.9987  0.0000  0.1629  0.1158  0.0969  0.0006  0.0027  0.0024
  13.  C  0.1237  1.1869  0.1629  0.0000  1.1975  0.1097  0.0029  0.0094  0.0048
  14.  C  0.3228  0.1184  0.1158  1.1975  0.0000  1.1716  0.0038  0.0117  0.0114
  15.  C  0.1145  0.3073  0.0969  0.1097  1.1716  0.0000  0.0131  0.0445  0.0139
  16.  H  0.0041  0.0016  0.0006  0.0029  0.0038  0.0131  0.0000  0.0479  0.0173
  17.  H  0.0052  0.0034  0.0027  0.0094  0.0117  0.0445  0.0479  0.0000  0.0172
  18.  H  0.0048  0.0026  0.0024  0.0048  0.0114  0.0139  0.0173  0.0172  0.0000
  19.  H  0.0716  0.0127  0.0061  0.0543  0.0156  0.0902  0.0009  0.0092  0.0089
  20.  H  0.0716  0.0127  0.0061  0.0543  0.0156  0.0902  0.0009  0.0092  0.0089
  21.  H  0.9495  0.0697  0.0676  0.0759  0.0111  0.0844  0.0036  0.0037  0.0014
  22.  H  0.0760  0.0685  0.0680  0.9504  0.0687  0.0771  0.0004  0.0036  0.0036
  23.  H  0.0105  0.0766  0.0330  0.0682  0.9528  0.0660  0.0036  0.0203  0.0036

     Atom   19      20      21      22      23
     ---- ------  ------  ------  ------  ------
   1. Br  0.0065  0.0065  0.0021  0.0005  0.0027
   2.  C  0.0128  0.0128  0.0026  0.0016  0.0031
   3.  C  0.0541  0.0541  0.0048  0.0029  0.0094
   4.  C  0.0156  0.0156  0.0114  0.0038  0.0117
   5.  C  0.0900  0.0900  0.0141  0.0133  0.0445
   6.  C  0.0552  0.0552  0.0070  0.0125  0.0112
   7.  C  0.0718  0.0718  0.0047  0.0040  0.0051
   8.  C  0.9369  0.9369  0.0497  0.0138  0.0179
   9.  C  0.0551  0.0551  0.0716  0.0140  0.0836
  10.  C  0.0716  0.0716  0.9495  0.0760  0.0105
  11.  C  0.0127  0.0127  0.0697  0.0685  0.0766
  12.  I  0.0061  0.0061  0.0676  0.0680  0.0330
  13.  C  0.0543  0.0543  0.0759  0.9504  0.0682
  14.  C  0.0156  0.0156  0.0111  0.0687  0.9528
  15.  C  0.0902  0.0902  0.0844  0.0771  0.0660
  16.  H  0.0009  0.0009  0.0036  0.0004  0.0036
  17.  H  0.0092  0.0092  0.0037  0.0036  0.0203
  18.  H  0.0089  0.0089  0.0014  0.0036  0.0036
  19.  H  0.0000  0.0348  0.0089  0.0009  0.0092
  20.  H  0.0348  0.0000  0.0089  0.0009  0.0092
  21.  H  0.0089  0.0089  0.0000  0.0155  0.0177
  22.  H  0.0009  0.0009  0.0155  0.0000  0.0473
  23.  H  0.0092  0.0092  0.0177  0.0473  0.0000


 NATURAL BOND ORBITAL ANALYSIS:

                            Occupancies       Lewis Structure    Low   High
         Max    Occ     -------------------  -----------------   occ   occ
  Cycle  Ctr   Thresh    Lewis   non-Lewis     CR  BD  nC  LP    (L)   (NL)
 ============================================================================
    1     2     1.90   167.42718   6.57282     50  25   0  12     6      6
    2     2     1.68   168.64939   5.35061     50  27   0  10     4      6
    3     2     1.67   169.98912   4.01088     50  29   0   8     2      6
    4     2     1.66   169.98912   4.01088     50  29   0   8     2      6
    5     2     1.63   171.22406   2.77594     50  31   0   6     0      6
    6     2     1.60   171.22406   2.77594     50  31   0   6     0      6
    7     2     1.63   171.22406   2.77594     50  31   0   6     0      6
 ----------------------------------------------------------------------------

 Structure accepted: No low occupancy Lewis orbitals

 -------------------------------------------------------
   Core                     99.99622 ( 99.996% of 100)
   Valence Lewis            71.22784 ( 96.254% of  74)
  ==================      =============================
   Total Lewis             171.22406 ( 98.405% of 174)
  -----------------------------------------------------
   Valence non-Lewis         2.63525 (  1.515% of 174)
   Rydberg non-Lewis         0.14069 (  0.081% of 174)
  ==================      =============================
   Total non-Lewis           2.77594 (  1.595% of 174)
 -------------------------------------------------------


     (Occupancy)   Bond orbital / Coefficients / Hybrids
 ------------------ Lewis ------------------------------------------------------
   1. (2.00000) CR ( 1)Br  1            s(100.00%)
                                         1.0000  0.0000  0.0000  0.0000  0.0000
                                         0.0000  0.0000  0.0000  0.0000  0.0000
                                         0.0000  0.0000  0.0000  0.0000  0.0000
                                         0.0000  0.0000  0.0000  0.0000  0.0000
                                         0.0000  0.0000  0.0000  0.0000  0.0000
                                         0.0000  0.0000
   2. (2.00000) CR ( 2)Br  1            s(100.00%)
                                         0.0000  1.0000  0.0000  0.0000  0.0000
                                         0.0000  0.0000  0.0000  0.0000  0.0000
                                         0.0000  0.0000  0.0000  0.0000  0.0000
                                         0.0000  0.0000  0.0000  0.0000  0.0000
                                         0.0000  0.0000  0.0000  0.0000  0.0000
                                         0.0000  0.0000
   3. (1.99999) CR ( 3)Br  1            s(100.00%)
                                         0.0000  0.0000  1.0000  0.0000  0.0000
                                         0.0000  0.0000  0.0000  0.0000  0.0000
                                         0.0000  0.0000  0.0000  0.0000  0.0000
                                         0.0000  0.0000  0.0000  0.0000  0.0000
                                         0.0000  0.0000  0.0000  0.0000  0.0000
                                         0.0000  0.0000
   4. (2.00000) CR ( 4)Br  1            s(  0.00%)p 1.00(100.00%)
                                         0.0000  0.0000  0.0000  0.0000  0.0000
                                         1.0000  0.0000  0.0000  0.0000  0.0000
                                         0.0000  0.0000  0.0000  0.0000  0.0000
                                         0.0000  0.0000  0.0000  0.0000  0.0000
                                         0.0000  0.0000  0.0000  0.0000  0.0000
                                         0.0000  0.0000
   5. (1.99999) CR ( 5)Br  1            s(  0.00%)p 1.00(100.00%)
                                         0.0000  0.0000  0.0000  0.0000  0.0000
                                         0.0000  1.0000  0.0000  0.0000  0.0000
                                         0.0000  0.0000  0.0000  0.0000  0.0000
                                         0.0000  0.0000  0.0000  0.0000  0.0000
                                         0.0000  0.0000  0.0000  0.0000  0.0000
                                         0.0000  0.0000
   6. (2.00000) CR ( 6)Br  1            s(  0.00%)p 1.00(100.00%)
                                         0.0000  0.0000  0.0000  0.0000  0.0000
                                         0.0000  0.0000  0.0000  0.0000  1.0000
                                         0.0000  0.0000  0.0000  0.0000  0.0000
                                         0.0000  0.0000  0.0000  0.0000  0.0000
                                         0.0000  0.0000  0.0000  0.0000  0.0000
                                         0.0000  0.0000
   7. (1.99999) CR ( 7)Br  1            s(  0.00%)p 1.00(100.00%)
                                         0.0000  0.0000  0.0000  0.0000  0.0000
                                         0.0000  0.0000  0.0000  0.0000  0.0000
                                         1.0000  0.0000  0.0000  0.0000  0.0000
                                         0.0000  0.0000  0.0000  0.0000  0.0000
                                         0.0000  0.0000  0.0000  0.0000  0.0000
                                         0.0000  0.0000
   8. (2.00000) CR ( 8)Br  1            s(  0.00%)p 1.00(100.00%)
                                         0.0000  0.0000  0.0000  0.0000  0.0000
                                         0.0000  0.0000  0.0000  0.0000  0.0000
                                         0.0000  0.0000  0.0000  1.0000  0.0000
                                         0.0000  0.0000  0.0000  0.0000  0.0000
                                         0.0000  0.0000  0.0000  0.0000  0.0000
                                         0.0000  0.0000
   9. (2.00000) CR ( 9)Br  1            s(  0.00%)p 1.00(100.00%)
                                         0.0000  0.0000  0.0000  0.0000  0.0000
                                         0.0000  0.0000  0.0000  0.0000  0.0000
                                         0.0000  0.0000  0.0000  0.0000  1.0000
                                         0.0000  0.0000  0.0000  0.0000  0.0000
                                         0.0000  0.0000  0.0000  0.0000  0.0000
                                         0.0000  0.0000
  10. (1.99965) CR (10)Br  1            s(  0.00%)p 0.00(  0.00%)d 1.00(100.00%)
                                         0.0000  0.0000  0.0000  0.0000  0.0000
                                         0.0000  0.0000  0.0000  0.0000  0.0000
                                         0.0000  0.0000  0.0000  0.0000  0.0000
                                         0.0000  0.0000  1.0000  0.0000  0.0000
                                         0.0000  0.0000  0.0000  0.0000  0.0000
                                         0.0000  0.0000
  11. (1.99988) CR (11)Br  1            s(  0.00%)p 0.00(  0.00%)d 1.00(100.00%)
                                         0.0000  0.0000  0.0000  0.0000  0.0000
                                         0.0000  0.0000  0.0000  0.0000  0.0000
                                         0.0000  0.0000  0.0000  0.0000  0.0000
                                         0.0000  0.0000  0.0000  0.0000  1.0000
                                         0.0000  0.0000  0.0000  0.0000  0.0000
                                         0.0000  0.0000
  12. (1.99999) CR (12)Br  1            s(  0.00%)p 0.00(  0.00%)d 1.00(100.00%)
                                         0.0000  0.0000  0.0000  0.0000  0.0000
                                         0.0000  0.0000  0.0000  0.0000  0.0000
                                         0.0000  0.0000  0.0000  0.0000  0.0000
                                         0.0000  0.0000  0.0000  0.0000  0.0000
                                         0.0000  1.0000  0.0000  0.0000  0.0000
                                         0.0000  0.0000
  13. (1.99947) CR (13)Br  1            s(  0.00%)p 0.00(  0.00%)d 1.00(100.00%)
                                         0.0000  0.0000  0.0000  0.0000  0.0000
                                         0.0000  0.0000  0.0000  0.0000  0.0000
                                         0.0000  0.0000  0.0000  0.0000  0.0000
                                         0.0000  0.0000  0.0000  0.0000  0.0000
                                         0.0000  0.0000  0.0000  1.0000  0.0000
                                         0.0000  0.0000
  14. (1.99980) CR (14)Br  1            s(  0.00%)p 0.00(  0.00%)d 1.00(100.00%)
                                         0.0000  0.0000  0.0000  0.0000  0.0000
                                         0.0000  0.0000  0.0000  0.0000  0.0000
                                         0.0000  0.0000  0.0000  0.0000  0.0000
                                         0.0000  0.0000  0.0000  0.0000  0.0000
                                         0.0000  0.0000  0.0000  0.0000  0.0000
                                         1.0000  0.0000
  15. (1.99989) CR ( 1) C  2            s(100.00%)
                                         1.0000  0.0000  0.0000  0.0000  0.0000
                                         0.0000  0.0000  0.0000  0.0000
  16. (1.99986) CR ( 1) C  3            s(100.00%)
                                         1.0000  0.0000  0.0000  0.0000  0.0000
                                         0.0000  0.0000  0.0000  0.0000
  17. (1.99983) CR ( 1) C  4            s(100.00%)
[...]
                                                     114(g),112(g)
   85. BD ( 1) C 14- C 15       1.97434    -0.70189  108(g),98(g),114(g),178(v)
                                                     118(g),115(v),103(v),140(v)
                                                     156(v),157(v),141(v),177(v)
   86. BD ( 2) C 14- C 15       1.63353    -0.31504  113(v),107(v),95(v),180(v)
                                                     158(v)
   87. BD ( 1) C 14- H 23       1.98210    -0.58626  108(v),112(v),186(v),177(v)
                                                     116(g),114(g)
 ------ non-Lewis ----------------------------------
   88. BD*( 1)Br  1- C  2       0.02466     0.17465
   89. BD*( 1) C  2- C  3       0.02184     0.65728
   90. BD*( 2) C  2- C  3       0.39262     0.04744
   91. BD*( 1) C  2- C  7       0.02156     0.65515
   92. BD*( 1) C  3- C  4       0.01553     0.67949
   93. BD*( 1) C  3- H 16       0.01121     0.58446
   94. BD*( 1) C  4- C  5       0.02288     0.68557
   95. BD*( 2) C  4- C  5       0.37079     0.07048
   96. BD*( 1) C  4- H 17       0.01157     0.57951
   97. BD*( 1) C  5- C  6       0.02647     0.64649
   98. BD*( 1) C  5- C 15       0.02977     0.59606
   99. BD*( 1) C  6- C  7       0.02234     0.69518
  100. BD*( 2) C  6- C  7       0.32449     0.07362
  101. BD*( 1) C  6- C  8       0.01847     0.50569
  102. BD*( 1) C  7- H 18       0.01262     0.57723
  103. BD*( 1) C  8- C  9       0.01851     0.50566
  104. BD*( 1) C  8- H 19       0.01159     0.52749
  105. BD*( 1) C  8- H 20       0.01159     0.52751
  106. BD*( 1) C  9- C 10       0.02304     0.69439
  107. BD*( 2) C  9- C 10       0.32312     0.07388
  108. BD*( 1) C  9- C 15       0.02651     0.64734
  109. BD*( 1) C 10- C 11       0.01992     0.65842
  110. BD*( 1) C 10- H 21       0.01314     0.57607
  111. BD*( 1) C 11- I 12       0.02274     0.12287
  112. BD*( 1) C 11- C 13       0.02018     0.66063
  113. BD*( 2) C 11- C 13       0.38679     0.04890
  114. BD*( 1) C 13- C 14       0.01627     0.67856
  115. BD*( 1) C 13- H 22       0.01171     0.58343
  116. BD*( 1) C 14- C 15       0.02291     0.68635
  117. BD*( 2) C 14- C 15       0.36882     0.07103
  118. BD*( 1) C 14- H 23       0.01159     0.57934
  119. RY ( 1)Br  1             0.00201     0.68133
  120. RY ( 2)Br  1             0.00092     0.74641
  121. RY ( 3)Br  1             0.00059     1.12304
  122. RY ( 4)Br  1             0.00025     0.81872
  123. RY ( 5)Br  1             0.00010     0.93601
  124. RY ( 6)Br  1             0.00004     0.64770
  125. RY ( 7)Br  1             0.00003     0.67495
  126. RY ( 8)Br  1             0.00002     0.76582
  127. RY ( 9)Br  1             0.00001     0.71790
  128. RY ( 1) C  2             0.00647     1.09676
  129. RY ( 2) C  2             0.00516     1.36168
  130. RY ( 3) C  2             0.00080     0.94450
  131. RY ( 4) C  2             0.00036     0.71573
  132. RY ( 1) C  3             0.00534     1.34751
  133. RY ( 2) C  3             0.00342     1.02446
  134. RY ( 3) C  3             0.00044     0.72324
  135. RY ( 4) C  3             0.00035     0.92884
  136. RY ( 1) C  4             0.00438     1.40246
  137. RY ( 2) C  4             0.00344     0.99289
  138. RY ( 3) C  4             0.00031     0.73531
  139. RY ( 4) C  4             0.00024     0.93110
  140. RY ( 1) C  5             0.00491     1.44399
  141. RY ( 2) C  5             0.00447     1.52157
  142. RY ( 3) C  5             0.00074     0.75899
  143. RY ( 4) C  5             0.00024     1.00019
  144. RY ( 1) C  6             0.00426     1.54979
  145. RY ( 2) C  6             0.00342     1.29401
  146. RY ( 3) C  6             0.00102     0.99487
  147. RY ( 4) C  6             0.00067     0.77296
  148. RY ( 1) C  7             0.00557     1.32071
  149. RY ( 2) C  7             0.00375     1.02365
  150. RY ( 3) C  7             0.00058     0.72226
  151. RY ( 4) C  7             0.00028     0.93102
  152. RY ( 1) C  8             0.00216     0.94815
  153. RY ( 2) C  8             0.00194     0.93526
  154. RY ( 3) C  8             0.00041     1.19611
  155. RY ( 4) C  8             0.00023     1.09123
  156. RY ( 1) C  9             0.00436     1.54480
  157. RY ( 2) C  9             0.00342     1.29649
  158. RY ( 3) C  9             0.00102     0.99528
  159. RY ( 4) C  9             0.00068     0.77341
  160. RY ( 1) C 10             0.00595     1.32088
  161. RY ( 2) C 10             0.00376     1.00132
  162. RY ( 3) C 10             0.00060     0.72119
  163. RY ( 4) C 10             0.00028     0.92997
  164. RY ( 1) C 11             0.00572     1.05052
  165. RY ( 2) C 11             0.00454     1.27541
  166. RY ( 3) C 11             0.00063     0.93790
  167. RY ( 4) C 11             0.00030     0.75017
  168. RY ( 1) I 12             0.00177     0.67050
  169. RY ( 2) I 12             0.00069     0.62496
  170. RY ( 3) I 12             0.00045     0.58584
  171. RY ( 4) I 12             0.00021     1.10555
  172. RY ( 5) I 12             0.00004     0.72064
  173. RY ( 6) I 12             0.00003     0.70862
  174. RY ( 7) I 12             0.00003     0.65429
  175. RY ( 8) I 12             0.00001     0.55219
  176. RY ( 9) I 12             0.00001     0.53267
  177. RY ( 1) C 13             0.00578     1.33944
  178. RY ( 2) C 13             0.00343     1.00923
  179. RY ( 3) C 13             0.00046     0.72234
  180. RY ( 4) C 13             0.00036     0.92771
  181. RY ( 1) C 14             0.00444     1.40272
  182. RY ( 2) C 14             0.00344     0.99260
  183. RY ( 3) C 14             0.00032     0.73470
  184. RY ( 4) C 14             0.00025     0.93149
  185. RY ( 1) C 15             0.00493     1.43999
  186. RY ( 2) C 15             0.00452     1.52298
  187. RY ( 3) C 15             0.00075     0.75902
  188. RY ( 4) C 15             0.00023     0.99987
  189. RY ( 1) H 16             0.00119     0.60799
  190. RY ( 1) H 17             0.00080     0.62878
  191. RY ( 1) H 18             0.00119     0.61051
  192. RY ( 1) H 19             0.00090     0.60359
  193. RY ( 1) H 20             0.00090     0.60358
  194. RY ( 1) H 21             0.00108     0.61231
  195. RY ( 1) H 22             0.00107     0.60960
  196. RY ( 1) H 23             0.00080     0.62922
          -------------------------------
                 Total Lewis  171.22406  ( 98.4046%)
           Valence non-Lewis    2.63525  (  1.5145%)
           Rydberg non-Lewis    0.14069  (  0.0809%)
          -------------------------------
               Total unit  1  174.00000  (100.0000%)
              Charge unit  1    0.00000

 $CHOOSE
   LONE 1 3 12 3 END
   BOND S 1 2 D 2 3 S 2 7 S 3 4 S 3 16 D 4 5 S 4 17 S 5 6 S 5 15 D 6 7 S 6 8
        S 7 18 S 8 9 S 8 19 S 8 20 D 9 10 S 9 15 S 10 11 S 10 21 S 11 12
        D 11 13 S 13 14 S 13 22 D 14 15 S 14 23 END
 $END


 Checkpoint NBOs sorted by occupancy:

  Sort    Occ       Energy   Orig   Label
 -----------------------------------------------------------
    1.  2.00000   -19.49675    1.   CR ( 1)Br  1
    2.  2.00000  -452.29973    2.   CR ( 2)Br  1
    3.  2.00000    -7.18468    4.   CR ( 4)Br  1
    4.  2.00000    -7.17126    6.   CR ( 6)Br  1
    5.  2.00000    -7.17076    8.   CR ( 8)Br  1
    6.  2.00000   -55.65687    9.   CR ( 9)Br  1
    7.  2.00000  -347.03720   25.   CR ( 1) I 12
    8.  2.00000  -818.19532   26.   CR ( 2) I 12
    9.  2.00000   -81.26105   27.   CR ( 3) I 12
   10.  2.00000  -102.07204   30.   CR ( 6) I 12
   11.  2.00000    -8.54379   29.   CR ( 5) I 12
   12.  2.00000    -8.53022   32.   CR ( 8) I 12
   13.  2.00000  -102.06798   33.   CR ( 9) I 12
   14.  2.00000    -8.52968   35.   CR (11) I 12
   15.  2.00000  -102.06786   36.   CR (12) I 12
   16.  2.00000   -89.91507   37.   CR (13) I 12
   17.  2.00000   -16.85215   40.   CR (16) I 12
   18.  2.00000   -16.84721   42.   CR (18) I 12
   19.  2.00000   -89.91515   34.   CR (10) I 12
   20.  2.00000   -16.85229   38.   CR (14) I 12
   21.  1.99999   -55.65703    7.   CR ( 7)Br  1
   22.  1.99999  -131.10236   28.   CR ( 4) I 12
   23.  2.00000    -8.32041   43.   CR (19) I 12
   24.  2.00000   -16.84879   46.   CR (22) I 12
   25.  1.99999   -79.82359    3.   CR ( 3)Br  1
   26.  1.99999    -2.76199   12.   CR (12)Br  1
   27.  1.99999   -89.91758   31.   CR ( 7) I 12
   28.  1.99999   -16.85229   44.   CR (20) I 12
   29.  1.99999   -55.66037    5.   CR ( 5)Br  1
   30.  1.99994    -8.33052   41.   CR (17) I 12
   31.  1.99991   -10.25804   19.   CR ( 1) C  6
   32.  1.99991   -10.25727   22.   CR ( 1) C  9
   33.  1.99989   -10.29706   15.   CR ( 1) C  2
   34.  1.99989    -8.32376   47.   CR (23) I 12
   35.  1.99988    -2.77251   11.   CR (11)Br  1
   36.  1.99987   -10.25479   18.   CR ( 1) C  5
   37.  1.99987   -10.25508   50.   CR ( 1) C 15
   38.  1.99987   -10.28843   24.   CR ( 1) C 11
   39.  1.99987   -10.24988   48.   CR ( 1) C 13
   40.  1.99986   -10.24959   16.   CR ( 1) C  3
   41.  1.99984   -10.25209   23.   CR ( 1) C 10
   42.  1.99984   -10.25183   20.   CR ( 1) C  7
   43.  1.99983    -8.33103   39.   CR (15) I 12
   44.  1.99983   -10.24985   49.   CR ( 1) C 14
   45.  1.99983   -10.25060   17.   CR ( 1) C  4
   46.  1.99980    -2.76543   14.   CR (14)Br  1
   47.  1.99975   -10.25323   21.   CR ( 1) C  8
   48.  1.99970    -8.33112   45.   CR (21) I 12
   49.  1.99965    -2.77286   10.   CR (10)Br  1
   50.  1.99947    -2.77302   13.   CR (13)Br  1
   51.  1.99824    -0.66719   54.   LP ( 1) I 12
   52.  1.99735    -0.76003   51.   LP ( 1)Br  1
   53.  1.98723    -0.62766   57.   BD ( 1)Br  1- C  2
   54.  1.98708    -0.33564   55.   LP ( 2) I 12
   55.  1.98302    -0.55917   80.   BD ( 1) C 11- I 12
   56.  1.98278    -0.58448   84.   BD ( 1) C 13- H 22
   57.  1.98265    -0.36287   52.   LP ( 2)Br  1
   58.  1.98224    -0.58770   79.   BD ( 1) C 10- H 21
   59.  1.98215    -0.58668   65.   BD ( 1) C  4- H 17
   60.  1.98210    -0.58626   87.   BD ( 1) C 14- H 23
   61.  1.98153    -0.58385   62.   BD ( 1) C  3- H 16
   62.  1.98102    -0.58712   71.   BD ( 1) C  7- H 18
   63.  1.98023    -0.72637   58.   BD ( 1) C  2- C  3
   64.  1.98005    -0.72434   81.   BD ( 1) C 11- C 13
   65.  1.97886    -0.72420   60.   BD ( 1) C  2- C  7
   66.  1.97867    -0.72224   78.   BD ( 1) C 10- C 11
   67.  1.97579    -0.64255   70.   BD ( 1) C  6- C  8
   68.  1.97574    -0.64221   72.   BD ( 1) C  8- C  9
   69.  1.97434    -0.70189   85.   BD ( 1) C 14- C 15
   70.  1.97433    -0.70192   63.   BD ( 1) C  4- C  5
   71.  1.97286    -0.70257   61.   BD ( 1) C  3- C  4
   72.  1.97282    -0.70192   83.   BD ( 1) C 13- C 14
   73.  1.97018    -0.70926   68.   BD ( 1) C  6- C  7
   74.  1.97014    -0.70866   75.   BD ( 1) C  9- C 10
   75.  1.96873    -0.66214   67.   BD ( 1) C  5- C 15
   76.  1.96543    -0.67986   66.   BD ( 1) C  5- C  6
   77.  1.96542    -0.67986   77.   BD ( 1) C  9- C 15
   78.  1.96408    -0.57269   74.   BD ( 1) C  8- H 20
   79.  1.96408    -0.57269   73.   BD ( 1) C  8- H 19
   80.  1.95938    -0.33142   56.   LP ( 3) I 12
   81.  1.94606    -0.35805   53.   LP ( 3)Br  1
   82.  1.68436    -0.33346   82.   BD ( 2) C 11- C 13
   83.  1.68145    -0.33453   59.   BD ( 2) C  2- C  3
   84.  1.66553    -0.32328   69.   BD ( 2) C  6- C  7
   85.  1.66342    -0.32267   76.   BD ( 2) C  9- C 10
   86.  1.63497    -0.31531   64.   BD ( 2) C  4- C  5
   87.  1.63353    -0.31504   86.   BD ( 2) C 14- C 15
   88.  0.39262     0.04744   90.   BD*( 2) C  2- C  3
   89.  0.38679     0.04890  113.   BD*( 2) C 11- C 13
   90.  0.37079     0.07048   95.   BD*( 2) C  4- C  5
   91.  0.36882     0.07103  117.   BD*( 2) C 14- C 15
   92.  0.32449     0.07362  100.   BD*( 2) C  6- C  7
   93.  0.32312     0.07388  107.   BD*( 2) C  9- C 10
   94.  0.02977     0.59606   98.   BD*( 1) C  5- C 15
   95.  0.02651     0.64734  108.   BD*( 1) C  9- C 15
   96.  0.02647     0.64649   97.   BD*( 1) C  5- C  6
   97.  0.02466     0.17465   88.   BD*( 1)Br  1- C  2
   98.  0.02304     0.69439  106.   BD*( 1) C  9- C 10
   99.  0.02291     0.68635  116.   BD*( 1) C 14- C 15
  100.  0.02288     0.68557   94.   BD*( 1) C  4- C  5
  101.  0.02274     0.12287  111.   BD*( 1) C 11- I 12
  102.  0.02234     0.69518   99.   BD*( 1) C  6- C  7
  103.  0.02184     0.65728   89.   BD*( 1) C  2- C  3
  104.  0.02156     0.65515   91.   BD*( 1) C  2- C  7
  105.  0.02018     0.66063  112.   BD*( 1) C 11- C 13
  106.  0.01992     0.65842  109.   BD*( 1) C 10- C 11
  107.  0.01851     0.50566  103.   BD*( 1) C  8- C  9
  108.  0.01847     0.50569  101.   BD*( 1) C  6- C  8
  109.  0.01627     0.67856  114.   BD*( 1) C 13- C 14
  110.  0.01553     0.67949   92.   BD*( 1) C  3- C  4
  111.  0.01314     0.57607  110.   BD*( 1) C 10- H 21
  112.  0.01262     0.57723  102.   BD*( 1) C  7- H 18
  113.  0.01171     0.58343  115.   BD*( 1) C 13- H 22
  114.  0.01159     0.57934  118.   BD*( 1) C 14- H 23
  115.  0.01159     0.52749  104.   BD*( 1) C  8- H 19
  116.  0.01159     0.52751  105.   BD*( 1) C  8- H 20
  117.  0.01157     0.57951   96.   BD*( 1) C  4- H 17
  118.  0.01121     0.58446   93.   BD*( 1) C  3- H 16
  119.  0.00647     1.09676  128.   RY ( 1) C  2
  120.  0.00595     1.32088  160.   RY ( 1) C 10
  121.  0.00578     1.33944  177.   RY ( 1) C 13
  122.  0.00572     1.05052  164.   RY ( 1) C 11
  123.  0.00557     1.32071  148.   RY ( 1) C  7
  124.  0.00534     1.34751  132.   RY ( 1) C  3
  125.  0.00516     1.36168  129.   RY ( 2) C  2
  126.  0.00493     1.43999  185.   RY ( 1) C 15
  127.  0.00491     1.44399  140.   RY ( 1) C  5
  128.  0.00454     1.27541  165.   RY ( 2) C 11
  129.  0.00452     1.52298  186.   RY ( 2) C 15
  130.  0.00447     1.52157  141.   RY ( 2) C  5
  131.  0.00444     1.40272  181.   RY ( 1) C 14
  132.  0.00438     1.40246  136.   RY ( 1) C  4
  133.  0.00436     1.54480  156.   RY ( 1) C  9
  134.  0.00426     1.54979  144.   RY ( 1) C  6
  135.  0.00376     1.00132  161.   RY ( 2) C 10
  136.  0.00375     1.02365  149.   RY ( 2) C  7
  137.  0.00344     0.99260  182.   RY ( 2) C 14
  138.  0.00344     0.99289  137.   RY ( 2) C  4
  139.  0.00343     1.00923  178.   RY ( 2) C 13
  140.  0.00342     1.29649  157.   RY ( 2) C  9
  141.  0.00342     1.02446  133.   RY ( 2) C  3
  142.  0.00342     1.29401  145.   RY ( 2) C  6
  143.  0.00216     0.94815  152.   RY ( 1) C  8
  144.  0.00201     0.68133  119.   RY ( 1)Br  1
  145.  0.00194     0.93526  153.   RY ( 2) C  8
  146.  0.00177     0.67050  168.   RY ( 1) I 12
  147.  0.00119     0.60799  189.   RY ( 1) H 16
  148.  0.00119     0.61051  191.   RY ( 1) H 18
  149.  0.00108     0.61231  194.   RY ( 1) H 21
  150.  0.00107     0.60960  195.   RY ( 1) H 22
  151.  0.00102     0.99528  158.   RY ( 3) C  9
  152.  0.00102     0.99487  146.   RY ( 3) C  6
  153.  0.00092     0.74641  120.   RY ( 2)Br  1
  154.  0.00090     0.60359  192.   RY ( 1) H 19
  155.  0.00090     0.60358  193.   RY ( 1) H 20
  156.  0.00080     0.94450  130.   RY ( 3) C  2
  157.  0.00080     0.62922  196.   RY ( 1) H 23
  158.  0.00080     0.62878  190.   RY ( 1) H 17
  159.  0.00075     0.75902  187.   RY ( 3) C 15
  160.  0.00074     0.75899  142.   RY ( 3) C  5
  161.  0.00069     0.62496  169.   RY ( 2) I 12
  162.  0.00068     0.77341  159.   RY ( 4) C  9
  163.  0.00067     0.77296  147.   RY ( 4) C  6
  164.  0.00063     0.93790  166.   RY ( 3) C 11
  165.  0.00060     0.72119  162.   RY ( 3) C 10
  166.  0.00059     1.12304  121.   RY ( 3)Br  1
  167.  0.00058     0.72226  150.   RY ( 3) C  7
  168.  0.00046     0.72234  179.   RY ( 3) C 13
  169.  0.00045     0.58584  170.   RY ( 3) I 12
  170.  0.00044     0.72324  134.   RY ( 3) C  3
  171.  0.00041     1.19611  154.   RY ( 3) C  8
  172.  0.00036     0.71573  131.   RY ( 4) C  2
  173.  0.00036     0.92771  180.   RY ( 4) C 13
  174.  0.00035     0.92884  135.   RY ( 4) C  3
  175.  0.00032     0.73470  183.   RY ( 3) C 14
  176.  0.00031     0.73531  138.   RY ( 3) C  4
  177.  0.00030     0.75017  167.   RY ( 4) C 11
  178.  0.00028     0.92997  163.   RY ( 4) C 10
  179.  0.00028     0.93102  151.   RY ( 4) C  7
  180.  0.00025     0.81872  122.   RY ( 4)Br  1
  181.  0.00025     0.93149  184.   RY ( 4) C 14
  182.  0.00024     0.93110  139.   RY ( 4) C  4
  183.  0.00024     1.00019  143.   RY ( 4) C  5
  184.  0.00023     1.09123  155.   RY ( 4) C  8
  185.  0.00023     0.99987  188.   RY ( 4) C 15
  186.  0.00021     1.10555  171.   RY ( 4) I 12
  187.  0.00010     0.93601  123.   RY ( 5)Br  1
  188.  0.00004     0.64770  124.   RY ( 6)Br  1
  189.  0.00004     0.72064  172.   RY ( 5) I 12
  190.  0.00003     0.70862  173.   RY ( 6) I 12
  191.  0.00003     0.65429  174.   RY ( 7) I 12
  192.  0.00003     0.67495  125.   RY ( 7)Br  1
  193.  0.00002     0.76582  126.   RY ( 8)Br  1
  194.  0.00001     0.55219  175.   RY ( 8) I 12
  195.  0.00001     0.71790  127.   RY ( 9)Br  1
  196.  0.00001     0.53267  176.   RY ( 9) I 12

 NBO analysis completed in 0.76 CPU seconds (1 wall second)
 Maximum scratch memory used by NBO was 908234 words (6.93 MB)
 Maximum scratch memory used by G16NBO was 67429 words (0.51 MB)

 Opening RunExU unformatted file "/home/rpaton/opt/xtb/Gau-1512561.EUF"
 Read unf file /home/rpaton/opt/xtb/Gau-1512561.EUF:
 Label Gaussian matrix elements                                         IVers= 2 NLab= 2 Version=ES64L-G16RevC.01
 Title energy: -39.823789709276 gnorm: 0.000181017279 xtb: 6.7.0 (08769
 NAtoms=    23 NBasis=   196 NBsUse=   196 ICharg=     0 Multip=     1 NE=   174 Len12L=8 Len4L=8 IOpCl= 0 ICGU=111
 GAUSSIAN SCALARS                    NI= 1 NR= 1 NTot=       1 LenBuf=    2 NRI=1 N=    1000
 ALPHA ORBITAL ENERGIES              NI= 0 NR= 1 NTot=     196 LenBuf= 2048 NRI=1 N=     196
 ALPHA MO COEFFICIENTS               NI= 0 NR= 1 NTot=   38416 LenBuf= 2048 NRI=1 N=     196     196
 Store file  10524 Len=   38416.
 NPA CHARGES                         NI= 0 NR= 1 NTot=      23 LenBuf= 2048 NRI=1 N=      23
 Recovered energy= -9949.43316853     dipole=      0.009620284052      0.005023015202      0.000002528795
 Unable to Open any file for archive entry.
 1\1\GINC-DYNAMO\SP\RwB97XD\MIDIx\C13H8Br1I1\RPATON\26-Sep-2024\0\\# wb
 97xd midix pop(nbo6read,savenbos,hirshfeld)\\energy: -39.823789709276 
 gnorm: 0.000181017279 xtb: 6.7.0 (08769fc)\\0,1\Br,0,5.88606,-0.30481,
 -0.00001\C,0,4.02111,0.09351,0.00001\C,0,3.61829,1.42065,0.\C,0,2.2694
 ,1.73034,0.\C,0,1.34512,0.69696,0.00001\C,0,1.77031,-0.64201,0.00001\C
 ,0,3.11223,-0.95571,0.00001\C,0,0.58844,-1.56599,0.00002\C,0,-0.56795,
 -0.61006,0.00002\C,0,-1.91821,-0.88745,0.00002\C,0,-2.80081,0.18231,0.
 \I,0,-4.88315,-0.20732,0.00001\C,0,-2.36107,1.49641,0.\C,0,-1.00438,1.
 7722,0.00001\C,0,-0.10656,0.71629,0.00001\H,0,4.35944,2.20495,-0.00001
 \H,0,1.95033,2.76111,0.\H,0,3.45367,-1.97967,0.00001\H,0,0.57984,-2.21
 281,0.88056\H,0,0.57984,-2.21283,-0.88049\H,0,-2.27875,-1.90489,0.0000
 2\H,0,-3.07569,2.30493,0.\H,0,-0.65996,2.79492,0.\\Version=ES64L-G16Re
 vC.01\State=1-A\HF=-9949.4331685\RMSD=6.099e-09\Dipole=0.0096188,0.005
 0259,0.0000025\Quadrupole=-6.7012173,10.0816203,-3.3804029,0.3879625,-
 0.0000563,-0.0000617\PG=C01 [X(C13H8Br1I1)]\\@
 The archive entry for this job was punched.


 THE CHYMISTS ARE A STRANGE CLASS OF MORTALS IMPELLED
 BY AN ALMOST INSANE IMPULSE TO SEEK THEIR PLEASURE
 AMONG SMOKE AND VAPOR, SOOT AND FLAME, POISONS AND
 POVERTY; YET AMONG ALL THESE EVILS I SEEM TO LIVE
 SO SWEETLY, THAT I MAY DIE IF I WOULD CHANGE PLACES
 WITH THE PERSIAN KING.
   --  JOHANN JOACHIM BECHER, 1635-1682
 ACTA LABORATORII CHYMICA MONACENSIS, 1669
 Job cpu time:       0 days  0 hours  4 minutes 41.2 seconds.
 Elapsed time:       0 days  0 hours  0 minutes 12.0 seconds.
 File lengths (MBytes):  RWF=     24 Int=      0 D2E=      0 Chk=      3 Scr=      1
 Normal termination of Gaussian 16 at Thu Sep 26 14:40:46 2024.
