 Entering Gaussian System, Link 0=/usr/local/Gaussian/G16C/g16/g16
 Input=popn/arbr31_xtbopt_popn.com
 Output=popn/arbr31_xtbopt_popn.log
 Initial command:
 /usr/local/Gaussian/G16C/g16/l1.exe "/home/rpaton/opt/xtb/Gau-1507364.inp" -scrdir="/home/rpaton/opt/xtb/"
 Entering Link 1 = /usr/local/Gaussian/G16C/g16/l1.exe PID=   1507365.
  
 Copyright (c) 1988-2019, Gaussian, Inc.  All Rights Reserved.
  
 This is part of the Gaussian(R) 16 program.  It is based on
 the Gaussian(R) 09 system (copyright 2009, Gaussian, Inc.),
 the Gaussian(R) 03 system (copyright 2003, Gaussian, Inc.),
 the Gaussian(R) 98 system (copyright 1998, Gaussian, Inc.),
 the Gaussian(R) 94 system (copyright 1995, Gaussian, Inc.),
 the Gaussian 92(TM) system (copyright 1992, Gaussian, Inc.),
 the Gaussian 90(TM) system (copyright 1990, Gaussian, Inc.),
 the Gaussian 88(TM) system (copyright 1988, Gaussian, Inc.),
 the Gaussian 86(TM) system (copyright 1986, Carnegie Mellon
 University), and the Gaussian 82(TM) system (copyright 1983,
 Carnegie Mellon University). Gaussian is a federally registered
 trademark of Gaussian, Inc.
  
 This software contains proprietary and confidential information,
 including trade secrets, belonging to Gaussian, Inc.
  
 This software is provided under written license and may be
 used, copied, transmitted, or stored only in accord with that
 written license.
  
 The following legend is applicable only to US Government
 contracts under FAR:
  
                    RESTRICTED RIGHTS LEGEND
  
 Use, reproduction and disclosure by the US Government is
 subject to restrictions as set forth in subparagraphs (a)
 and (c) of the Commercial Computer Software - Restricted
 Rights clause in FAR 52.227-19.
  
 Gaussian, Inc.
 340 Quinnipiac St., Bldg. 40, Wallingford CT 06492
  
  
 ---------------------------------------------------------------
 Warning -- This program may not be used in any manner that
 competes with the business of Gaussian, Inc. or will provide
 assistance to any competitor of Gaussian, Inc.  The licensee
 of this program is prohibited from giving any competitor of
 Gaussian, Inc. access to this program.  By using this program,
 the user acknowledges that Gaussian, Inc. is engaged in the
 business of creating and licensing software in the field of
 computational chemistry and represents and warrants to the
 licensee that it is not a competitor of Gaussian, Inc. and that
 it will not use this program in any manner prohibited above.
 ---------------------------------------------------------------
  

 Cite this work as:
 Gaussian 16, Revision C.01,
 M. J. Frisch, G. W. Trucks, H. B. Schlegel, G. E. Scuseria, 
 M. A. Robb, J. R. Cheeseman, G. Scalmani, V. Barone, 
 G. A. Petersson, H. Nakatsuji, X. Li, M. Caricato, A. V. Marenich, 
 J. Bloino, B. G. Janesko, R. Gomperts, B. Mennucci, H. P. Hratchian, 
 J. V. Ortiz, A. F. Izmaylov, J. L. Sonnenberg, D. Williams-Young, 
 F. Ding, F. Lipparini, F. Egidi, J. Goings, B. Peng, A. Petrone, 
 T. Henderson, D. Ranasinghe, V. G. Zakrzewski, J. Gao, N. Rega, 
 G. Zheng, W. Liang, M. Hada, M. Ehara, K. Toyota, R. Fukuda, 
 J. Hasegawa, M. Ishida, T. Nakajima, Y. Honda, O. Kitao, H. Nakai, 
 T. Vreven, K. Throssell, J. A. Montgomery, Jr., J. E. Peralta, 
 F. Ogliaro, M. J. Bearpark, J. J. Heyd, E. N. Brothers, K. N. Kudin, 
 V. N. Staroverov, T. A. Keith, R. Kobayashi, J. Normand, 
 K. Raghavachari, A. P. Rendell, J. C. Burant, S. S. Iyengar, 
 J. Tomasi, M. Cossi, J. M. Millam, M. Klene, C. Adamo, R. Cammi, 
 J. W. Ochterski, R. L. Martin, K. Morokuma, O. Farkas, 
 J. B. Foresman, and D. J. Fox, Gaussian, Inc., Wallingford CT, 2019.
 
 ******************************************
 Gaussian 16:  ES64L-G16RevC.01  3-Jul-2019
                26-Sep-2024 
 ******************************************
 %nprocshared=24
 Will use up to   24 processors via shared memory.
 -----------------------------------------------
 # wb97xd midix pop(nbo6read,savenbos,hirshfeld)
 -----------------------------------------------
 1/38=1,163=2,172=1/1;
 2/12=2,17=6,18=5,40=1/2;
 3/5=20,11=2,25=1,30=1,74=-58/1,2,3;
 4//1;
 5/5=2,38=5/2;
 6/7=2,8=2,9=2,10=2,28=1,40=2,73=1,79=1,113=1,114=1,124=2103,126=1/1,12;
 99/5=1,9=1/99;
 -------------------------------------------------------------------
 energy: -30.989950010930 gnorm: 0.000723798473 xtb: 6.7.0 (08769fc)
 -------------------------------------------------------------------
 Symbolic Z-matrix:
 Charge =  0 Multiplicity = 1
 O                     3.85811   1.38238  -0.00002 
 C                     3.09515   0.44898   0. 
 C                     3.48339  -1.02297   0.00002 
 C                     2.178    -1.82757   0.00001 
 C                     1.09612  -0.79216   0. 
 C                    -0.27164  -0.98596   0. 
 C                    -1.08494   0.13838   0. 
 Br                   -2.97418  -0.0986    0. 
 C                    -0.57164   1.42978  -0.00001 
 C                     0.79818   1.61616  -0.00001 
 C                     1.62354   0.49974   0. 
 H                     4.09878  -1.22582  -0.87719 
 H                     4.09875  -1.22579   0.87727 
 H                     2.09412  -2.46894   0.8795 
 H                     2.09413  -2.46893  -0.87949 
 H                    -0.70195  -1.97592   0.00001 
 H                    -1.24383   2.27388  -0.00002 
 H                     1.22778   2.606    -0.00002 
 
                          Input orientation:                          
 ---------------------------------------------------------------------
 Center     Atomic      Atomic             Coordinates (Angstroms)
 Number     Number       Type             X           Y           Z
 ---------------------------------------------------------------------
      1          8           0        3.858110    1.382380   -0.000020
      2          6           0        3.095150    0.448980    0.000000
      3          6           0        3.483390   -1.022970    0.000020
      4          6           0        2.178000   -1.827570    0.000010
      5          6           0        1.096120   -0.792160    0.000000
      6          6           0       -0.271640   -0.985960    0.000000
      7          6           0       -1.084940    0.138380    0.000000
      8         35           0       -2.974180   -0.098600    0.000000
      9          6           0       -0.571640    1.429780   -0.000010
     10          6           0        0.798180    1.616160   -0.000010
     11          6           0        1.623540    0.499740    0.000000
     12          1           0        4.098780   -1.225820   -0.877190
     13          1           0        4.098750   -1.225790    0.877270
     14          1           0        2.094120   -2.468940    0.879500
     15          1           0        2.094130   -2.468930   -0.879490
     16          1           0       -0.701950   -1.975920    0.000010
     17          1           0       -1.243830    2.273880   -0.000020
     18          1           0        1.227780    2.606000   -0.000020
 ---------------------------------------------------------------------
                    Distance matrix (angstroms):
                    1          2          3          4          5
     1  O    0.000000
     2  C    1.205547   0.000000
     3  C    2.434363   1.522290   0.000000
     4  C    3.623058   2.454352   1.533435   0.000000
     5  C    3.515283   2.352987   2.398402   1.497511   0.000000
     6  C    4.760659   3.659826   3.755212   2.590182   1.381422
     7  C    5.097183   4.191614   4.713637   3.809427   2.371271
     8  Br   6.990958   6.093981   6.523394   5.434547   4.128967
     9  C    4.430004   3.795697   4.739119   4.262728   2.778208
    10  C    3.068847   2.576505   3.765018   3.709876   2.426680
    11  C    2.402573   1.472485   2.403682   2.392446   1.395413
    12  H    2.762256   2.140488   1.090573   2.195673   3.158083
    13  H    2.762263   2.140484   1.090583   2.195679   3.158073
    14  H    4.326417   3.207778   2.189609   1.091739   2.140354
    15  H    4.326394   3.207763   2.189608   1.091740   2.140347
    16  H    5.663243   4.505342   4.292457   2.883768   2.152753
    17  H    5.179244   4.707123   5.763318   5.341424   3.856938
    18  H    2.901014   2.853035   4.272844   4.534254   3.400710
                    6          7          8          9         10
     6  C    0.000000
     7  C    1.387659   0.000000
     8  Br   2.844491   1.904045   0.000000
     9  C    2.434297   1.389673   2.847480   0.000000
    10  C    2.813458   2.393737   4.143803   1.382441   0.000000
    11  C    2.408114   2.732480   4.636490   2.384070   1.388385
    12  H    4.464030   5.431524   7.215736   5.443756   4.443001
    13  H    4.464015   5.431501   7.215712   5.443732   4.442979
    14  H    2.927383   4.204529   5.663894   4.804147   4.375047
    15  H    2.927383   4.204528   5.663897   4.804139   4.375035
    16  H    1.079439   2.148708   2.947433   3.408192   3.892741
    17  H    3.401722   2.141403   2.936456   1.079048   2.145321
    18  H    3.892356   3.381985   4.997132   2.149746   1.079046
                   11         12         13         14         15
    11  C    0.000000
    12  H    3.142266   0.000000
    13  H    3.142248   1.754460   0.000000
    14  H    3.131777   2.941083   2.358807   0.000000
    15  H    3.131766   2.358803   2.941106   1.758990   0.000000
    16  H    3.396586   4.937524   4.937510   2.972302   2.972313
    17  H    3.371852   6.446767   6.446743   5.865987   5.865977
    18  H    2.143119   4.867742   4.867722   5.222941   5.222925
                   16         17         18
    16  H    0.000000
    17  H    4.284208   0.000000
    18  H    4.971705   2.493824   0.000000
 Stoichiometry    C9H7BrO
 Framework group  C1[X(C9H7BrO)]
 Deg. of freedom    48
 Full point group                 C1      NOp   1
 Largest Abelian subgroup         C1      NOp   1
 Largest concise Abelian subgroup C1      NOp   1
                         Standard orientation:                         
 ---------------------------------------------------------------------
 Center     Atomic      Atomic             Coordinates (Angstroms)
 Number     Number       Type             X           Y           Z
 ---------------------------------------------------------------------
      1          8           0        3.854599    1.376968   -0.000020
      2          6           0        3.090675    0.444357    0.000000
      3          6           0        3.477394   -1.027993    0.000020
      4          6           0        2.171174   -1.831244    0.000010
      5          6           0        1.090364   -0.794717    0.000000
      6          6           0       -0.277596   -0.987105    0.000000
      7          6           0       -1.089734    0.138075    0.000000
      8         35           0       -2.979218   -0.096953    0.000000
      9          6           0       -0.575100    1.428944   -0.000010
     10          6           0        0.794912    1.613909   -0.000010
     11          6           0        1.619118    0.496637    0.000000
     12          1           0        4.092574   -1.231479   -0.877190
     13          1           0        4.092544   -1.231449    0.877270
     14          1           0        2.086631   -2.472527    0.879500
     15          1           0        2.086641   -2.472517   -0.879490
     16          1           0       -0.708928   -1.976620    0.000010
     17          1           0       -1.246418    2.273738   -0.000020
     18          1           0        1.225534    2.603305   -0.000020
 ---------------------------------------------------------------------
 Rotational constants (GHZ):           2.5449180           0.3690042           0.3235588
 Standard basis: MIDIx (5D, 7F)
 There are   139 symmetry adapted cartesian basis functions of A   symmetry.
 There are   136 symmetry adapted basis functions of A   symmetry.
   136 basis functions,   240 primitive gaussians,   139 cartesian basis functions
    52 alpha electrons       52 beta electrons
       nuclear repulsion energy       789.8067862835 Hartrees.
 NAtoms=   18 NActive=   18 NUniq=   18 SFac= 1.00D+00 NAtFMM=   60 NAOKFM=F Big=F
 Integral buffers will be    131072 words long.
 Raffenetti 2 integral format.
 Two-electron integral symmetry is turned on.
 Nuclear repulsion after empirical dispersion term =      789.7962978139 Hartrees.
 One-electron integrals computed using PRISM.
 NBasis=   136 RedAO= T EigKep=  1.11D-03  NBF=   136
 NBsUse=   136 1.00D-06 EigRej= -1.00D+00 NBFU=   136
 ExpMin= 1.47D-01 ExpMax= 6.10D+03 ExpMxC= 6.10D+03 IAcc=3 IRadAn=         5 AccDes= 0.00D+00
 Harris functional with IExCor= 4639 and IRadAn=       5 diagonalized for initial guess.
 HarFok:  IExCor= 4639 AccDes= 0.00D+00 IRadAn=         5 IDoV= 1 UseB2=F ITyADJ=14
 ICtDFT=  3500011 ScaDFX=  1.000000  1.000000  1.000000  1.000000
 FoFCou: FMM=F IPFlag=           0 FMFlag=      100000 FMFlg1=           0
         NFxFlg=           0 DoJE=T BraDBF=F KetDBF=T FulRan=T
         wScrn=  0.000000 ICntrl=       500 IOpCl=  0 I1Cent=   200000004 NGrid=           0
         NMat0=    1 NMatS0=      1 NMatT0=    0 NMatD0=    1 NMtDS0=    0 NMtDT0=    0
 Petite list used in FoFCou.
 Requested convergence on RMS density matrix=1.00D-08 within 128 cycles.
 Requested convergence on MAX density matrix=1.00D-06.
 Requested convergence on             energy=1.00D-06.
 No special actions if energy rises.
 Integral accuracy reduced to 1.0D-05 until final iterations.
 Initial convergence to 1.0D-05 achieved.  Increase integral accuracy.
 SCF Done:  E(RwB97XD) =  -2981.84955026     A.U. after   15 cycles
            NFock= 15  Conv=0.99D-08     -V/T= 2.0020

 **********************************************************************

            Population analysis using the SCF Density.

 **********************************************************************

 Orbital symmetries:
       Occupied  (A) (A) (A) (A) (A) (A) (A) (A) (A) (A) (A) (A)
                 (A) (A) (A) (A) (A) (A) (A) (A) (A) (A) (A) (A)
                 (A) (A) (A) (A) (A) (A) (A) (A) (A) (A) (A) (A)
                 (A) (A) (A) (A) (A) (A) (A) (A) (A) (A) (A) (A)
                 (A) (A) (A) (A)
       Virtual   (A) (A) (A) (A) (A) (A) (A) (A) (A) (A) (A) (A)
                 (A) (A) (A) (A) (A) (A) (A) (A) (A) (A) (A) (A)
                 (A) (A) (A) (A) (A) (A) (A) (A) (A) (A) (A) (A)
                 (A) (A) (A) (A) (A) (A) (A) (A) (A) (A) (A) (A)
                 (A) (A) (A) (A) (A) (A) (A) (A) (A) (A) (A) (A)
                 (A) (A) (A) (A) (A) (A) (A) (A) (A) (A) (A) (A)
                 (A) (A) (A) (A) (A) (A) (A) (A) (A) (A) (A) (A)
 The electronic state is 1-A.
 Alpha  occ. eigenvalues -- -480.15433 -62.58822 -56.17720 -56.17291 -56.17282
 Alpha  occ. eigenvalues --  -19.14017 -10.32216 -10.30881 -10.26759 -10.25979
 Alpha  occ. eigenvalues --  -10.25901 -10.25696 -10.25303 -10.24908 -10.24174
 Alpha  occ. eigenvalues --   -8.89669  -6.68153  -6.66729  -6.66700  -2.78459
 Alpha  occ. eigenvalues --   -2.77956  -2.77951  -2.76767  -2.76762  -1.15070
 Alpha  occ. eigenvalues --   -1.01440  -0.95651  -0.90532  -0.87237  -0.83425
 Alpha  occ. eigenvalues --   -0.78691  -0.73573  -0.69038  -0.66494  -0.59511
 Alpha  occ. eigenvalues --   -0.58044  -0.57546  -0.55481  -0.53867  -0.52130
 Alpha  occ. eigenvalues --   -0.49412  -0.49364  -0.49093  -0.47203  -0.45008
 Alpha  occ. eigenvalues --   -0.44417  -0.43839  -0.39256  -0.36998  -0.34647
 Alpha  occ. eigenvalues --   -0.32320  -0.32231
 Alpha virt. eigenvalues --    0.01153   0.05237   0.08136   0.12234   0.17762
 Alpha virt. eigenvalues --    0.19459   0.20650   0.21863   0.23791   0.26125
 Alpha virt. eigenvalues --    0.26386   0.27823   0.30041   0.30802   0.34773
 Alpha virt. eigenvalues --    0.37177   0.37882   0.41648   0.44051   0.46786
 Alpha virt. eigenvalues --    0.49082   0.54082   0.55638   0.58828   0.60067
 Alpha virt. eigenvalues --    0.61199   0.63604   0.63681   0.64483   0.66615
 Alpha virt. eigenvalues --    0.67375   0.70438   0.71001   0.71164   0.75090
 Alpha virt. eigenvalues --    0.76330   0.80144   0.83551   0.83744   0.85449
 Alpha virt. eigenvalues --    0.86899   0.88921   0.90588   0.92679   0.94292
 Alpha virt. eigenvalues --    0.95356   0.97368   0.97899   0.98127   0.98434
 Alpha virt. eigenvalues --    1.00109   1.00905   1.02378   1.02497   1.04762
 Alpha virt. eigenvalues --    1.04773   1.05237   1.08168   1.08549   1.11984
 Alpha virt. eigenvalues --    1.13084   1.15304   1.18279   1.21097   1.25386
 Alpha virt. eigenvalues --    1.28394   1.31188   1.36225   1.38126   1.50388
 Alpha virt. eigenvalues --    1.56064   1.59100   1.64555   1.67045   1.69128
 Alpha virt. eigenvalues --    1.74871   1.81535   1.89267   1.92852   1.98664
 Alpha virt. eigenvalues --    2.01388   2.12410   2.33841   3.10780
          Condensed to atoms (all electrons):
               1          2          3          4          5          6
     1  O    8.131728   0.562520  -0.071950   0.003113   0.001948   0.000002
     2  C    0.562520   4.471367   0.325661  -0.066925  -0.010744   0.001130
     3  C   -0.071950   0.325661   5.578746   0.216380  -0.036852   0.003566
     4  C    0.003113  -0.066925   0.216380   5.215826   0.264886   0.001091
     5  C    0.001948  -0.010744  -0.036852   0.264886   5.157288   0.454326
     6  C    0.000002   0.001130   0.003566   0.001091   0.454326   4.905785
     7  C   -0.000010   0.000362  -0.000407   0.000719  -0.017035   0.480749
     8  Br  -0.000000   0.000002   0.000000  -0.000023   0.002389  -0.041749
     9  C    0.000212   0.001488   0.000291   0.000347  -0.037952  -0.034843
    10  C   -0.005374   0.002048  -0.000901   0.001909  -0.027243  -0.025049
    11  C   -0.083382   0.220390  -0.254339   0.000436   0.395460  -0.021696
    12  H    0.002483  -0.026292   0.365654  -0.021175   0.001017  -0.000087
    13  H    0.002482  -0.026293   0.365653  -0.021175   0.001017  -0.000087
    14  H   -0.000031   0.002351  -0.024492   0.386410  -0.026657  -0.004656
    15  H   -0.000031   0.002350  -0.024492   0.386410  -0.026658  -0.004656
    16  H    0.000000  -0.000039   0.000164  -0.004477  -0.016446   0.391028
    17  H    0.000000  -0.000009   0.000001   0.000003   0.000097   0.002449
    18  H    0.006455  -0.000906   0.000750  -0.000208   0.003366   0.000051
               7          8          9         10         11         12
     1  O   -0.000010  -0.000000   0.000212  -0.005374  -0.083382   0.002483
     2  C    0.000362   0.000002   0.001488   0.002048   0.220390  -0.026292
     3  C   -0.000407   0.000000   0.000291  -0.000901  -0.254339   0.365654
     4  C    0.000719  -0.000023   0.000347   0.001909   0.000436  -0.021175
     5  C   -0.017035   0.002389  -0.037952  -0.027243   0.395460   0.001017
     6  C    0.480749  -0.041749  -0.034843  -0.025049  -0.021696  -0.000087
     7  C    5.051683   0.215803   0.452814  -0.019765  -0.056463   0.000008
     8  Br   0.215803  34.920096  -0.039730   0.001765   0.000426  -0.000000
     9  C    0.452814  -0.039730   4.990468   0.475977  -0.025401  -0.000003
    10  C   -0.019765   0.001765   0.475977   4.895396   0.437111  -0.000007
    11  C   -0.056463   0.000426  -0.025401   0.437111   5.541666   0.009068
    12  H    0.000008  -0.000000  -0.000003  -0.000007   0.009068   0.455318
    13  H    0.000008  -0.000000  -0.000003  -0.000007   0.009068  -0.014560
    14  H    0.000043  -0.000000   0.000009  -0.000074  -0.000736   0.001469
    15  H    0.000043  -0.000000   0.000009  -0.000074  -0.000736  -0.005635
    16  H   -0.018828   0.000623   0.002403  -0.000106   0.002469  -0.000005
    17  H   -0.022093   0.000635   0.395815  -0.018545   0.003145  -0.000000
    18  H    0.002117  -0.000048  -0.016016   0.384033  -0.024242  -0.000016
              13         14         15         16         17         18
     1  O    0.002482  -0.000031  -0.000031   0.000000   0.000000   0.006455
     2  C   -0.026293   0.002351   0.002350  -0.000039  -0.000009  -0.000906
     3  C    0.365653  -0.024492  -0.024492   0.000164   0.000001   0.000750
     4  C   -0.021175   0.386410   0.386410  -0.004477   0.000003  -0.000208
     5  C    0.001017  -0.026657  -0.026658  -0.016446   0.000097   0.003366
     6  C   -0.000087  -0.004656  -0.004656   0.391028   0.002449   0.000051
     7  C    0.000008   0.000043   0.000043  -0.018828  -0.022093   0.002117
     8  Br  -0.000000  -0.000000  -0.000000   0.000623   0.000635  -0.000048
     9  C   -0.000003   0.000009   0.000009   0.002403   0.395815  -0.016016
    10  C   -0.000007  -0.000074  -0.000074  -0.000106  -0.018545   0.384033
    11  C    0.009068  -0.000736  -0.000736   0.002469   0.003145  -0.024242
    12  H   -0.014560   0.001469  -0.005635  -0.000005  -0.000000  -0.000016
    13  H    0.455321  -0.005635   0.001469  -0.000005  -0.000000  -0.000016
    14  H   -0.005635   0.473498  -0.023531   0.000993  -0.000000   0.000005
    15  H    0.001469  -0.023531   0.473499   0.000993  -0.000000   0.000005
    16  H   -0.000005   0.000993   0.000993   0.430524  -0.000052   0.000008
    17  H   -0.000000  -0.000000  -0.000000  -0.000052   0.425490  -0.003427
    18  H   -0.000016   0.000005   0.000005   0.000008  -0.003427   0.428604
 Mulliken charges:
               1
     1  O   -0.550166
     2  C    0.541543
     3  C   -0.443435
     4  C   -0.363548
     5  C   -0.082206
     6  C   -0.107356
     7  C   -0.069746
     8  Br  -0.060187
     9  C   -0.165886
    10  C   -0.101093
    11  C   -0.152244
    12  H    0.232762
    13  H    0.232761
    14  H    0.221036
    15  H    0.221036
    16  H    0.210754
    17  H    0.216490
    18  H    0.219485
 Sum of Mulliken charges =  -0.00000
 Mulliken charges with hydrogens summed into heavy atoms:
               1
     1  O   -0.550166
     2  C    0.541543
     3  C    0.022088
     4  C    0.078524
     5  C   -0.082206
     6  C    0.103398
     7  C   -0.069746
     8  Br  -0.060187
     9  C    0.050604
    10  C    0.118392
    11  C   -0.152244
 Electronic spatial extent (au):  <R**2>=           2977.8433
 Charge=             -0.0000 electrons
 Dipole moment (field-independent basis, Debye):
    X=             -0.4493    Y=             -2.0240    Z=              0.0000  Tot=              2.0733
 Quadrupole moment (field-independent basis, Debye-Ang):
   XX=            -82.4846   YY=            -70.5208   ZZ=            -76.4565
   XY=             -9.3421   XZ=              0.0002   YZ=             -0.0000
 Traceless Quadrupole moment (field-independent basis, Debye-Ang):
   XX=             -5.9973   YY=              5.9665   ZZ=              0.0308
   XY=             -9.3421   XZ=              0.0002   YZ=             -0.0000
 Octapole moment (field-independent basis, Debye-Ang**2):
  XXX=           -126.7735  YYY=              2.2568  ZZZ=              0.0000  XYY=            -34.6645
  XXY=            -36.1592  XXZ=              0.0006  XZZ=            -21.5842  YZZ=             -2.5561
  YYZ=             -0.0001  XYZ=              0.0002
 Hexadecapole moment (field-independent basis, Debye-Ang**3):
 XXXX=          -2786.6759 YYYY=           -562.7734 ZZZZ=            -88.7151 XXXY=           -109.6628
 XXXZ=              0.0016 YYYX=             12.8969 YYYZ=              0.0015 ZZZX=             -0.0006
 ZZZY=              0.0019 XXYY=           -577.4708 XXZZ=           -448.4053 YYZZ=           -114.6172
 XXYZ=              0.0015 YYXZ=             -0.0002 ZZXY=              4.2122
 N-N= 7.897962978139D+02 E-N=-8.679023103087D+03  KE= 2.975831669217D+03
 There are a total of      409446 grid points.
 ElSum from          density=      104.0000095861
 ElSum from atomic densities=      103.9999938054
 Hirshfeld populations at iteration   1 (CA, CB, DipXYZ):
               1          2          3          4          5
     1  O    4.121116   4.121116  -0.032822  -0.044382   0.000001
     2  C    2.923083   2.923083   0.002481  -0.029684   0.000002
     3  C    3.024478   3.024478  -0.018012   0.007720  -0.000001
     4  C    3.019927   3.019927   0.010599   0.012429   0.000000
     5  C    2.995503   2.995503   0.025632  -0.061295  -0.000001
     6  C    3.023441   3.023441   0.001966  -0.044475   0.000000
     7  C    2.989267   2.989267  -0.048031  -0.002645   0.000000
     8  Br  17.520206  17.520206  -0.038893  -0.002323  -0.000000
     9  C    3.021653   3.021653  -0.005586   0.037589  -0.000001
    10  C    3.007141   3.007141   0.020008   0.056887  -0.000001
    11  C    3.016339   3.016339   0.050422   0.020016  -0.000000
    12  H    0.477379   0.477379   0.091635  -0.028605  -0.124850
    13  H    0.477378   0.477378   0.091630  -0.028600   0.124854
    14  H    0.480264   0.480264  -0.008720  -0.093619   0.120647
    15  H    0.480264   0.480264  -0.008719  -0.093617  -0.120649
    16  H    0.475679   0.475679  -0.049644  -0.155637   0.000002
    17  H    0.475650   0.475650  -0.086231   0.141469  -0.000002
    18  H    0.471236   0.471236   0.060180   0.153684  -0.000002
       Tot  52.000005  52.000005   0.057894  -0.155087   0.000001

 Dip from Atomic Chgs             -0.234683  -0.641203   0.000013
         Total Dipole             -0.176789  -0.796290   0.000014

 Hirshfeld charges, spin densities, dipoles, and CM5 charges using IRadAn=      5:
              Q-H        S-H        Dx         Dy         Dz        Q-CM5   
     1  O   -0.242233   0.000000  -0.032822  -0.044382   0.000001  -0.288774
     2  C    0.153835   0.000000   0.002481  -0.029684   0.000002   0.182529
     3  C   -0.048956   0.000000  -0.018012   0.007720  -0.000001  -0.148934
     4  C   -0.039854   0.000000   0.010599   0.012429   0.000000  -0.141680
     5  C    0.008994   0.000000   0.025632  -0.061295  -0.000001  -0.002275
     6  C   -0.046882   0.000000   0.001966  -0.044475   0.000000  -0.098509
     7  C    0.021465   0.000000  -0.048031  -0.002645   0.000000   0.000397
     8  Br  -0.040412   0.000000  -0.038893  -0.002323  -0.000000  -0.025797
     9  C   -0.043306   0.000000  -0.005586   0.037589  -0.000001  -0.097361
    10  C   -0.014282   0.000000   0.020008   0.056887  -0.000001  -0.066667
    11  C   -0.032677   0.000000   0.050422   0.020016  -0.000000  -0.035847
    12  H    0.045243   0.000000   0.091635  -0.028605  -0.124850   0.102147
    13  H    0.045244   0.000000   0.091630  -0.028600   0.124854   0.102147
    14  H    0.039472   0.000000  -0.008720  -0.093619   0.120647   0.094892
    15  H    0.039472   0.000000  -0.008719  -0.093617  -0.120649   0.094892
    16  H    0.048642   0.000000  -0.049644  -0.155637   0.000002   0.106567
    17  H    0.048699   0.000000  -0.086231   0.141469  -0.000002   0.106262
    18  H    0.057527   0.000000   0.060180   0.153684  -0.000002   0.116002
       Tot  -0.000010   0.000000   0.057894  -0.155087   0.000001  -0.000010
 Hirshfeld charges with hydrogens summed into heavy atoms:
              Q-H       Q-CM5   
     1  O   -0.242233  -0.288774
     2  C    0.153835   0.182529
     3  C    0.041531   0.055361
     4  C    0.039090   0.048104
     5  C    0.008994  -0.002275
     6  C    0.001760   0.008058
     7  C    0.021465   0.000397
     8  Br  -0.040412  -0.025797
     9  C    0.005393   0.008901
    10  C    0.043245   0.049335
    11  C   -0.032677  -0.035847
 
 EQQ= 0.000000000000E+00 EQD= 0.000000000000E+00 EDD= 0.289737231179E-02
 EQQ+QD+DD= 0.289737231179E-02
 
 Running external command "gaunbo6 R"
         input file       "/home/rpaton/opt/xtb/Gau-1507365.EIn"
         output file      "/home/rpaton/opt/xtb/Gau-1507365.EOu"
         message file     "/home/rpaton/opt/xtb/Gau-1507365.EMs"
         fchk file        "/home/rpaton/opt/xtb/Gau-1507365.EFC"
         mat. el file     "/home/rpaton/opt/xtb/Gau-1507365.EUF"

 Writing WrtUnf unformatted file "/home/rpaton/opt/xtb/Gau-1507365.EUF"
 Gaussian matrix elements                                         Version   2 NLab=11 Len12L=8 Len4L=8
 Write SHELL TO ATOM MAP                   from file      0 offset           0 length                  76 to matrix element file.
 Write SHELL TYPES                         from file      0 offset           0 length                  76 to matrix element file.
 Write NUMBER OF PRIMITIVES PER SHELL      from file      0 offset           0 length                  76 to matrix element file.
 Write PRIMITIVE EXPONENTS                 from file      0 offset           0 length                 137 to matrix element file.
 Write CONTRACTION COEFFICIENTS            from file      0 offset           0 length                 137 to matrix element file.
 Write P(S=P) CONTRACTION COEFFICIENTS     from file      0 offset           0 length                 137 to matrix element file.
 Write COORDINATES OF EACH SHELL           from file      0 offset           0 length                 228 to matrix element file.
 Write BONDS PER ATOM                      from file      0 offset           0 length                  18 to matrix element file.
 Write BONDED ATOMS                        from file      0 offset           0 length                  38 to matrix element file.
 Write BOND TYPES                          from file      0 offset           0 length                  38 to matrix element file.
 Write ONIOM CHARGE/MULT                   from file      0 offset           0 length                  32 to matrix element file.
 Write ONIOM ATOM LAYERS                   from file      0 offset           0 length                  18 to matrix element file.
 Write ONIOM ATOM MODIFIERS                from file      0 offset           0 length                  18 to matrix element file.
 Write ONIOM ATOM TYPES                    from file      0 offset           0 length                  18 to matrix element file.
 Write ONIOM LINK ATOMS                    from file      0 offset           0 length                  18 to matrix element file.
 Write ONIOM LINK CHARGES                  from file      0 offset           0 length                  18 to matrix element file.
 Write ONIOM LINK DISTANCES                from file      0 offset           0 length                  72 to matrix element file.
 Write SYMINF INTS                         from file      0 offset           0 length                  26 to matrix element file.
 Write ROTTR TO SO                         from file      0 offset           0 length                  12 to matrix element file.
 Write GAUSSIAN SCALARS                    from file    501 offset           0 to matrix element file.
 Write OPTIMIZATION FLAGS                  from file      0 offset           0 length                  18 to matrix element file.
 Write INTEGER ISO                         from file      0 offset           0 length                  18 to matrix element file.
 Write INTEGER SPIN                        from file      0 offset           0 length                  18 to matrix element file.
 Write REAL ZEFFECTIVE                     from file      0 offset           0 length                  18 to matrix element file.
 Write REAL QUADRUPOLEMOMENT               from file      0 offset           0 length                  18 to matrix element file.
 Write REAL GFACTOR                        from file      0 offset           0 length                  18 to matrix element file.
 Write REAL ZNUCLEAR                       from file      0 offset           0 length                  18 to matrix element file.
 Write MULLIKEN CHARGES                    from file      0 offset           0 length                  18 to matrix element file.
 Write TYPE 6 CHARGES                      from file      0 offset           0 length                  18 to matrix element file.
 Write TYPE 7 CHARGES                      from file      0 offset           0 length                  18 to matrix element file.
 Write NUCLEAR GRADIENT                    from file  10584 offset           0 length                  54 to matrix element file.
 Array NUCLEAR FORCE CONSTANTS              on  file  10585 does not exist.
 Write ELECTRIC DIPOLE MOMENT              from file      0 offset           0 length                   3 to matrix element file.
 Write NON-ADIABATIC COUPLING              from file  10810 offset           0 length                  54 to matrix element file.
 Write FINITE EM FIELD                     from file  10521 offset           0 length                  35 to matrix element file.
 Write OVERLAP                             from file  10514 offset           0 length                9316 to matrix element file.
 Write CORE HAMILTONIAN ALPHA              from file  10515 offset           0 length                9316 to matrix element file.
 Write CORE HAMILTONIAN BETA               from file  10515 offset        9316 length                9316 to matrix element file.
 Write KINETIC ENERGY                      from file  10516 offset           0 length                9316 to matrix element file.
 Write ORTHOGONAL BASIS                    from file  10685 offset           0 length               18496 to matrix element file.
 Write DIPOLE INTEGRALS                    from file  10518 offset           0 length               27948 to matrix element file.
 Array DIP VEL INTEGRALS                    on  file  10572 does not exist.
 Array R X DEL INTEGRALS                    on  file  10572 does not exist.
 Write ALPHA ORBITAL ENERGIES              from file      0 offset           0 length                 136 to matrix element file.
 Write ALPHA MO COEFFICIENTS               from file  10524 offset           0 length               18496 to matrix element file.
 Write ALPHA DENSITY MATRIX                from file      0 offset           0 length                9316 to matrix element file.
 Write ALPHA FOCK MATRIX                   from file  10536 offset           0 length                9316 to matrix element file.
 Write ENERGY-WEIGHTED DENSITY             from file  10571 offset           0 length                9316 to matrix element file.
 Write ALPHA SCF DENSITY MATRIX            from file      0 offset           0 length                9316 to matrix element file.
 Write INTEGER PARAMETERS                  from file      0 offset           0 length                   2 to matrix element file.
 No 2e integrals to process.
 Perform NBO analysis...

 *********************************** NBO 7.0 ***********************************
             N A T U R A L   A T O M I C   O R B I T A L   A N D
          N A T U R A L   B O N D   O R B I T A L   A N A L Y S I S
 **************************** Robert Paton (I101709) ***************************
  (c) Copyright 1996-2019 Board of Regents of the University of Wisconsin System
      on behalf of the Theoretical Chemistry Institute.  All rights reserved.

          Cite this program [NBO 7.0.5 (4-Jun-2019)] as:

          NBO 7.0.  E. D. Glendening, J. K. Badenhoop, A. E. Reed,
          J. E. Carpenter, J. A. Bohmann, C. M. Morales, P. Karafiloglou,
          C. R. Landis, and F. Weinhold, Theoretical Chemistry Institute,
          University of Wisconsin, Madison, WI (2018)

       /AONBO  / : Checkpoint the AO to NBO transformation
                   NBOs sorted by occupancy
       /BNDIDX / : Print bond indices based on the NAO density matrix

 Filename set to /home/rpaton/opt/xtb/Gau-1507365

 Job title:  energy: -30.989950010930 gnorm: 0.000723798473 xtb: 6.7.0 (08769fc)


 NATURAL POPULATIONS:  Natural atomic orbital occupancies

  NAO Atom No lang   Type(AO)    Occupancy      Energy
 -------------------------------------------------------
   1    O  1  s      Cor( 1s)     1.99989     -19.13380
   2    O  1  s      Val( 2s)     1.68769      -0.73148
   3    O  1  s      Ryd( 3s)     0.00083       1.76371
   4    O  1  px     Val( 2p)     1.76345      -0.32493
   5    O  1  px     Ryd( 3p)     0.00115       1.92001
   6    O  1  py     Val( 2p)     1.70602      -0.32638
   7    O  1  py     Ryd( 3p)     0.00071       1.92073
   8    O  1  pz     Val( 2p)     1.31198      -0.25648
   9    O  1  pz     Ryd( 3p)     0.00028       1.68343
  10    O  1  dxy    Ryd( 3d)     0.00500       2.46567
  11    O  1  dxz    Ryd( 3d)     0.00172       1.91048
  12    O  1  dyz    Ryd( 3d)     0.00256       1.91802
  13    O  1  dx2y2  Ryd( 3d)     0.00370       2.12538
  14    O  1  dz2    Ryd( 3d)     0.00168       2.10430

  15    C  2  s      Cor( 1s)     1.99987     -10.31870
  16    C  2  s      Val( 2s)     0.81943      -0.07146
  17    C  2  s      Ryd( 3s)     0.00432       0.79100
  18    C  2  px     Val( 2p)     0.92241       0.02085
  19    C  2  px     Ryd( 3p)     0.01137       1.08230
  20    C  2  py     Val( 2p)     0.88865       0.02571
  21    C  2  py     Ryd( 3p)     0.01595       1.20391
  22    C  2  pz     Val( 2p)     0.78977      -0.10772
  23    C  2  pz     Ryd( 3p)     0.00185       0.92032

  24    C  3  s      Cor( 1s)     1.99977     -10.23809
  25    C  3  s      Val( 2s)     1.05609      -0.18293
  26    C  3  s      Ryd( 3s)     0.00080       1.24256
  27    C  3  px     Val( 2p)     1.15880      -0.10035
  28    C  3  px     Ryd( 3p)     0.00236       0.98982
  29    C  3  py     Val( 2p)     1.08900      -0.09536
  30    C  3  py     Ryd( 3p)     0.00127       0.95879
  31    C  3  pz     Val( 2p)     1.28492      -0.13196
  32    C  3  pz     Ryd( 3p)     0.00162       1.10256

  33    C  4  s      Cor( 1s)     1.99976     -10.24923
  34    C  4  s      Val( 2s)     1.02365      -0.16357
  35    C  4  s      Ryd( 3s)     0.00046       1.23503
  36    C  4  px     Val( 2p)     1.03826      -0.08119
  37    C  4  px     Ryd( 3p)     0.00218       0.94970
  38    C  4  py     Val( 2p)     1.17014      -0.10263
  39    C  4  py     Ryd( 3p)     0.00183       0.95886
  40    C  4  pz     Val( 2p)     1.27727      -0.13076
  41    C  4  pz     Ryd( 3p)     0.00166       1.10977

  42    C  5  s      Cor( 1s)     1.99990     -10.26461
  43    C  5  s      Val( 2s)     0.84863      -0.03777
  44    C  5  s      Ryd( 3s)     0.00099       0.73505
  45    C  5  px     Val( 2p)     1.10129      -0.04142
  46    C  5  px     Ryd( 3p)     0.00452       1.44378
  47    C  5  py     Val( 2p)     1.07767      -0.04598
  48    C  5  py     Ryd( 3p)     0.00409       1.35772
  49    C  5  pz     Val( 2p)     0.94917      -0.12157
  50    C  5  pz     Ryd( 3p)     0.00094       0.98828

  51    C  6  s      Cor( 1s)     1.99984     -10.25567
  52    C  6  s      Val( 2s)     0.93194      -0.07145
  53    C  6  s      Ryd( 3s)     0.00117       0.71387
  54    C  6  px     Val( 2p)     1.09139      -0.03823
  55    C  6  px     Ryd( 3p)     0.00637       1.02998
  56    C  6  py     Val( 2p)     1.19946      -0.08489
  57    C  6  py     Ryd( 3p)     0.00584       1.31661
  58    C  6  pz     Val( 2p)     1.01366      -0.13382
  59    C  6  pz     Ryd( 3p)     0.00041       0.92550

  60    C  7  s      Cor( 1s)     1.99989     -10.30700
  61    C  7  s      Val( 2s)     0.93744      -0.15210
  62    C  7  s      Ryd( 3s)     0.00060       0.71312
  63    C  7  px     Val( 2p)     0.99582      -0.13448
  64    C  7  px     Ryd( 3p)     0.00683       1.34611
  65    C  7  py     Val( 2p)     1.11342      -0.06945
  66    C  7  py     Ryd( 3p)     0.00767       1.10280
  67    C  7  pz     Val( 2p)     1.03902      -0.16402
  68    C  7  pz     Ryd( 3p)     0.00079       0.93743

  69   Br  8  s      Cor( 3s)     2.00000     -19.96936
  70   Br  8  s      Cor( 1s)     2.00000    -451.87980
  71   Br  8  s      Cor( 2s)     1.99999     -79.78933
  72   Br  8  s      Val( 4s)     1.87254      -0.77678
  73   Br  8  s      Ryd( 5s)     0.00283       0.84564
  74   Br  8  px     Cor( 3p)     2.00000      -7.18241
  75   Br  8  px     Cor( 2p)     1.99999     -55.67551
  76   Br  8  px     Val( 4p)     1.12660      -0.24012
  77   Br  8  px     Ryd( 5p)     0.00346       0.73047
  78   Br  8  py     Cor( 3p)     2.00000      -7.16800
  79   Br  8  py     Cor( 2p)     1.99999     -55.67193
  80   Br  8  py     Val( 4p)     1.96823      -0.36624
  81   Br  8  py     Ryd( 5p)     0.00134       0.76196
  82   Br  8  pz     Cor( 3p)     2.00000      -7.16807
  83   Br  8  pz     Cor( 2p)     2.00000     -55.67191
  84   Br  8  pz     Val( 4p)     1.93934      -0.36281
  85   Br  8  pz     Ryd( 5p)     0.00072       0.72405
  86   Br  8  dxy    Cor( 3d)     1.99968      -2.77897
  87   Br  8  dxy    Ryd( 4d)     0.00094       0.91472
  88   Br  8  dxz    Cor( 3d)     1.99987      -2.77908
  89   Br  8  dxz    Ryd( 4d)     0.00209       0.71142
  90   Br  8  dyz    Cor( 3d)     1.99999      -2.76780
  91   Br  8  dyz    Ryd( 4d)     0.00008       0.64222
  92   Br  8  dx2y2  Cor( 3d)     1.99944      -2.77918
  93   Br  8  dx2y2  Ryd( 4d)     0.00474       0.98967
  94   Br  8  dz2    Cor( 3d)     1.99980      -2.77164
  95   Br  8  dz2    Ryd( 4d)     0.00159       0.75617

  96    C  9  s      Cor( 1s)     1.99986     -10.25375
  97    C  9  s      Val( 2s)     0.94454      -0.08591
  98    C  9  s      Ryd( 3s)     0.00092       0.72641
  99    C  9  px     Val( 2p)     1.13438      -0.05131
 100    C  9  px     Ryd( 3p)     0.00636       1.13659
 101    C  9  py     Val( 2p)     1.15992      -0.07128
 102    C  9  py     Ryd( 3p)     0.00512       1.22905
 103    C  9  pz     Val( 2p)     1.01223      -0.13307
 104    C  9  pz     Ryd( 3p)     0.00047       0.92377

 105    C 10  s      Cor( 1s)     1.99983     -10.25611
 106    C 10  s      Val( 2s)     0.94028      -0.07077
 107    C 10  s      Ryd( 3s)     0.00082       0.72645
 108    C 10  px     Val( 2p)     1.08484      -0.02712
 109    C 10  px     Ryd( 3p)     0.00583       1.07467
 110    C 10  py     Val( 2p)     1.19716      -0.06695
 111    C 10  py     Ryd( 3p)     0.00583       1.31405
 112    C 10  pz     Val( 2p)     0.94436      -0.12033
 113    C 10  pz     Ryd( 3p)     0.00029       0.92585

 114    C 11  s      Cor( 1s)     1.99990     -10.24579
 115    C 11  s      Val( 2s)     0.87282      -0.03737
 116    C 11  s      Ryd( 3s)     0.00179       0.73463
 117    C 11  px     Val( 2p)     1.12404      -0.06039
 118    C 11  px     Ryd( 3p)     0.00454       1.51687
 119    C 11  py     Val( 2p)     1.10538      -0.03661
 120    C 11  py     Ryd( 3p)     0.00455       1.43327
 121    C 11  pz     Val( 2p)     1.04395      -0.12896
 122    C 11  pz     Ryd( 3p)     0.00031       1.00002

 123    H 12  s      Val( 1s)     0.71568       0.13108
 124    H 12  s      Ryd( 2s)     0.00141       0.60638

 125    H 13  s      Val( 1s)     0.71568       0.13107
 126    H 13  s      Ryd( 2s)     0.00141       0.60639

 127    H 14  s      Val( 1s)     0.72473       0.12513
 128    H 14  s      Ryd( 2s)     0.00109       0.60428

 129    H 15  s      Val( 1s)     0.72473       0.12513
 130    H 15  s      Ryd( 2s)     0.00109       0.60428

 131    H 16  s      Val( 1s)     0.73314       0.13763
 132    H 16  s      Ryd( 2s)     0.00124       0.60969

 133    H 17  s      Val( 1s)     0.73089       0.14526
 134    H 17  s      Ryd( 2s)     0.00119       0.60669

 135    H 18  s      Val( 1s)     0.73271       0.14957
 136    H 18  s      Ryd( 2s)     0.00255       0.61229


 Summary of Natural Population Analysis:

                                     Natural Population
             Natural    ---------------------------------------------
  Atom No    Charge        Core      Valence    Rydberg      Total
 --------------------------------------------------------------------
    O  1   -0.48668      1.99989     6.46915    0.01763     8.48668
    C  2    0.54637      1.99987     3.42027    0.03349     5.45363
    C  3   -0.59463      1.99977     4.58880    0.00605     6.59463
    C  4   -0.51520      1.99976     4.50931    0.00613     6.51520
    C  5    0.01281      1.99990     3.97675    0.01054     5.98719
    C  6   -0.25007      1.99984     4.23645    0.01379     6.25007
    C  7   -0.10148      1.99989     4.08570    0.01589     6.10148
   Br  8    0.07675     27.99876     6.90671    0.01778    34.92325
    C  9   -0.26381      1.99986     4.25108    0.01287     6.26381
    C 10   -0.17925      1.99983     4.16664    0.01277     6.17925
    C 11   -0.15728      1.99990     4.14619    0.01119     6.15728
    H 12    0.28291      0.00000     0.71568    0.00141     0.71709
    H 13    0.28291      0.00000     0.71568    0.00141     0.71709
    H 14    0.27418      0.00000     0.72473    0.00109     0.72582
    H 15    0.27418      0.00000     0.72473    0.00109     0.72582
    H 16    0.26562      0.00000     0.73314    0.00124     0.73438
    H 17    0.26792      0.00000     0.73089    0.00119     0.73208
    H 18    0.26475      0.00000     0.73271    0.00255     0.73525
 ====================================================================
 * Total *  0.00000     47.99729    55.83459    0.16812   104.00000

                                 Natural Population
 ---------------------------------------------------------
   Core                      47.99729 ( 99.9943% of   48)
   Valence                   55.83459 ( 99.7046% of   56)
   Natural Minimal Basis    103.83188 ( 99.8383% of  104)
   Natural Rydberg Basis      0.16812 (  0.1617% of  104)
 ---------------------------------------------------------

    Atom No         Natural Electron Configuration
 ----------------------------------------------------------------------------
      O  1      [core]2s( 1.69)2p( 4.78)3d( 0.01)
      C  2      [core]2s( 0.82)2p( 2.60)3p( 0.03)
      C  3      [core]2s( 1.06)2p( 3.53)3p( 0.01)
      C  4      [core]2s( 1.02)2p( 3.49)3p( 0.01)
      C  5      [core]2s( 0.85)2p( 3.13)3p( 0.01)
      C  6      [core]2s( 0.93)2p( 3.30)3p( 0.01)
      C  7      [core]2s( 0.94)2p( 3.15)3p( 0.02)
     Br  8      [core]4s( 1.87)4p( 5.03)4d( 0.01)5p( 0.01)
      C  9      [core]2s( 0.94)2p( 3.31)3p( 0.01)
      C 10      [core]2s( 0.94)2p( 3.23)3p( 0.01)
      C 11      [core]2s( 0.87)2p( 3.27)3p( 0.01)
      H 12            1s( 0.72)
      H 13            1s( 0.72)
      H 14            1s( 0.72)
      H 15            1s( 0.72)
      H 16            1s( 0.73)
      H 17            1s( 0.73)
      H 18            1s( 0.73)


 Wiberg bond index matrix in the NAO basis:

     Atom    1       2       3       4       5       6       7       8       9
     ---- ------  ------  ------  ------  ------  ------  ------  ------  ------
   1.  O  0.0000  1.8313  0.0699  0.0083  0.0345  0.0009  0.0158  0.0027  0.0010
   2.  C  1.8313  0.0000  0.9708  0.0093  0.0214  0.0052  0.0046  0.0017  0.0075
   3.  C  0.0699  0.9708  0.0000  1.0014  0.0056  0.0042  0.0005  0.0005  0.0002
   4.  C  0.0083  0.0093  1.0014  0.0000  1.0049  0.0136  0.0066  0.0012  0.0012
   5.  C  0.0345  0.0214  0.0056  1.0049  0.0000  1.3979  0.0152  0.0123  0.0986
   6.  C  0.0009  0.0052  0.0042  0.0136  1.3979  0.0000  1.4134  0.0364  0.0150
   7.  C  0.0158  0.0046  0.0005  0.0066  0.0152  1.4134  0.0000  1.0384  1.3870
   8. Br  0.0027  0.0017  0.0005  0.0012  0.0123  0.0364  1.0384  0.0000  0.0340
   9.  C  0.0010  0.0075  0.0002  0.0012  0.0986  0.0150  1.3870  0.0340  0.0000
  10.  C  0.0275  0.0153  0.0049  0.0058  0.0150  0.1077  0.0149  0.0128  1.4518
  11.  C  0.0577  1.0180  0.0073  0.0104  1.3464  0.0134  0.0918  0.0119  0.0112
  12.  H  0.0111  0.0049  0.8910  0.0022  0.0032  0.0001  0.0007  0.0002  0.0002
  13.  H  0.0111  0.0049  0.8910  0.0022  0.0032  0.0001  0.0007  0.0002  0.0002
  14.  H  0.0021  0.0025  0.0026  0.8941  0.0026  0.0056  0.0000  0.0000  0.0033
  15.  H  0.0021  0.0025  0.0026  0.8941  0.0026  0.0056  0.0000  0.0000  0.0033
  16.  H  0.0006  0.0003  0.0001  0.0024  0.0055  0.8993  0.0045  0.0049  0.0058
  17.  H  0.0002  0.0002  0.0004  0.0002  0.0002  0.0056  0.0042  0.0049  0.9002
  18.  H  0.0054  0.0019  0.0010  0.0003  0.0067  0.0001  0.0058  0.0009  0.0044

     Atom   10      11      12      13      14      15      16      17      18
     ---- ------  ------  ------  ------  ------  ------  ------  ------  ------
   1.  O  0.0275  0.0577  0.0111  0.0111  0.0021  0.0021  0.0006  0.0002  0.0054
   2.  C  0.0153  1.0180  0.0049  0.0049  0.0025  0.0025  0.0003  0.0002  0.0019
   3.  C  0.0049  0.0073  0.8910  0.8910  0.0026  0.0026  0.0001  0.0004  0.0010
   4.  C  0.0058  0.0104  0.0022  0.0022  0.8941  0.8941  0.0024  0.0002  0.0003
   5.  C  0.0150  1.3464  0.0032  0.0032  0.0026  0.0026  0.0055  0.0002  0.0067
   6.  C  0.1077  0.0134  0.0001  0.0001  0.0056  0.0056  0.8993  0.0056  0.0001
   7.  C  0.0149  0.0918  0.0007  0.0007  0.0000  0.0000  0.0045  0.0042  0.0058
   8. Br  0.0128  0.0119  0.0002  0.0002  0.0000  0.0000  0.0049  0.0049  0.0009
   9.  C  1.4518  0.0112  0.0002  0.0002  0.0033  0.0033  0.0058  0.9002  0.0044
  10.  C  0.0000  1.3608  0.0005  0.0005  0.0001  0.0001  0.0002  0.0052  0.8994
  11.  C  1.3608  0.0000  0.0028  0.0028  0.0088  0.0088  0.0071  0.0061  0.0049
  12.  H  0.0005  0.0028  0.0000  0.0015  0.0014  0.0022  0.0000  0.0000  0.0000
  13.  H  0.0005  0.0028  0.0015  0.0000  0.0022  0.0014  0.0000  0.0000  0.0000
  14.  H  0.0001  0.0088  0.0014  0.0022  0.0000  0.0009  0.0001  0.0000  0.0001
  15.  H  0.0001  0.0088  0.0022  0.0014  0.0009  0.0000  0.0001  0.0000  0.0001
  16.  H  0.0002  0.0071  0.0000  0.0000  0.0001  0.0001  0.0000  0.0003  0.0003
  17.  H  0.0052  0.0061  0.0000  0.0000  0.0000  0.0000  0.0003  0.0000  0.0022
  18.  H  0.8994  0.0049  0.0000  0.0000  0.0001  0.0001  0.0003  0.0022  0.0000


 Wiberg bond index, Totals by atom:

     Atom    1
     ---- ------
   1.  O  2.0822
   2.  C  3.9023
   3.  C  3.8540
   4.  C  3.8580
   5.  C  3.9758
   6.  C  3.9242
   7.  C  4.0044
   8. Br  1.1630
   9.  C  3.9248
  10.  C  3.9225
  11.  C  3.9704
  12.  H  0.9220
  13.  H  0.9220
  14.  H  0.9264
  15.  H  0.9264
  16.  H  0.9313
  17.  H  0.9300
  18.  H  0.9336


 NBI: Natural Binding Index (NCU strength parameters)

     Atom    1       2       3       4       5       6       7       8       9
     ---- ------  ------  ------  ------  ------  ------  ------  ------  ------
   1.  O  0.0000  1.3532  0.2644  0.0912  0.1857  0.0307  0.1257  0.0521  0.0310
   2.  C  1.3532  0.0000  0.9853  0.0962  0.1463  0.0725  0.0681  0.0407  0.0866
   3.  C  0.2644  0.9853  0.0000  1.0007  0.0747  0.0647  0.0226  0.0214  0.0157
   4.  C  0.0912  0.0962  1.0007  0.0000  1.0024  0.1165  0.0811  0.0343  0.0347
   5.  C  0.1857  0.1463  0.0747  1.0024  0.0000  1.1823  0.1234  0.1111  0.3140
   6.  C  0.0307  0.0725  0.0647  0.1165  1.1823  0.0000  1.1889  0.1907  0.1227
   7.  C  0.1257  0.0681  0.0226  0.0811  0.1234  1.1889  0.0000  1.0190  1.1777
   8. Br  0.0521  0.0407  0.0214  0.0343  0.1111  0.1907  1.0190  0.0000  0.1844
   9.  C  0.0310  0.0866  0.0157  0.0347  0.3140  0.1227  1.1777  0.1844  0.0000
  10.  C  0.1657  0.1237  0.0704  0.0762  0.1227  0.3282  0.1222  0.1133  1.2049
  11.  C  0.2402  1.0090  0.0855  0.1019  1.1603  0.1158  0.3030  0.1090  0.1058
  12.  H  0.1053  0.0702  0.9439  0.0467  0.0565  0.0074  0.0262  0.0128  0.0123
  13.  H  0.1053  0.0702  0.9439  0.0467  0.0565  0.0074  0.0262  0.0128  0.0123
  14.  H  0.0459  0.0501  0.0510  0.9456  0.0510  0.0748  0.0066  0.0036  0.0570
  15.  H  0.0459  0.0501  0.0510  0.9456  0.0510  0.0748  0.0066  0.0036  0.0570
  16.  H  0.0245  0.0158  0.0087  0.0487  0.0739  0.9483  0.0667  0.0702  0.0759
  17.  H  0.0140  0.0127  0.0194  0.0142  0.0145  0.0752  0.0650  0.0701  0.9488
  18.  H  0.0735  0.0432  0.0314  0.0161  0.0820  0.0100  0.0765  0.0306  0.0666

     Atom   10      11      12      13      14      15      16      17      18
     ---- ------  ------  ------  ------  ------  ------  ------  ------  ------
   1.  O  0.1657  0.2402  0.1053  0.1053  0.0459  0.0459  0.0245  0.0140  0.0735
   2.  C  0.1237  1.0090  0.0702  0.0702  0.0501  0.0501  0.0158  0.0127  0.0432
   3.  C  0.0704  0.0855  0.9439  0.9439  0.0510  0.0510  0.0087  0.0194  0.0314
   4.  C  0.0762  0.1019  0.0467  0.0467  0.9456  0.9456  0.0487  0.0142  0.0161
   5.  C  0.1227  1.1603  0.0565  0.0565  0.0510  0.0510  0.0739  0.0145  0.0820
   6.  C  0.3282  0.1158  0.0074  0.0074  0.0748  0.0748  0.9483  0.0752  0.0100
   7.  C  0.1222  0.3030  0.0262  0.0262  0.0066  0.0066  0.0667  0.0650  0.0765
   8. Br  0.1133  0.1090  0.0128  0.0128  0.0036  0.0036  0.0702  0.0701  0.0306
   9.  C  1.2049  0.1058  0.0123  0.0123  0.0570  0.0570  0.0759  0.9488  0.0666
  10.  C  0.0000  1.1665  0.0227  0.0227  0.0076  0.0076  0.0123  0.0720  0.9484
  11.  C  1.1665  0.0000  0.0533  0.0533  0.0940  0.0940  0.0840  0.0783  0.0699
  12.  H  0.0227  0.0533  0.0000  0.0389  0.0377  0.0469  0.0035  0.0035  0.0042
  13.  H  0.0227  0.0533  0.0389  0.0000  0.0469  0.0378  0.0035  0.0035  0.0042
  14.  H  0.0076  0.0940  0.0377  0.0469  0.0000  0.0293  0.0105  0.0012  0.0109
  15.  H  0.0076  0.0940  0.0469  0.0378  0.0293  0.0000  0.0105  0.0012  0.0109
  16.  H  0.0123  0.0840  0.0035  0.0035  0.0105  0.0105  0.0000  0.0167  0.0179
  17.  H  0.0720  0.0783  0.0035  0.0035  0.0012  0.0012  0.0167  0.0000  0.0469
  18.  H  0.9484  0.0699  0.0042  0.0042  0.0109  0.0109  0.0179  0.0469  0.0000


 NATURAL BOND ORBITAL ANALYSIS:

                            Occupancies       Lewis Structure    Low   High
         Max    Occ     -------------------  -----------------   occ   occ
  Cycle  Ctr   Thresh    Lewis   non-Lewis     CR  BD  nC  LP    (L)   (NL)
 ============================================================================
    1     2     1.90    99.54927   4.45073     24  20   0   8     4      6
    2     2     1.87   100.44425   3.55575     24  20   0   8     3      4
    3     2     1.68   101.08438   2.91562     24  21   0   7     2      4
    4     2     1.66   101.73752   2.26248     24  22   0   6     1      4
    5     2     1.65   101.73752   2.26248     24  22   0   6     1      4
    6     2     1.63   101.73752   2.26248     24  22   0   6     1      4
    7     2     1.62   102.31422   1.68578     24  23   0   5     0      4
    8     2     1.61   102.31422   1.68578     24  23   0   5     0      4
    9     2     1.62   102.31422   1.68578     24  23   0   5     0      4
 ----------------------------------------------------------------------------

 Structure accepted: No low occupancy Lewis orbitals

 -------------------------------------------------------
   Core                     47.99729 ( 99.994% of  48)
   Valence Lewis            54.31694 ( 96.995% of  56)
  ==================      =============================
   Total Lewis             102.31422 ( 98.379% of 104)
  -----------------------------------------------------
   Valence non-Lewis         1.57499 (  1.514% of 104)
   Rydberg non-Lewis         0.11079 (  0.107% of 104)
  ==================      =============================
   Total non-Lewis           1.68578 (  1.621% of 104)
 -------------------------------------------------------


     (Occupancy)   Bond orbital / Coefficients / Hybrids
 ------------------ Lewis ------------------------------------------------------
   1. (1.99989) CR ( 1) O  1            s(100.00%)
                                         1.0000  0.0000  0.0000  0.0000  0.0000
                                         0.0000  0.0000  0.0000  0.0000  0.0000
                                         0.0000  0.0000  0.0000  0.0000
   2. (1.99987) CR ( 1) C  2            s(100.00%)
                                         1.0000  0.0000  0.0000  0.0000  0.0000
                                         0.0000  0.0000  0.0000  0.0000
   3. (1.99977) CR ( 1) C  3            s(100.00%)
                                         1.0000  0.0000  0.0000  0.0000  0.0000
                                         0.0000  0.0000  0.0000  0.0000
   4. (1.99976) CR ( 1) C  4            s(100.00%)
                                         1.0000  0.0000  0.0000  0.0000  0.0000
                                         0.0000  0.0000  0.0000  0.0000
   5. (1.99990) CR ( 1) C  5            s(100.00%)
                                         1.0000  0.0000  0.0000  0.0000  0.0000
                                         0.0000  0.0000  0.0000  0.0000
   6. (1.99984) CR ( 1) C  6            s(100.00%)
                                         1.0000  0.0000  0.0000  0.0000  0.0000
                                         0.0000  0.0000  0.0000  0.0000
   7. (1.99989) CR ( 1) C  7            s(100.00%)
                                         1.0000  0.0000  0.0000  0.0000  0.0000
                                         0.0000  0.0000  0.0000  0.0000
   8. (2.00000) CR ( 1)Br  8            s(100.00%)
                                         1.0000  0.0000  0.0000  0.0000  0.0000
                                         0.0000  0.0000  0.0000  0.0000  0.0000
                                         0.0000  0.0000  0.0000  0.0000  0.0000
                                         0.0000  0.0000  0.0000  0.0000  0.0000
                                         0.0000  0.0000  0.0000  0.0000  0.0000
                                         0.0000  0.0000
   9. (2.00000) CR ( 2)Br  8            s(100.00%)
                                         0.0000  1.0000  0.0000  0.0000  0.0000
                                         0.0000  0.0000  0.0000  0.0000  0.0000
                                         0.0000  0.0000  0.0000  0.0000  0.0000
                                         0.0000  0.0000  0.0000  0.0000  0.0000
                                         0.0000  0.0000  0.0000  0.0000  0.0000
                                         0.0000  0.0000
  10. (1.99999) CR ( 3)Br  8            s(100.00%)
                                         0.0000  0.0000  1.0000  0.0000  0.0000
                                         0.0000  0.0000  0.0000  0.0000  0.0000
                                         0.0000  0.0000  0.0000  0.0000  0.0000
                                         0.0000  0.0000  0.0000  0.0000  0.0000
                                         0.0000  0.0000  0.0000  0.0000  0.0000
                                         0.0000  0.0000
  11. (2.00000) CR ( 4)Br  8            s(  0.00%)p 1.00(100.00%)
                                         0.0000  0.0000  0.0000  0.0000  0.0000
                                         1.0000  0.0000  0.0000  0.0000  0.0000
                                         0.0000  0.0000  0.0000  0.0000  0.0000
                                         0.0000  0.0000  0.0000  0.0000  0.0000
                                         0.0000  0.0000  0.0000  0.0000  0.0000
                                         0.0000  0.0000
  12. (1.99999) CR ( 5)Br  8            s(  0.00%)p 1.00(100.00%)
                                         0.0000  0.0000  0.0000  0.0000  0.0000
                                         0.0000  1.0000  0.0000  0.0000  0.0000
                                         0.0000  0.0000  0.0000  0.0000  0.0000
                                         0.0000  0.0000  0.0000  0.0000  0.0000
                                         0.0000  0.0000  0.0000  0.0000  0.0000
                                         0.0000  0.0000
  13. (2.00000) CR ( 6)Br  8            s(  0.00%)p 1.00(100.00%)
                                         0.0000  0.0000  0.0000  0.0000  0.0000
                                         0.0000  0.0000  0.0000  0.0000  1.0000
                                         0.0000  0.0000  0.0000  0.0000  0.0000
                                         0.0000  0.0000  0.0000  0.0000  0.0000
                                         0.0000  0.0000  0.0000  0.0000  0.0000
                                         0.0000  0.0000
  14. (1.99999) CR ( 7)Br  8            s(  0.00%)p 1.00(100.00%)
                                         0.0000  0.0000  0.0000  0.0000  0.0000
                                         0.0000  0.0000  0.0000  0.0000  0.0000
                                         1.0000  0.0000  0.0000  0.0000  0.0000
                                         0.0000  0.0000  0.0000  0.0000  0.0000
                                         0.0000  0.0000  0.0000  0.0000  0.0000
                                         0.0000  0.0000
  15. (2.00000) CR ( 8)Br  8            s(  0.00%)p 1.00(100.00%)
                                         0.0000  0.0000  0.0000  0.0000  0.0000
                                         0.0000  0.0000  0.0000  0.0000  0.0000
                                         0.0000  0.0000  0.0000  1.0000  0.0000
                                         0.0000  0.0000  0.0000  0.0000  0.0000
                                         0.0000  0.0000  0.0000  0.0000  0.0000
                                         0.0000  0.0000
  16. (2.00000) CR ( 9)Br  8            s(  0.00%)p 1.00(100.00%)
                                         0.0000  0.0000  0.0000  0.0000  0.0000
                                         0.0000  0.0000  0.0000  0.0000  0.0000
                                         0.0000  0.0000  0.0000  0.0000  1.0000
                                         0.0000  0.0000  0.0000  0.0000  0.0000
                                         0.0000  0.0000  0.0000  0.0000  0.0000
                                         0.0000  0.0000
  17. (1.99968) CR (10)Br  8            s(  0.00%)p 0.00(  0.00%)d 1.00(100.00%)
                                         0.0000  0.0000  0.0000  0.0000  0.0000
                                         0.0000  0.0000  0.0000  0.0000  0.0000
                                         0.0000  0.0000  0.0000  0.0000  0.0000
                                         0.0000  0.0000  1.0000  0.0000  0.0000
                                         0.0000  0.0000  0.0000  0.0000  0.0000
                                         0.0000  0.0000
  18. (1.99987) CR (11)Br  8            s(  0.00%)p 0.00(  0.00%)d 1.00(100.00%)
                                         0.0000  0.0000  0.0000  0.0000  0.0000
                                         0.0000  0.0000  0.0000  0.0000  0.0000
                                         0.0000  0.0000  0.0000  0.0000  0.0000
                                         0.0000  0.0000  0.0000  0.0000  1.0000
                                         0.0000  0.0000  0.0000  0.0000  0.0000
                                         0.0000  0.0000
  19. (1.99999) CR (12)Br  8            s(  0.00%)p 0.00(  0.00%)d 1.00(100.00%)
                                         0.0000  0.0000  0.0000  0.0000  0.0000
                                         0.0000  0.0000  0.0000  0.0000  0.0000
                                         0.0000  0.0000  0.0000  0.0000  0.0000
                                         0.0000  0.0000  0.0000  0.0000  0.0000
                                         0.0000  1.0000  0.0000  0.0000  0.0000
                                         0.0000  0.0000
  20. (1.99944) CR (13)Br  8            s(  0.00%)p 0.00(  0.00%)d 1.00(100.00%)
                                         0.0000  0.0000  0.0000  0.0000  0.0000
                                         0.0000  0.0000  0.0000  0.0000  0.0000
                                         0.0000  0.0000  0.0000  0.0000  0.0000
                                         0.0000  0.0000  0.0000  0.0000  0.0000
                                         0.0000  0.0000  0.0000  1.0000  0.0000
                                         0.0000  0.0000
  21. (1.99980) CR (14)Br  8            s(  0.00%)p 0.00(  0.00%)d 1.00(100.00%)
                                         0.0000  0.0000  0.0000  0.0000  0.0000
                                         0.0000  0.0000  0.0000  0.0000  0.0000
                                         0.0000  0.0000  0.0000  0.0000  0.0000
                                         0.0000  0.0000  0.0000  0.0000  0.0000
                                         0.0000  0.0000  0.0000  0.0000  0.0000
                                         1.0000  0.0000
  22. (1.99986) CR ( 1) C  9            s(100.00%)
                                         1.0000  0.0000  0.0000  0.0000  0.0000
                                         0.0000  0.0000  0.0000  0.0000
  23. (1.99983) CR ( 1) C 10            s(100.00%)
                                         1.0000  0.0000  0.0000  0.0000  0.0000
                                         0.0000  0.0000  0.0000  0.0000
  24. (1.99990) CR ( 1) C 11            s(100.00%)
                                         1.0000  0.0000  0.0000  0.0000  0.0000
                                         0.0000  0.0000  0.0000  0.0000
  25. (1.98065) LP ( 1) O  1            s( 56.15%)p 0.78( 43.78%)d 0.00(  0.07%)
                                         0.0000  0.7493 -0.0073  0.4336 -0.0012
                                         0.4998 -0.0011  0.0000  0.0000 -0.0211
                                         0.0000  0.0000  0.0031  0.0154
  26. (1.87328) LP ( 2) O  1            s(  0.02%)p99.99( 99.79%)d 8.03(  0.19%)
                                         0.0000  0.0153 -0.0013 -0.7658  0.0034
                                         0.6414 -0.0027  0.0000  0.0000  0.0079
                                         0.0000  0.0000  0.0429  0.0000
  27. (1.99733) LP ( 1)Br  8            s( 87.56%)p 0.14( 12.44%)d 0.00(  0.00%)
                                         0.0000  0.0000  0.0000  0.9357 -0.0094
                                         0.0000  0.0000 -0.3499 -0.0135  0.0000
                                         0.0000 -0.0417 -0.0017  0.0000  0.0000
                                         0.0000  0.0000  0.0000 -0.0009  0.0000
                                         0.0000  0.0000  0.0000  0.0000 -0.0037
                                         0.0000  0.0009
  28. (1.98256) LP ( 2)Br  8            s(  0.00%)p 1.00( 99.98%)d 0.00(  0.02%)
                                         0.0000  0.0000  0.0000  0.0019 -0.0003
                                         0.0000  0.0000  0.1234 -0.0021  0.0000
                                         0.0000 -0.9921  0.0160  0.0000  0.0000
                                         0.0000  0.0000  0.0000 -0.0144  0.0000
                                         0.0000  0.0000  0.0000  0.0000  0.0035
                                         0.0000 -0.0001
  29. (1.94029) LP ( 3)Br  8            s(  0.00%)p 1.00( 99.97%)d 0.00(  0.03%)
                                         0.0000  0.0000  0.0000  0.0000  0.0000
                                         0.0000  0.0000  0.0000  0.0000  0.0000
                                         0.0000  0.0000  0.0000  0.0000  0.0000
                                         0.9998 -0.0139  0.0000  0.0000  0.0000
                                         0.0170  0.0000  0.0020  0.0000  0.0000
                                         0.0000  0.0000
  30. (1.99750) BD ( 1) O  1- C  2
               ( 65.62%)   0.8101* O  1 s( 43.79%)p 1.27( 55.80%)d 0.01(  0.41%)
                                         0.0000  0.6616  0.0130 -0.4719  0.0026
                                        -0.5791  0.0029  0.0000  0.0000  0.0550
                                         0.0000  0.0000 -0.0111 -0.0302
               ( 34.38%)   0.5863* C  2 s( 32.33%)p 2.09( 67.67%)
                                         0.0000  0.5670  0.0435  0.5203  0.0578
                                         0.6310  0.0661  0.0000  0.0000
  31. (1.97917) BD ( 2) O  1- C  2
               ( 64.20%)   0.8012* O  1 s(  0.00%)p 1.00( 99.67%)d 0.00(  0.33%)
                                         0.0000  0.0000  0.0000  0.0000  0.0000
                                         0.0000  0.0000  0.9982  0.0126  0.0000
                                        -0.0367 -0.0446  0.0000  0.0000
               ( 35.80%)   0.5983* C  2 s(  0.00%)p 1.00(100.00%)
                                         0.0000  0.0000  0.0000  0.0000  0.0000
                                         0.0000  0.0000  0.9991 -0.0428
  32. (1.98620) BD ( 1) C  2- C  3
               ( 47.61%)   0.6900* C  2 s( 32.87%)p 2.04( 67.13%)
                                         0.0000  0.5728 -0.0234  0.2965  0.0306
                                        -0.7628  0.0241  0.0000  0.0000
               ( 52.39%)   0.7238* C  3 s( 25.11%)p 2.98( 74.89%)
                                         0.0000  0.5011 -0.0011 -0.2060  0.0165
                                         0.8402  0.0118  0.0000  0.0000
  33. (1.97948) BD ( 1) C  2- C 11
               ( 46.84%)   0.6844* C  2 s( 34.33%)p 1.91( 65.67%)
                                         0.0000  0.5859 -0.0056 -0.7994  0.0013
                                         0.1303  0.0256  0.0000  0.0000
               ( 53.16%)   0.7291* C 11 s( 30.79%)p 2.25( 69.21%)
                                         0.0000  0.5548 -0.0064  0.8301 -0.0122
                                         0.0494  0.0215  0.0000  0.0000
  34. (1.98432) BD ( 1) C  3- C  4
               ( 49.59%)   0.7042* C  3 s( 26.77%)p 2.74( 73.23%)
                                         0.0000  0.5174  0.0078 -0.7070  0.0005
                                        -0.4816 -0.0211  0.0000  0.0000
               ( 50.41%)   0.7100* C  4 s( 26.09%)p 2.83( 73.91%)
                                         0.0000  0.5107  0.0031  0.7564  0.0143
                                         0.4081 -0.0168  0.0000  0.0000
  35. (1.97233) BD ( 1) C  3- H 12
               ( 63.96%)   0.7997* C  3 s( 24.05%)p 3.16( 75.95%)
                                         0.0000  0.4904 -0.0011  0.4783  0.0029
                                        -0.1752 -0.0029 -0.7070  0.0122
               ( 36.04%)   0.6004* H 12 s(100.00%)
                                         1.0000  0.0003
  36. (1.97233) BD ( 1) C  3- H 13
               ( 63.96%)   0.7997* C  3 s( 24.05%)p 3.16( 75.95%)
                                         0.0000  0.4904 -0.0011  0.4783  0.0029
                                        -0.1752 -0.0029  0.7070 -0.0122
               ( 36.04%)   0.6004* H 13 s(100.00%)
                                         1.0000  0.0003
  37. (1.97595) BD ( 1) C  4- C  5
               ( 49.08%)   0.7006* C  4 s( 26.20%)p 2.82( 73.80%)
                                         0.0000  0.5117  0.0096 -0.6487 -0.0233
                                         0.5627  0.0039  0.0000  0.0000
               ( 50.92%)   0.7136* C  5 s( 31.21%)p 2.20( 68.79%)
                                         0.0000  0.5586 -0.0070  0.5496 -0.0297
                                        -0.6204 -0.0056  0.0000  0.0000
  38. (1.97608) BD ( 1) C  4- H 14
               ( 63.67%)   0.7980* C  4 s( 23.86%)p 3.19( 76.14%)
                                         0.0000  0.4885 -0.0045 -0.0558  0.0039
                                        -0.5082 -0.0025  0.7070 -0.0142
               ( 36.33%)   0.6027* H 14 s(100.00%)
                                         1.0000  0.0015
  39. (1.97608) BD ( 1) C  4- H 15
               ( 63.67%)   0.7980* C  4 s( 23.86%)p 3.19( 76.14%)
                                         0.0000  0.4885 -0.0045 -0.0557  0.0039
                                        -0.5082 -0.0025 -0.7070  0.0142
               ( 36.33%)   0.6027* H 15 s(100.00%)
                                         1.0000  0.0015
  40. (1.96993) BD ( 1) C  5- C  6
               ( 50.85%)   0.7131* C  5 s( 36.32%)p 1.75( 63.68%)
                                         0.0000  0.6026  0.0102 -0.7833 -0.0018
                                        -0.1511 -0.0216  0.0000  0.0000
               ( 49.15%)   0.7011* C  6 s( 35.58%)p 1.81( 64.42%)
                                         0.0000  0.5964  0.0100  0.7980  0.0250
                                         0.0784 -0.0238  0.0000  0.0000
  41. (1.96637) BD ( 1) C  5- C 11
               ( 50.08%)   0.7077* C  5 s( 32.45%)p 2.08( 67.55%)
                                         0.0000  0.5696 -0.0017  0.2895  0.0019
                                         0.7692  0.0093  0.0000  0.0000
               ( 49.92%)   0.7065* C 11 s( 32.77%)p 2.05( 67.23%)
                                         0.0000  0.5725  0.0032 -0.3380 -0.0050
                                        -0.7470 -0.0059  0.0000  0.0000
  42. (1.62065) BD ( 2) C  5- C 11
               ( 46.20%)   0.6797* C  5 s(  0.00%)p 1.00(100.00%)
                                         0.0000  0.0000  0.0000  0.0000  0.0000
                                         0.0000  0.0000  1.0000  0.0008
               ( 53.80%)   0.7335* C 11 s(  0.00%)p 1.00(100.00%)
                                         0.0000  0.0000  0.0000  0.0000  0.0000
                                         0.0000  0.0000  1.0000  0.0006
  43. (1.97941) BD ( 1) C  6- C  7
               ( 49.19%)   0.7014* C  6 s( 34.62%)p 1.89( 65.38%)
                                         0.0000  0.5882  0.0125 -0.5010 -0.0393
                                         0.6335 -0.0056  0.0000  0.0000
               ( 50.81%)   0.7128* C  7 s( 39.07%)p 1.56( 60.93%)
                                         0.0000  0.6251  0.0044  0.4140  0.0004
                                        -0.6611 -0.0298  0.0000  0.0000
  44. (1.68054) BD ( 2) C  6- C  7
               ( 49.03%)   0.7002* C  6 s(  0.00%)p 1.00(100.00%)
                                         0.0000  0.0000  0.0000  0.0000  0.0000
                                         0.0000  0.0000  1.0000 -0.0055
               ( 50.97%)   0.7139* C  7 s(  0.00%)p 1.00(100.00%)
                                         0.0000  0.0000  0.0000  0.0000  0.0000
                                         0.0000  0.0000  1.0000  0.0053
  45. (1.98139) BD ( 1) C  6- H 16
               ( 63.41%)   0.7963* C  6 s( 29.84%)p 2.35( 70.16%)
                                         0.0000  0.5461 -0.0147 -0.3321  0.0101
                                        -0.7686  0.0222  0.0000  0.0000
               ( 36.59%)   0.6049* H 16 s(100.00%)
                                         1.0000  0.0029
  46. (1.98725) BD ( 1) C  7-Br  8
               ( 50.28%)   0.7091* C  7 s( 21.83%)p 3.58( 78.17%)
                                         0.0000  0.4671 -0.0100 -0.8763  0.0477
                                        -0.1074  0.0062  0.0000  0.0000
               ( 49.72%)   0.7051*Br  8 s( 12.63%)p 6.87( 86.75%)d 0.05(  0.62%)
                                         0.0000  0.0000  0.0000  0.3518  0.0507
                                         0.0000  0.0000  0.9226  0.0541  0.0000
                                         0.0000  0.1154  0.0068  0.0000  0.0000
                                         0.0000  0.0000  0.0000  0.0168  0.0000
                                         0.0000  0.0000  0.0000  0.0000  0.0664
                                         0.0000 -0.0389
  47. (1.98057) BD ( 1) C  7- C  9
               ( 51.06%)   0.7146* C  7 s( 39.08%)p 1.56( 60.92%)
                                         0.0000  0.6251  0.0052  0.2422 -0.0066
                                         0.7414  0.0296  0.0000  0.0000
               ( 48.94%)   0.6996* C  9 s( 34.53%)p 1.90( 65.47%)
                                         0.0000  0.5875  0.0139 -0.3243 -0.0376
                                        -0.7403 -0.0074  0.0000  0.0000
  48. (1.97371) BD ( 1) C  9- C 10
               ( 50.25%)   0.7088* C  9 s( 35.75%)p 1.80( 64.25%)
                                         0.0000  0.5979  0.0059  0.7906  0.0157
                                         0.1272  0.0324  0.0000  0.0000
               ( 49.75%)   0.7054* C 10 s( 35.40%)p 1.83( 64.60%)
                                         0.0000  0.5949  0.0073 -0.7987 -0.0222
                                        -0.0822  0.0291  0.0000  0.0000
  49. (1.66551) BD ( 2) C  9- C 10
               ( 52.47%)   0.7244* C  9 s(  0.00%)p 1.00(100.00%)
                                         0.0000  0.0000  0.0000  0.0000  0.0000
                                         0.0000  0.0000  0.9999 -0.0126
               ( 47.53%)   0.6894* C 10 s(  0.00%)p 1.00(100.00%)
                                         0.0000  0.0000  0.0000  0.0000  0.0000
                                         0.0000  0.0000  0.9999 -0.0106
  50. (1.98180) BD ( 1) C  9- H 17
               ( 63.49%)   0.7968* C  9 s( 29.75%)p 2.36( 70.25%)
                                         0.0000  0.5453 -0.0142 -0.5179  0.0174
                                         0.6586 -0.0155  0.0000  0.0000
               ( 36.51%)   0.6042* H 17 s(100.00%)
                                         1.0000  0.0027
  51. (1.97423) BD ( 1) C 10- C 11
               ( 48.72%)   0.6980* C 10 s( 34.80%)p 1.87( 65.20%)
                                         0.0000  0.5898  0.0117  0.5033  0.0338
                                        -0.6305 -0.0027  0.0000  0.0000
               ( 51.28%)   0.7161* C 11 s( 36.43%)p 1.75( 63.57%)
                                         0.0000  0.6034  0.0117 -0.4429  0.0127
                                         0.6627  0.0147  0.0000  0.0000
  52. (1.98201) BD ( 1) C 10- H 18
               ( 63.45%)   0.7966* C 10 s( 29.84%)p 2.35( 70.16%)
                                         0.0000  0.5461 -0.0132  0.3267 -0.0100
                                         0.7709 -0.0219  0.0000  0.0000
               ( 36.55%)   0.6046* H 18 s(100.00%)
                                         1.0000  0.0044
 ---------------- non-Lewis ----------------------------------------------------
  53. (0.00893) BD*( 1) O  1- C  2
               ( 34.38%)   0.5863* O  1 s( 43.79%)p 1.27( 55.80%)d 0.01(  0.41%)
                                         0.0000 -0.6616 -0.0130  0.4719 -0.0026
                                         0.5791 -0.0029  0.0000  0.0000 -0.0550
                                         0.0000  0.0000  0.0111  0.0302
               ( 65.62%)  -0.8101* C  2 s( 32.33%)p 2.09( 67.67%)
                                         0.0000 -0.5670 -0.0435 -0.5203 -0.0578
                                        -0.6310 -0.0661  0.0000  0.0000
  54. (0.12780) BD*( 2) O  1- C  2
               ( 35.80%)   0.5983* O  1 s(  0.00%)p 1.00( 99.67%)d 0.00(  0.33%)
                                         0.0000  0.0000  0.0000  0.0000  0.0000
                                         0.0000  0.0000 -0.9982 -0.0126  0.0000
                                         0.0367  0.0446  0.0000  0.0000
               ( 64.20%)  -0.8012* C  2 s(  0.00%)p 1.00(100.00%)
                                         0.0000  0.0000  0.0000  0.0000  0.0000
                                         0.0000  0.0000 -0.9991  0.0428
  55. (0.06908) BD*( 1) C  2- C  3
               ( 52.39%)   0.7238* C  2 s( 32.87%)p 2.04( 67.13%)
                                         0.0000  0.5728 -0.0234  0.2965  0.0306
                                        -0.7628  0.0241  0.0000  0.0000
               ( 47.61%)  -0.6900* C  3 s( 25.11%)p 2.98( 74.89%)
                                         0.0000  0.5011 -0.0011 -0.2060  0.0165
                                         0.8402  0.0118  0.0000  0.0000
  56. (0.07070) BD*( 1) C  2- C 11
               ( 53.16%)   0.7291* C  2 s( 34.33%)p 1.91( 65.67%)
                                         0.0000  0.5859 -0.0056 -0.7994  0.0013
                                         0.1303  0.0256  0.0000  0.0000
               ( 46.84%)  -0.6844* C 11 s( 30.79%)p 2.25( 69.21%)
                                         0.0000  0.5548 -0.0064  0.8301 -0.0122
                                         0.0494  0.0215  0.0000  0.0000
  57. (0.00893) BD*( 1) C  3- C  4
               ( 50.41%)   0.7100* C  3 s( 26.77%)p 2.74( 73.23%)
                                         0.0000  0.5174  0.0078 -0.7070  0.0005
                                        -0.4816 -0.0211  0.0000  0.0000
               ( 49.59%)  -0.7042* C  4 s( 26.09%)p 2.83( 73.91%)
                                         0.0000  0.5107  0.0031  0.7564  0.0143
                                         0.4081 -0.0168  0.0000  0.0000
[...]
    4. CR ( 1) C  4             1.99976   -10.24923  96(g)
    5. CR ( 1) C  5             1.99990   -10.26461
    6. CR ( 1) C  6             1.99984   -10.25567
    7. CR ( 1) C  7             1.99989   -10.30700
    8. CR ( 1)Br  8             2.00000   -19.96936
    9. CR ( 2)Br  8             2.00000  -451.87980
   10. CR ( 3)Br  8             1.99999   -79.78933
   11. CR ( 4)Br  8             2.00000    -7.18241
   12. CR ( 5)Br  8             1.99999   -55.67551
   13. CR ( 6)Br  8             2.00000    -7.16800
   14. CR ( 7)Br  8             1.99999   -55.67193
   15. CR ( 8)Br  8             2.00000    -7.16807
   16. CR ( 9)Br  8             2.00000   -55.67191
   17. CR (10)Br  8             1.99968    -2.77897
   18. CR (11)Br  8             1.99987    -2.77908
   19. CR (12)Br  8             1.99999    -2.76780
   20. CR (13)Br  8             1.99944    -2.77918  111(g)
   21. CR (14)Br  8             1.99980    -2.77164
   22. CR ( 1) C  9             1.99986   -10.25375
   23. CR ( 1) C 10             1.99983   -10.25611
   24. CR ( 1) C 11             1.99990   -10.24579
   25. LP ( 1) O  1             1.98065    -0.63132  85(v),56(v),55(v)
   26. LP ( 2) O  1             1.87328    -0.32415  55(v),56(v),57(r)
   27. LP ( 1)Br  8             1.99733    -0.76565  106(v)
   28. LP ( 2)Br  8             1.98256    -0.36828  70(v),66(v),105(v)
   29. LP ( 3)Br  8             1.94029    -0.36313  67(v)
   30. BD ( 1) O  1- C  2       1.99750    -1.02115  56(g),55(g)
   31. BD ( 2) O  1- C  2       1.97917    -0.45772  65(v),58(v),59(v)
   32. BD ( 1) C  2- C  3       1.98620    -0.65049  74(v),76(v),60(v),126(v)
                                                     127(v),58(g),59(g),57(g)
                                                     95(v)
   33. BD ( 1) C  2- C 11       1.97948    -0.67771  74(g),63(v),64(g),122(v)
                                                     97(v),71(v),89(v),76(v)
                                                     60(v),57(v),53(g)
   34. BD ( 1) C  3- C  4       1.98432    -0.62596  53(v),63(v),60(g),61(g)
                                                     62(g),58(g),59(g),86(v)
                                                     64(v),98(v),56(v)
   35. BD ( 1) C  3- H 12       1.97233    -0.56780  54(v),56(v),62(v),94(v)
                                                     61(v),88(v)
   36. BD ( 1) C  3- H 13       1.97233    -0.56780  54(v),56(v),61(v),94(v)
                                                     62(v),88(v)
   37. BD ( 1) C  4- C  5       1.97595    -0.64740  63(g),74(v),64(g),101(v)
                                                     55(v),66(v),126(v),57(g)
                                                     56(v),61(g),62(g),91(v)
                                                     127(v)
   38. BD ( 1) C  4- H 14       1.97608    -0.57008  65(v),64(v),99(v),90(v)
                                                     60(g),58(v),59(v)
   39. BD ( 1) C  4- H 15       1.97608    -0.57008  65(v),64(v),99(v),90(v)
                                                     60(g),59(v),58(v)
   40. BD ( 1) C  5- C  6       1.96993    -0.71229  64(g),69(v),66(g),60(g)
                                                     68(g),105(v),127(v),56(v)
                                                     93(v),106(v)
   41. BD ( 1) C  5- C 11       1.96637    -0.69205  74(g),63(g),53(v),68(v)
                                                     60(g),102(v),56(g),75(v)
                                                     122(v),86(v),93(v),123(v)
                                                     57(v),87(v)
   42. BD ( 2) C  5- C 11       1.62065    -0.31598  72(v),67(v),54(v),61(v)
                                                     62(v),125(v),104(v)
   43. BD ( 1) C  6- C  7       1.97941    -0.73162  70(g),63(g),60(v),68(g)
                                                     98(v),73(v),118(v),97(v)
                                                     119(v)
   44. BD ( 2) C  6- C  7       1.68054    -0.34080  65(v),72(v),109(v),121(v)
                                                     99(v)
   45. BD ( 1) C  6- H 16       1.98139    -0.59088  64(v),70(v),97(v),106(v)
                                                     63(g),66(g),69(v)
   46. BD ( 1) C  7-Br  8       1.98725    -0.63552  118(v),101(v),63(v),71(v)
   47. BD ( 1) C  7- C  9       1.98057    -0.73222  66(g),71(g),123(v),73(g)
                                                     68(v),75(v),101(v),102(v)
   48. BD ( 1) C  9- C 10       1.97371    -0.70862  69(v),56(v),70(g),74(g)
                                                     126(v),73(g),105(v),75(g)
                                                     106(v)
   49. BD ( 2) C  9- C 10       1.66551    -0.32480  67(v),65(v),129(v),107(v)
   50. BD ( 1) C  9- H 17       1.98180    -0.58782  66(v),74(v),106(v),122(v)
                                                     71(g),70(g),69(v)
   51. BD ( 1) C 10- C 11       1.97423    -0.70250  64(g),56(g),71(g),119(v)
                                                     85(v),73(v),75(g),60(v)
                                                     98(v),97(v)
   52. BD ( 1) C 10- H 18       1.98201    -0.58508  64(v),70(v),118(v),74(g)
                                                     71(g),126(v),127(v)
 ------ non-Lewis ----------------------------------
   53. BD*( 1) O  1- C  2       0.00893     0.70486
   54. BD*( 2) O  1- C  2       0.12780     0.08725
   55. BD*( 1) C  2- C  3       0.06908     0.46439
   56. BD*( 1) C  2- C 11       0.07070     0.54817
   57. BD*( 1) C  3- C  4       0.00893     0.45479
   58. BD*( 1) C  3- H 12       0.00750     0.53978
   59. BD*( 1) C  3- H 13       0.00750     0.53976
   60. BD*( 1) C  4- C  5       0.02346     0.50809
   61. BD*( 1) C  4- H 14       0.01085     0.53489
   62. BD*( 1) C  4- H 15       0.01085     0.53489
   63. BD*( 1) C  5- C  6       0.02368     0.68409
   64. BD*( 1) C  5- C 11       0.02649     0.66027
   65. BD*( 2) C  5- C 11       0.37246     0.06559
   66. BD*( 1) C  6- C  7       0.02145     0.64934
   67. BD*( 2) C  6- C  7       0.37220     0.04256
   68. BD*( 1) C  6- H 16       0.01299     0.57368
   69. BD*( 1) C  7-Br  8       0.02458     0.16957
   70. BD*( 1) C  7- C  9       0.02202     0.64639
   71. BD*( 1) C  9- C 10       0.01510     0.67832
   72. BD*( 2) C  9- C 10       0.29131     0.06824
   73. BD*( 1) C  9- H 17       0.01156     0.58185
   74. BD*( 1) C 10- C 11       0.02248     0.68004
   75. BD*( 1) C 10- H 18       0.01307     0.58797
   76. RY ( 1) O  1             0.00178     1.78601
   77. RY ( 2) O  1             0.00057     1.99446
   78. RY ( 3) O  1             0.00016     1.66948
   79. RY ( 4) O  1             0.00005     2.46533
   80. RY ( 5) O  1             0.00002     2.18295
   81. RY ( 6) O  1             0.00001     1.95724
   82. RY ( 7) O  1             0.00001     2.00587
   83. RY ( 8) O  1             0.00000     1.88691
   84. RY ( 9) O  1             0.00000     1.86695
   85. RY ( 1) C  2             0.01653     0.98381
   86. RY ( 2) C  2             0.00512     1.13258
   87. RY ( 3) C  2             0.00124     0.94493
   88. RY ( 4) C  2             0.00103     0.92491
   89. RY ( 1) C  3             0.00220     1.04075
   90. RY ( 2) C  3             0.00129     1.10398
   91. RY ( 3) C  3             0.00073     1.01547
   92. RY ( 4) C  3             0.00038     1.12963
   93. RY ( 1) C  4             0.00204     0.97665
   94. RY ( 2) C  4             0.00123     1.11139
   95. RY ( 3) C  4             0.00106     0.95165
   96. RY ( 4) C  4             0.00023     1.20724
   97. RY ( 1) C  5             0.00435     1.50966
   98. RY ( 2) C  5             0.00314     1.26067
   99. RY ( 3) C  5             0.00094     0.98820
  100. RY ( 4) C  5             0.00067     0.76617
  101. RY ( 1) C  6             0.00562     1.33100
  102. RY ( 2) C  6             0.00377     1.00373
  103. RY ( 3) C  6             0.00060     0.71311
  104. RY ( 4) C  6             0.00033     0.92630
  105. RY ( 1) C  7             0.00652     1.09144
  106. RY ( 2) C  7             0.00518     1.35512
  107. RY ( 3) C  7             0.00081     0.93704
  108. RY ( 4) C  7             0.00039     0.71037
  109. RY ( 1)Br  8             0.00188     0.67471
  110. RY ( 2)Br  8             0.00093     0.74081
  111. RY ( 3)Br  8             0.00059     1.11502
  112. RY ( 4)Br  8             0.00025     0.81088
  113. RY ( 5)Br  8             0.00010     0.93141
  114. RY ( 6)Br  8             0.00004     0.64175
  115. RY ( 7)Br  8             0.00003     0.66969
  116. RY ( 8)Br  8             0.00002     0.76156
  117. RY ( 9)Br  8             0.00001     0.71333
  118. RY ( 1) C  9             0.00534     1.33657
  119. RY ( 2) C  9             0.00331     1.02542
  120. RY ( 3) C  9             0.00043     0.71872
  121. RY ( 4) C  9             0.00032     0.92546
  122. RY ( 1) C 10             0.00543     1.37065
  123. RY ( 2) C 10             0.00365     1.00785
  124. RY ( 3) C 10             0.00038     0.72488
  125. RY ( 4) C 10             0.00020     0.92732
  126. RY ( 1) C 11             0.00447     1.40369
  127. RY ( 2) C 11             0.00393     1.46913
  128. RY ( 3) C 11             0.00116     0.80928
  129. RY ( 4) C 11             0.00031     0.99996
  130. RY ( 1) H 12             0.00141     0.60625
  131. RY ( 1) H 13             0.00141     0.60625
  132. RY ( 1) H 14             0.00109     0.60350
  133. RY ( 1) H 15             0.00109     0.60350
  134. RY ( 1) H 16             0.00125     0.60809
  135. RY ( 1) H 17             0.00120     0.60521
  136. RY ( 1) H 18             0.00256     0.60990
          -------------------------------
                 Total Lewis  102.31422  ( 98.3791%)
           Valence non-Lewis    1.57499  (  1.5144%)
           Rydberg non-Lewis    0.11079  (  0.1065%)
          -------------------------------
               Total unit  1  104.00000  (100.0000%)
              Charge unit  1    0.00000

 $CHOOSE
   LONE 1 2 8 3 END
   BOND D 1 2 S 2 3 S 2 11 S 3 4 S 3 12 S 3 13 S 4 5 S 4 14 S 4 15 S 5 6 D 5 11
        D 6 7 S 6 16 S 7 8 S 7 9 D 9 10 S 9 17 S 10 11 S 10 18 END
 $END


 Checkpoint NBOs sorted by occupancy:

  Sort    Occ       Energy   Orig   Label
 -----------------------------------------------------------
    1.  2.00000   -19.96936    8.   CR ( 1)Br  8
    2.  2.00000  -451.87980    9.   CR ( 2)Br  8
    3.  2.00000    -7.18241   11.   CR ( 4)Br  8
    4.  2.00000    -7.16800   13.   CR ( 6)Br  8
    5.  2.00000    -7.16807   15.   CR ( 8)Br  8
    6.  2.00000   -55.67191   16.   CR ( 9)Br  8
    7.  1.99999   -55.67193   14.   CR ( 7)Br  8
    8.  1.99999    -2.76780   19.   CR (12)Br  8
    9.  1.99999   -79.78933   10.   CR ( 3)Br  8
   10.  1.99999   -55.67551   12.   CR ( 5)Br  8
   11.  1.99990   -10.26461    5.   CR ( 1) C  5
   12.  1.99990   -10.24579   24.   CR ( 1) C 11
   13.  1.99989   -19.13380    1.   CR ( 1) O  1
   14.  1.99989   -10.30700    7.   CR ( 1) C  7
   15.  1.99987   -10.31870    2.   CR ( 1) C  2
   16.  1.99987    -2.77908   18.   CR (11)Br  8
   17.  1.99986   -10.25375   22.   CR ( 1) C  9
   18.  1.99984   -10.25567    6.   CR ( 1) C  6
   19.  1.99983   -10.25611   23.   CR ( 1) C 10
   20.  1.99980    -2.77164   21.   CR (14)Br  8
   21.  1.99977   -10.23809    3.   CR ( 1) C  3
   22.  1.99976   -10.24923    4.   CR ( 1) C  4
   23.  1.99968    -2.77897   17.   CR (10)Br  8
   24.  1.99944    -2.77918   20.   CR (13)Br  8
   25.  1.99750    -1.02115   30.   BD ( 1) O  1- C  2
   26.  1.99733    -0.76565   27.   LP ( 1)Br  8
   27.  1.98725    -0.63552   46.   BD ( 1) C  7-Br  8
   28.  1.98620    -0.65049   32.   BD ( 1) C  2- C  3
   29.  1.98432    -0.62596   34.   BD ( 1) C  3- C  4
   30.  1.98256    -0.36828   28.   LP ( 2)Br  8
   31.  1.98201    -0.58508   52.   BD ( 1) C 10- H 18
   32.  1.98180    -0.58782   50.   BD ( 1) C  9- H 17
   33.  1.98139    -0.59088   45.   BD ( 1) C  6- H 16
   34.  1.98065    -0.63132   25.   LP ( 1) O  1
   35.  1.98057    -0.73222   47.   BD ( 1) C  7- C  9
   36.  1.97948    -0.67771   33.   BD ( 1) C  2- C 11
   37.  1.97941    -0.73162   43.   BD ( 1) C  6- C  7
   38.  1.97917    -0.45772   31.   BD ( 2) O  1- C  2
   39.  1.97608    -0.57008   38.   BD ( 1) C  4- H 14
   40.  1.97608    -0.57008   39.   BD ( 1) C  4- H 15
   41.  1.97595    -0.64740   37.   BD ( 1) C  4- C  5
   42.  1.97423    -0.70250   51.   BD ( 1) C 10- C 11
   43.  1.97371    -0.70862   48.   BD ( 1) C  9- C 10
   44.  1.97233    -0.56780   35.   BD ( 1) C  3- H 12
   45.  1.97233    -0.56780   36.   BD ( 1) C  3- H 13
   46.  1.96993    -0.71229   40.   BD ( 1) C  5- C  6
   47.  1.96637    -0.69205   41.   BD ( 1) C  5- C 11
   48.  1.94029    -0.36313   29.   LP ( 3)Br  8
   49.  1.87328    -0.32415   26.   LP ( 2) O  1
   50.  1.68054    -0.34080   44.   BD ( 2) C  6- C  7
   51.  1.66551    -0.32480   49.   BD ( 2) C  9- C 10
   52.  1.62065    -0.31598   42.   BD ( 2) C  5- C 11
   53.  0.37246     0.06559   65.   BD*( 2) C  5- C 11
   54.  0.37220     0.04256   67.   BD*( 2) C  6- C  7
   55.  0.29131     0.06824   72.   BD*( 2) C  9- C 10
   56.  0.12780     0.08725   54.   BD*( 2) O  1- C  2
   57.  0.07070     0.54817   56.   BD*( 1) C  2- C 11
   58.  0.06908     0.46439   55.   BD*( 1) C  2- C  3
   59.  0.02649     0.66027   64.   BD*( 1) C  5- C 11
   60.  0.02458     0.16957   69.   BD*( 1) C  7-Br  8
   61.  0.02368     0.68409   63.   BD*( 1) C  5- C  6
   62.  0.02346     0.50809   60.   BD*( 1) C  4- C  5
   63.  0.02248     0.68004   74.   BD*( 1) C 10- C 11
   64.  0.02202     0.64639   70.   BD*( 1) C  7- C  9
   65.  0.02145     0.64934   66.   BD*( 1) C  6- C  7
   66.  0.01653     0.98381   85.   RY ( 1) C  2
   67.  0.01510     0.67832   71.   BD*( 1) C  9- C 10
   68.  0.01307     0.58797   75.   BD*( 1) C 10- H 18
   69.  0.01299     0.57368   68.   BD*( 1) C  6- H 16
   70.  0.01156     0.58185   73.   BD*( 1) C  9- H 17
   71.  0.01085     0.53489   61.   BD*( 1) C  4- H 14
   72.  0.01085     0.53489   62.   BD*( 1) C  4- H 15
   73.  0.00893     0.45479   57.   BD*( 1) C  3- C  4
   74.  0.00893     0.70486   53.   BD*( 1) O  1- C  2
   75.  0.00750     0.53978   58.   BD*( 1) C  3- H 12
   76.  0.00750     0.53976   59.   BD*( 1) C  3- H 13
   77.  0.00652     1.09144  105.   RY ( 1) C  7
   78.  0.00562     1.33100  101.   RY ( 1) C  6
   79.  0.00543     1.37065  122.   RY ( 1) C 10
   80.  0.00534     1.33657  118.   RY ( 1) C  9
   81.  0.00518     1.35512  106.   RY ( 2) C  7
   82.  0.00512     1.13258   86.   RY ( 2) C  2
   83.  0.00447     1.40369  126.   RY ( 1) C 11
   84.  0.00435     1.50966   97.   RY ( 1) C  5
   85.  0.00393     1.46913  127.   RY ( 2) C 11
   86.  0.00377     1.00373  102.   RY ( 2) C  6
   87.  0.00365     1.00785  123.   RY ( 2) C 10
   88.  0.00331     1.02542  119.   RY ( 2) C  9
   89.  0.00314     1.26067   98.   RY ( 2) C  5
   90.  0.00256     0.60990  136.   RY ( 1) H 18
   91.  0.00220     1.04075   89.   RY ( 1) C  3
   92.  0.00204     0.97665   93.   RY ( 1) C  4
   93.  0.00188     0.67471  109.   RY ( 1)Br  8
   94.  0.00178     1.78601   76.   RY ( 1) O  1
   95.  0.00141     0.60625  130.   RY ( 1) H 12
   96.  0.00141     0.60625  131.   RY ( 1) H 13
   97.  0.00129     1.10398   90.   RY ( 2) C  3
   98.  0.00125     0.60809  134.   RY ( 1) H 16
   99.  0.00124     0.94493   87.   RY ( 3) C  2
  100.  0.00123     1.11139   94.   RY ( 2) C  4
  101.  0.00120     0.60521  135.   RY ( 1) H 17
  102.  0.00116     0.80928  128.   RY ( 3) C 11
  103.  0.00109     0.60350  132.   RY ( 1) H 14
  104.  0.00109     0.60350  133.   RY ( 1) H 15
  105.  0.00106     0.95165   95.   RY ( 3) C  4
  106.  0.00103     0.92491   88.   RY ( 4) C  2
  107.  0.00094     0.98820   99.   RY ( 3) C  5
  108.  0.00093     0.74081  110.   RY ( 2)Br  8
  109.  0.00081     0.93704  107.   RY ( 3) C  7
  110.  0.00073     1.01547   91.   RY ( 3) C  3
  111.  0.00067     0.76617  100.   RY ( 4) C  5
  112.  0.00060     0.71311  103.   RY ( 3) C  6
  113.  0.00059     1.11502  111.   RY ( 3)Br  8
  114.  0.00057     1.99446   77.   RY ( 2) O  1
  115.  0.00043     0.71872  120.   RY ( 3) C  9
  116.  0.00039     0.71037  108.   RY ( 4) C  7
  117.  0.00038     1.12963   92.   RY ( 4) C  3
  118.  0.00038     0.72488  124.   RY ( 3) C 10
  119.  0.00033     0.92630  104.   RY ( 4) C  6
  120.  0.00032     0.92546  121.   RY ( 4) C  9
  121.  0.00031     0.99996  129.   RY ( 4) C 11
  122.  0.00025     0.81088  112.   RY ( 4)Br  8
  123.  0.00023     1.20724   96.   RY ( 4) C  4
  124.  0.00020     0.92732  125.   RY ( 4) C 10
  125.  0.00016     1.66948   78.   RY ( 3) O  1
  126.  0.00010     0.93141  113.   RY ( 5)Br  8
  127.  0.00005     2.46533   79.   RY ( 4) O  1
  128.  0.00004     0.64175  114.   RY ( 6)Br  8
  129.  0.00003     0.66969  115.   RY ( 7)Br  8
  130.  0.00002     0.76156  116.   RY ( 8)Br  8
  131.  0.00002     2.18295   80.   RY ( 5) O  1
  132.  0.00001     1.95724   81.   RY ( 6) O  1
  133.  0.00001     0.71333  117.   RY ( 9)Br  8
  134.  0.00001     2.00587   82.   RY ( 7) O  1
  135.  0.00000     1.88691   83.   RY ( 8) O  1
  136.  0.00000     1.86695   84.   RY ( 9) O  1

 NBO analysis completed in 0.37 CPU seconds (1 wall second)
 Maximum scratch memory used by NBO was 609528 words (4.65 MB)
 Maximum scratch memory used by G16NBO was 37008 words (0.28 MB)

 Opening RunExU unformatted file "/home/rpaton/opt/xtb/Gau-1507365.EUF"
 Read unf file /home/rpaton/opt/xtb/Gau-1507365.EUF:
 Label Gaussian matrix elements                                         IVers= 2 NLab= 2 Version=ES64L-G16RevC.01
 Title energy: -30.989950010930 gnorm: 0.000723798473 xtb: 6.7.0 (08769
 NAtoms=    18 NBasis=   136 NBsUse=   136 ICharg=     0 Multip=     1 NE=   104 Len12L=8 Len4L=8 IOpCl= 0 ICGU=111
 GAUSSIAN SCALARS                    NI= 1 NR= 1 NTot=       1 LenBuf=    2 NRI=1 N=    1000
 ALPHA ORBITAL ENERGIES              NI= 0 NR= 1 NTot=     136 LenBuf= 2048 NRI=1 N=     136
 ALPHA MO COEFFICIENTS               NI= 0 NR= 1 NTot=   18496 LenBuf= 2048 NRI=1 N=     136     136
 Store file  10524 Len=   18496.
 NPA CHARGES                         NI= 0 NR= 1 NTot=      18 LenBuf= 2048 NRI=1 N=      18
 Recovered energy= -2981.84955026     dipole=     -0.176785121838     -0.796295033105      0.000014009907
 Unable to Open any file for archive entry.
 1\1\GINC-DYNAMO\SP\RwB97XD\MIDIx\C9H7Br1O1\RPATON\26-Sep-2024\0\\# wb9
 7xd midix pop(nbo6read,savenbos,hirshfeld)\\energy: -30.989950010930 g
 norm: 0.000723798473 xtb: 6.7.0 (08769fc)\\0,1\O,0,3.85811,1.38238,-0.
 00002\C,0,3.09515,0.44898,0.\C,0,3.48339,-1.02297,0.00002\C,0,2.178,-1
 .82757,0.00001\C,0,1.09612,-0.79216,0.\C,0,-0.27164,-0.98596,0.\C,0,-1
 .08494,0.13838,0.\Br,0,-2.97418,-0.0986,0.\C,0,-0.57164,1.42978,-0.000
 01\C,0,0.79818,1.61616,-0.00001\C,0,1.62354,0.49974,0.\H,0,4.09878,-1.
 22582,-0.87719\H,0,4.09875,-1.22579,0.87727\H,0,2.09412,-2.46894,0.879
 5\H,0,2.09413,-2.46893,-0.87949\H,0,-0.70195,-1.97592,0.00001\H,0,-1.2
 4383,2.27388,-0.00002\H,0,1.22778,2.606,-0.00002\\Version=ES64L-G16Rev
 C.01\State=1-A\HF=-2981.8495503\RMSD=9.872e-09\Dipole=-0.1759625,-0.79
 64772,0.000014\Quadrupole=-4.4444752,4.4216062,0.022869,-6.9547619,0.0
 001324,-0.0000235\PG=C01 [X(C9H7Br1O1)]\\@
 The archive entry for this job was punched.


 FROM AN ANONYMOUS WRITER, ON PERSPECTIVE:

 MAN, DESPITE HIS ARTISTIC PRETENSIONS, HIS SOPHISTICATION AND MANY 
 ACCOMPLISHMENTS, OWES THE FACT OF HIS EXISTENCE TO A SIX-INCH LAYER OF 
 TOPSOIL AND THE FACT THAT IT RAINS.
 Job cpu time:       0 days  0 hours  3 minutes  2.4 seconds.
 Elapsed time:       0 days  0 hours  0 minutes  7.9 seconds.
 File lengths (MBytes):  RWF=     15 Int=      0 D2E=      0 Chk=      2 Scr=      1
 Normal termination of Gaussian 16 at Thu Sep 26 14:37:44 2024.
