 Entering Gaussian System, Link 0=/usr/local/Gaussian/G16C/g16/g16
 Input=popn/arbr32_xtbopt_popn.com
 Output=popn/arbr32_xtbopt_popn.log
 Initial command:
 /usr/local/Gaussian/G16C/g16/l1.exe "/home/rpaton/opt/xtb/Gau-1508919.inp" -scrdir="/home/rpaton/opt/xtb/"
 Entering Link 1 = /usr/local/Gaussian/G16C/g16/l1.exe PID=   1508920.
  
 Copyright (c) 1988-2019, Gaussian, Inc.  All Rights Reserved.
  
 This is part of the Gaussian(R) 16 program.  It is based on
 the Gaussian(R) 09 system (copyright 2009, Gaussian, Inc.),
 the Gaussian(R) 03 system (copyright 2003, Gaussian, Inc.),
 the Gaussian(R) 98 system (copyright 1998, Gaussian, Inc.),
 the Gaussian(R) 94 system (copyright 1995, Gaussian, Inc.),
 the Gaussian 92(TM) system (copyright 1992, Gaussian, Inc.),
 the Gaussian 90(TM) system (copyright 1990, Gaussian, Inc.),
 the Gaussian 88(TM) system (copyright 1988, Gaussian, Inc.),
 the Gaussian 86(TM) system (copyright 1986, Carnegie Mellon
 University), and the Gaussian 82(TM) system (copyright 1983,
 Carnegie Mellon University). Gaussian is a federally registered
 trademark of Gaussian, Inc.
  
 This software contains proprietary and confidential information,
 including trade secrets, belonging to Gaussian, Inc.
  
 This software is provided under written license and may be
 used, copied, transmitted, or stored only in accord with that
 written license.
  
 The following legend is applicable only to US Government
 contracts under FAR:
  
                    RESTRICTED RIGHTS LEGEND
  
 Use, reproduction and disclosure by the US Government is
 subject to restrictions as set forth in subparagraphs (a)
 and (c) of the Commercial Computer Software - Restricted
 Rights clause in FAR 52.227-19.
  
 Gaussian, Inc.
 340 Quinnipiac St., Bldg. 40, Wallingford CT 06492
  
  
 ---------------------------------------------------------------
 Warning -- This program may not be used in any manner that
 competes with the business of Gaussian, Inc. or will provide
 assistance to any competitor of Gaussian, Inc.  The licensee
 of this program is prohibited from giving any competitor of
 Gaussian, Inc. access to this program.  By using this program,
 the user acknowledges that Gaussian, Inc. is engaged in the
 business of creating and licensing software in the field of
 computational chemistry and represents and warrants to the
 licensee that it is not a competitor of Gaussian, Inc. and that
 it will not use this program in any manner prohibited above.
 ---------------------------------------------------------------
  

 Cite this work as:
 Gaussian 16, Revision C.01,
 M. J. Frisch, G. W. Trucks, H. B. Schlegel, G. E. Scuseria, 
 M. A. Robb, J. R. Cheeseman, G. Scalmani, V. Barone, 
 G. A. Petersson, H. Nakatsuji, X. Li, M. Caricato, A. V. Marenich, 
 J. Bloino, B. G. Janesko, R. Gomperts, B. Mennucci, H. P. Hratchian, 
 J. V. Ortiz, A. F. Izmaylov, J. L. Sonnenberg, D. Williams-Young, 
 F. Ding, F. Lipparini, F. Egidi, J. Goings, B. Peng, A. Petrone, 
 T. Henderson, D. Ranasinghe, V. G. Zakrzewski, J. Gao, N. Rega, 
 G. Zheng, W. Liang, M. Hada, M. Ehara, K. Toyota, R. Fukuda, 
 J. Hasegawa, M. Ishida, T. Nakajima, Y. Honda, O. Kitao, H. Nakai, 
 T. Vreven, K. Throssell, J. A. Montgomery, Jr., J. E. Peralta, 
 F. Ogliaro, M. J. Bearpark, J. J. Heyd, E. N. Brothers, K. N. Kudin, 
 V. N. Staroverov, T. A. Keith, R. Kobayashi, J. Normand, 
 K. Raghavachari, A. P. Rendell, J. C. Burant, S. S. Iyengar, 
 J. Tomasi, M. Cossi, J. M. Millam, M. Klene, C. Adamo, R. Cammi, 
 J. W. Ochterski, R. L. Martin, K. Morokuma, O. Farkas, 
 J. B. Foresman, and D. J. Fox, Gaussian, Inc., Wallingford CT, 2019.
 
 ******************************************
 Gaussian 16:  ES64L-G16RevC.01  3-Jul-2019
                26-Sep-2024 
 ******************************************
 %nprocshared=24
 Will use up to   24 processors via shared memory.
 -----------------------------------------------
 # wb97xd midix pop(nbo6read,savenbos,hirshfeld)
 -----------------------------------------------
 1/38=1,163=2,172=1/1;
 2/12=2,17=6,18=5,40=1/2;
 3/5=20,11=2,25=1,30=1,74=-58/1,2,3;
 4//1;
 5/5=2,38=5/2;
 6/7=2,8=2,9=2,10=2,28=1,40=2,73=1,79=1,113=1,114=1,124=2103,126=1/1,12;
 99/5=1,9=1/99;
 -------------------------------------------------------------------
 energy: -35.070055548508 gnorm: 0.000457512137 xtb: 6.7.0 (08769fc)
 -------------------------------------------------------------------
 Symbolic Z-matrix:
 Charge =  0 Multiplicity = 1
 O                    -3.33889   1.85455  -0.33796 
 C                    -2.85947   0.77816  -0.09683 
 O                    -3.66348  -0.28242   0.09138 
 C                    -3.10018  -1.52289   0.4877 
 C                    -1.85316  -1.87059  -0.31733 
 C                    -0.87546  -0.74557  -0.15666 
 C                     0.49606  -0.93657  -0.14091 
 C                     1.33237   0.15731   0.01155 
 Br                    3.214    -0.11756   0.03938 
 C                     0.83095   1.44322   0.14733 
 C                    -0.53656   1.63232   0.12371 
 C                    -1.39205   0.54475  -0.02317 
 H                    -3.89463  -2.25732   0.33918 
 H                    -2.85292  -1.47691   1.55712 
 H                    -1.43314  -2.81418   0.03055 
 H                    -2.11605  -1.97998  -1.37409 
 H                     0.90922  -1.9283   -0.24618 
 H                     1.50261   2.27914   0.26412 
 H                    -0.96315   2.61914   0.21545 
 
                          Input orientation:                          
 ---------------------------------------------------------------------
 Center     Atomic      Atomic             Coordinates (Angstroms)
 Number     Number       Type             X           Y           Z
 ---------------------------------------------------------------------
      1          8           0       -3.338890    1.854550   -0.337960
      2          6           0       -2.859470    0.778160   -0.096830
      3          8           0       -3.663480   -0.282420    0.091380
      4          6           0       -3.100180   -1.522890    0.487700
      5          6           0       -1.853160   -1.870590   -0.317330
      6          6           0       -0.875460   -0.745570   -0.156660
      7          6           0        0.496060   -0.936570   -0.140910
      8          6           0        1.332370    0.157310    0.011550
      9         35           0        3.214000   -0.117560    0.039380
     10          6           0        0.830950    1.443220    0.147330
     11          6           0       -0.536560    1.632320    0.123710
     12          6           0       -1.392050    0.544750   -0.023170
     13          1           0       -3.894630   -2.257320    0.339180
     14          1           0       -2.852920   -1.476910    1.557120
     15          1           0       -1.433140   -2.814180    0.030550
     16          1           0       -2.116050   -1.979980   -1.374090
     17          1           0        0.909220   -1.928300   -0.246180
     18          1           0        1.502610    2.279140    0.264120
     19          1           0       -0.963150    2.619140    0.215450
 ---------------------------------------------------------------------
                    Distance matrix (angstroms):
                    1          2          3          4          5
     1  O    0.000000
     2  C    1.202748   0.000000
     3  O    2.203709   1.344130   0.000000
     4  C    3.485082   2.386304   1.418852   0.000000
     5  C    4.010547   2.842034   2.442660   1.524476   0.000000
     6  C    3.586360   2.502325   2.837091   2.443114   1.499127
     7  C    4.747212   3.768531   4.217066   3.697548   2.534236
     8  C    4.982314   4.238953   5.015800   4.764167   3.790533
     9  Br   6.853610   6.140676   6.879652   6.484197   5.373683
    10  C    4.218088   3.757808   4.814651   4.936339   4.289719
    11  C    2.848785   2.484781   3.666729   4.081665   3.768067
    12  C    2.367457   1.487692   2.420067   2.730171   2.476493
    13  H    4.204146   3.236634   2.003763   1.092061   2.179029
    14  H    3.863434   2.796593   2.057233   1.098595   2.160571
    15  H    5.056157   3.867241   3.374600   2.157646   1.089862
    16  H    4.156023   3.129122   2.724675   2.154926   1.094449
    17  H    5.689008   4.642225   4.871597   4.096123   2.763899
    18  H    4.897234   4.627199   5.768875   5.974203   5.368383
    19  H    2.556365   2.661345   3.965631   4.668772   4.607998
                    6          7          8          9         10
     6  C    0.000000
     7  C    1.384845   0.000000
     8  C    2.391234   1.385363   0.000000
     9  Br   4.142042   2.844377   1.901804   0.000000
    10  C    2.791961   2.420462   1.386875   2.850722   0.000000
    11  C    2.418227   2.781281   2.383513   4.139552   1.380725
    12  C    1.396285   2.402734   2.752050   4.653844   2.403757
    13  H    3.412716   4.610100   5.767088   7.429742   6.005157
    14  H    2.717029   3.793539   4.751433   6.399913   4.907705
    15  H    2.150628   2.697523   4.059330   5.372871   4.823401
    16  H    2.131893   3.071247   4.287144   5.820304   4.766322
    17  H    2.142883   1.079496   2.143653   2.944883   3.395309
    18  H    3.870548   3.393815   2.143580   2.953563   1.078670
    19  H    3.386359   3.859969   3.372179   4.996910   2.146211
                   11         12         13         14         15
    11  C    0.000000
    12  C    1.391490   0.000000
    13  H    5.143186   3.774361   0.000000
    14  H    4.133703   2.952722   1.782576   0.000000
    15  H    4.536948   3.359611   2.542495   2.476789   0.000000
    16  H    4.217452   2.953544   2.485067   3.063992   1.770669
    17  H    3.860714   3.385492   4.850554   4.196349   2.519526
    18  H    2.143900   3.386695   7.050908   5.894947   5.883459
    19  H    1.078985   2.131663   5.691111   4.706265   5.456743
                   16         17         18         19
    16  H    0.000000
    17  H    3.229104   0.000000
    18  H    5.823962   4.279611   0.000000
    19  H    5.000772   4.939441   2.489566   0.000000
 Stoichiometry    C9H7BrO2
 Framework group  C1[X(C9H7BrO2)]
 Deg. of freedom    51
 Full point group                 C1      NOp   1
 Largest Abelian subgroup         C1      NOp   1
 Largest concise Abelian subgroup C1      NOp   1
                         Standard orientation:                         
 ---------------------------------------------------------------------
 Center     Atomic      Atomic             Coordinates (Angstroms)
 Number     Number       Type             X           Y           Z
 ---------------------------------------------------------------------
      1          8           0       -3.335655    1.868021   -0.296592
      2          6           0       -2.857154    0.787700   -0.071765
      3          8           0       -3.662368   -0.273269    0.108958
      4          6           0       -3.099335   -1.519732    0.486406
      5          6           0       -1.858545   -1.860443   -0.331141
      6          6           0       -0.877161   -0.739670   -0.163403
      7          6           0        0.493982   -0.933945   -0.159184
      8          6           0        1.333852    0.156109    0.000916
      9         35           0        3.214977   -0.123330    0.012771
     10          6           0        0.836363    1.441404    0.155654
     11          6           0       -0.530828    1.633867    0.143515
     12          6           0       -1.389825    0.550097   -0.010800
     13          1           0       -3.896478   -2.250506    0.334325
     14          1           0       -2.844821   -1.487306    1.554620
     15          1           0       -1.438418   -2.809136    0.002435
     16          1           0       -2.128753   -1.956392   -1.387361
     17          1           0        0.904106   -1.925254   -0.279252
     18          1           0        1.510744    2.274324    0.278064
     19          1           0       -0.954484    2.620461    0.250085
 ---------------------------------------------------------------------
 Rotational constants (GHZ):           1.9513622           0.3216028           0.2796685
 Standard basis: MIDIx (5D, 7F)
 There are   154 symmetry adapted cartesian basis functions of A   symmetry.
 There are   150 symmetry adapted basis functions of A   symmetry.
   150 basis functions,   261 primitive gaussians,   154 cartesian basis functions
    56 alpha electrons       56 beta electrons
       nuclear repulsion energy       915.0720541040 Hartrees.
 NAtoms=   19 NActive=   19 NUniq=   19 SFac= 1.00D+00 NAtFMM=   60 NAOKFM=F Big=F
 Integral buffers will be    131072 words long.
 Raffenetti 2 integral format.
 Two-electron integral symmetry is turned on.
 Nuclear repulsion after empirical dispersion term =      915.0606069246 Hartrees.
 One-electron integrals computed using PRISM.
 NBasis=   150 RedAO= T EigKep=  1.12D-03  NBF=   150
 NBsUse=   150 1.00D-06 EigRej= -1.00D+00 NBFU=   150
 ExpMin= 1.47D-01 ExpMax= 6.10D+03 ExpMxC= 6.10D+03 IAcc=3 IRadAn=         5 AccDes= 0.00D+00
 Harris functional with IExCor= 4639 and IRadAn=       5 diagonalized for initial guess.
 HarFok:  IExCor= 4639 AccDes= 0.00D+00 IRadAn=         5 IDoV= 1 UseB2=F ITyADJ=14
 ICtDFT=  3500011 ScaDFX=  1.000000  1.000000  1.000000  1.000000
 FoFCou: FMM=F IPFlag=           0 FMFlag=      100000 FMFlg1=           0
         NFxFlg=           0 DoJE=T BraDBF=F KetDBF=T FulRan=T
         wScrn=  0.000000 ICntrl=       500 IOpCl=  0 I1Cent=   200000004 NGrid=           0
         NMat0=    1 NMatS0=      1 NMatT0=    0 NMatD0=    1 NMtDS0=    0 NMtDT0=    0
 Petite list used in FoFCou.
 Requested convergence on RMS density matrix=1.00D-08 within 128 cycles.
 Requested convergence on MAX density matrix=1.00D-06.
 Requested convergence on             energy=1.00D-06.
 No special actions if energy rises.
 Integral accuracy reduced to 1.0D-05 until final iterations.
 Initial convergence to 1.0D-05 achieved.  Increase integral accuracy.
 SCF Done:  E(RwB97XD) =  -3056.64411753     A.U. after   16 cycles
            NFock= 16  Conv=0.44D-08     -V/T= 2.0024

 **********************************************************************

            Population analysis using the SCF Density.

 **********************************************************************

 Orbital symmetries:
       Occupied  (A) (A) (A) (A) (A) (A) (A) (A) (A) (A) (A) (A)
                 (A) (A) (A) (A) (A) (A) (A) (A) (A) (A) (A) (A)
                 (A) (A) (A) (A) (A) (A) (A) (A) (A) (A) (A) (A)
                 (A) (A) (A) (A) (A) (A) (A) (A) (A) (A) (A) (A)
                 (A) (A) (A) (A) (A) (A) (A) (A)
       Virtual   (A) (A) (A) (A) (A) (A) (A) (A) (A) (A) (A) (A)
                 (A) (A) (A) (A) (A) (A) (A) (A) (A) (A) (A) (A)
                 (A) (A) (A) (A) (A) (A) (A) (A) (A) (A) (A) (A)
                 (A) (A) (A) (A) (A) (A) (A) (A) (A) (A) (A) (A)
                 (A) (A) (A) (A) (A) (A) (A) (A) (A) (A) (A) (A)
                 (A) (A) (A) (A) (A) (A) (A) (A) (A) (A) (A) (A)
                 (A) (A) (A) (A) (A) (A) (A) (A) (A) (A) (A) (A)
                 (A) (A) (A) (A) (A) (A) (A) (A) (A) (A)
 The electronic state is 1-A.
 Alpha  occ. eigenvalues -- -480.15665 -62.59053 -56.17953 -56.17522 -56.17513
 Alpha  occ. eigenvalues --  -19.19782 -19.12904 -10.36399 -10.31005 -10.30675
 Alpha  occ. eigenvalues --  -10.27628 -10.26346 -10.26215 -10.26189 -10.25984
 Alpha  occ. eigenvalues --  -10.25882  -8.89897  -6.68384  -6.66955  -6.66927
 Alpha  occ. eigenvalues --   -2.78690  -2.78186  -2.78180  -2.76992  -2.76988
 Alpha  occ. eigenvalues --   -1.21386  -1.12653  -1.01270  -0.94115  -0.91162
 Alpha  occ. eigenvalues --   -0.86783  -0.85527  -0.78200  -0.74110  -0.71706
 Alpha  occ. eigenvalues --   -0.65703  -0.64241  -0.60813  -0.59289  -0.56197
 Alpha  occ. eigenvalues --   -0.54774  -0.53826  -0.52891  -0.51906  -0.51088
 Alpha  occ. eigenvalues --   -0.49800  -0.47078  -0.46810  -0.44643  -0.41673
 Alpha  occ. eigenvalues --   -0.40033  -0.37252  -0.36924  -0.34966  -0.34555
 Alpha  occ. eigenvalues --   -0.32567
 Alpha virt. eigenvalues --    0.01768   0.04971   0.07932   0.13325   0.17185
 Alpha virt. eigenvalues --    0.20088   0.20722   0.21023   0.22937   0.23384
 Alpha virt. eigenvalues --    0.24298   0.26423   0.27390   0.29414   0.32874
 Alpha virt. eigenvalues --    0.34831   0.37380   0.38940   0.39371   0.43012
 Alpha virt. eigenvalues --    0.47251   0.51026   0.53228   0.56043   0.57824
 Alpha virt. eigenvalues --    0.59027   0.60032   0.62265   0.63396   0.63502
 Alpha virt. eigenvalues --    0.64467   0.66029   0.66945   0.70952   0.71398
 Alpha virt. eigenvalues --    0.73815   0.74942   0.76797   0.79547   0.82757
 Alpha virt. eigenvalues --    0.84299   0.85276   0.86683   0.88922   0.89816
 Alpha virt. eigenvalues --    0.91685   0.93450   0.94606   0.95785   0.96775
 Alpha virt. eigenvalues --    0.97493   0.97721   0.98234   0.99045   1.01120
 Alpha virt. eigenvalues --    1.01668   1.03153   1.04027   1.06543   1.07577
 Alpha virt. eigenvalues --    1.09339   1.10678   1.12528   1.15586   1.17221
 Alpha virt. eigenvalues --    1.21809   1.29263   1.30896   1.37804   1.38227
 Alpha virt. eigenvalues --    1.44819   1.49990   1.56441   1.58023   1.61584
 Alpha virt. eigenvalues --    1.65200   1.68908   1.73024   1.73568   1.76047
 Alpha virt. eigenvalues --    1.83389   1.89188   1.90466   1.93827   1.95338
 Alpha virt. eigenvalues --    2.00205   2.04364   2.04965   2.11843   2.24204
 Alpha virt. eigenvalues --    2.33354   2.52813   2.84228   3.17066
          Condensed to atoms (all electrons):
               1          2          3          4          5          6
     1  O    8.153210   0.577511  -0.074962   0.002039  -0.000314   0.000967
     2  C    0.577511   4.064888   0.202177  -0.022491  -0.018763  -0.007514
     3  O   -0.074962   0.202177   8.581060   0.143432  -0.025586  -0.011648
     4  C    0.002039  -0.022491   0.143432   4.905088   0.325073  -0.072621
     5  C   -0.000314  -0.018763  -0.025586   0.325073   5.230978   0.261764
     6  C    0.000967  -0.007514  -0.011648  -0.072621   0.261764   5.186828
     7  C    0.000025  -0.000487   0.000248   0.001425  -0.011625   0.455412
     8  C   -0.000021   0.000087  -0.000021  -0.000062   0.001629  -0.004476
     9  Br  -0.000000   0.000001  -0.000000   0.000001  -0.000034   0.002407
    10  C    0.000601   0.003433   0.000050  -0.000076   0.000472  -0.044246
    11  C    0.000534  -0.003555   0.001732   0.000384  -0.000013  -0.014426
    12  C   -0.109824   0.264760  -0.106354  -0.005620  -0.029188   0.380034
    13  H   -0.000009   0.002767  -0.021608   0.394286  -0.038814   0.006089
    14  H    0.000033  -0.003498  -0.024219   0.385737  -0.044928  -0.001507
    15  H    0.000003   0.000422   0.002071  -0.029184   0.388092  -0.033220
    16  H   -0.000018   0.001058   0.000705  -0.030150   0.379317  -0.026847
    17  H    0.000000  -0.000011   0.000003   0.000058  -0.005417  -0.017162
    18  H   -0.000001  -0.000026   0.000000   0.000000   0.000002  -0.000041
    19  H    0.012386   0.001359   0.000296  -0.000038  -0.000044   0.002090
               7          8          9         10         11         12
     1  O    0.000025  -0.000021  -0.000000   0.000601   0.000534  -0.109824
     2  C   -0.000487   0.000087   0.000001   0.003433  -0.003555   0.264760
     3  O    0.000248  -0.000021  -0.000000   0.000050   0.001732  -0.106354
     4  C    0.001425  -0.000062   0.000001  -0.000076   0.000384  -0.005620
     5  C   -0.011625   0.001629  -0.000034   0.000472  -0.000013  -0.029188
     6  C    0.455412  -0.004476   0.002407  -0.044246  -0.014426   0.380034
     7  C    4.916348   0.468344  -0.041313  -0.033723  -0.030914   0.002498
     8  C    0.468344   5.059188   0.215079   0.448807  -0.019139  -0.063056
     9  Br  -0.041313   0.215079  34.916530  -0.038663   0.001793   0.000353
    10  C   -0.033723   0.448807  -0.038663   5.001975   0.459199  -0.023824
    11  C   -0.030914  -0.019139   0.001793   0.459199   4.930134   0.413166
    12  C    0.002498  -0.063056   0.000353  -0.023824   0.413166   5.544775
    13  H    0.000017  -0.000002  -0.000000   0.000001  -0.000001  -0.000445
    14  H   -0.000236   0.000026   0.000000  -0.000025  -0.000001   0.000744
    15  H   -0.004282   0.000189  -0.000009  -0.000002   0.000001   0.003444
    16  H   -0.003150  -0.000006   0.000001  -0.000002   0.000005  -0.005121
    17  H    0.391452  -0.018851   0.000748   0.002518  -0.000001   0.002799
    18  H    0.002598  -0.021467   0.000530   0.395144  -0.017518   0.002971
    19  H    0.000123   0.002355  -0.000047  -0.012721   0.388738  -0.031604
              13         14         15         16         17         18
     1  O   -0.000009   0.000033   0.000003  -0.000018   0.000000  -0.000001
     2  C    0.002767  -0.003498   0.000422   0.001058  -0.000011  -0.000026
     3  O   -0.021608  -0.024219   0.002071   0.000705   0.000003   0.000000
     4  C    0.394286   0.385737  -0.029184  -0.030150   0.000058   0.000000
     5  C   -0.038814  -0.044928   0.388092   0.379317  -0.005417   0.000002
     6  C    0.006089  -0.001507  -0.033220  -0.026847  -0.017162  -0.000041
     7  C    0.000017  -0.000236  -0.004282  -0.003150   0.391452   0.002598
     8  C   -0.000002   0.000026   0.000189  -0.000006  -0.018851  -0.021467
     9  Br  -0.000000   0.000000  -0.000009   0.000001   0.000748   0.000530
    10  C    0.000001  -0.000025  -0.000002  -0.000002   0.002518   0.395144
    11  C   -0.000001  -0.000001   0.000001   0.000005  -0.000001  -0.017518
    12  C   -0.000445   0.000744   0.003444  -0.005121   0.002799   0.002971
    13  H    0.481916  -0.030524   0.000045  -0.003826   0.000000   0.000000
    14  H   -0.030524   0.513947  -0.001038   0.004584  -0.000011  -0.000000
    15  H    0.000045  -0.001038   0.478334  -0.020937   0.003114  -0.000000
    16  H   -0.003826   0.004584  -0.020937   0.470108   0.000205  -0.000000
    17  H    0.000000  -0.000011   0.003114   0.000205   0.431906  -0.000057
    18  H    0.000000  -0.000000  -0.000000  -0.000000  -0.000057   0.422768
    19  H    0.000000   0.000010   0.000001   0.000003   0.000005  -0.003707
              19
     1  O    0.012386
     2  C    0.001359
     3  O    0.000296
     4  C   -0.000038
     5  C   -0.000044
     6  C    0.002090
     7  C    0.000123
     8  C    0.002355
     9  Br  -0.000047
    10  C   -0.012721
    11  C    0.388738
    12  C   -0.031604
    13  H    0.000000
    14  H    0.000010
    15  H    0.000001
    16  H    0.000003
    17  H    0.000005
    18  H   -0.003707
    19  H    0.414633
 Mulliken charges:
               1
     1  O   -0.562162
     2  C    0.937883
     3  O   -0.667376
     4  C    0.002718
     5  C   -0.412601
     6  C   -0.061884
     7  C   -0.112760
     8  C   -0.068602
     9  Br  -0.057377
    10  C   -0.158917
    11  C   -0.110118
    12  C   -0.240509
    13  H    0.210107
    14  H    0.200908
    15  H    0.212954
    16  H    0.234072
    17  H    0.208699
    18  H    0.218804
    19  H    0.226161
 Sum of Mulliken charges =  -0.00000
 Mulliken charges with hydrogens summed into heavy atoms:
               1
     1  O   -0.562162
     2  C    0.937883
     3  O   -0.667376
     4  C    0.413733
     5  C    0.034425
     6  C   -0.061884
     7  C    0.095940
     8  C   -0.068602
     9  Br  -0.057377
    10  C    0.059887
    11  C    0.116043
    12  C   -0.240509
 Electronic spatial extent (au):  <R**2>=           3408.0928
 Charge=             -0.0000 electrons
 Dipole moment (field-independent basis, Debye):
    X=              1.1962    Y=             -3.2038    Z=              0.6592  Tot=              3.4828
 Quadrupole moment (field-independent basis, Debye-Ang):
   XX=            -91.4506   YY=            -74.8475   ZZ=            -81.3634
   XY=             12.5051   XZ=             -2.0266   YZ=              1.4936
 Traceless Quadrupole moment (field-independent basis, Debye-Ang):
   XX=             -8.8968   YY=              7.7064   ZZ=              1.1904
   XY=             12.5051   XZ=             -2.0266   YZ=              1.4936
 Octapole moment (field-independent basis, Debye-Ang**2):
  XXX=            134.6931  YYY=            -10.8952  ZZZ=             -0.3681  XYY=             30.5903
  XXY=            -42.1113  XXZ=              7.1975  XZZ=             19.5456  YZZ=             -2.3186
  YYZ=              4.2584  XYZ=             -1.3714
 Hexadecapole moment (field-independent basis, Debye-Ang**3):
 XXXX=          -3066.1901 YYYY=           -682.5074 ZZZZ=           -112.9169 XXXY=            110.6674
 XXXZ=            -18.7209 YYYX=             28.8281 YYYZ=              5.4596 ZZZX=              3.3320
 ZZZY=             -2.9945 XXYY=           -618.1806 XXZZ=           -501.5219 YYZZ=           -142.2792
 XXYZ=              6.5048 YYXZ=             -8.5454 ZZXY=             -6.3481
 N-N= 9.150606069246D+02 E-N=-9.105185453169D+03  KE= 3.049373457528D+03
 There are a total of      433466 grid points.
 ElSum from          density=      111.9999960345
 ElSum from atomic densities=      111.9999912635
 Hirshfeld populations at iteration   1 (CA, CB, DipXYZ):
               1          2          3          4          5
     1  O    4.130146   4.130146   0.019531  -0.048907   0.009902
     2  C    2.897453   2.897453  -0.013598  -0.067008   0.014014
     3  O    4.067788   4.067788   0.099667  -0.029197   0.019146
     4  C    2.976471   2.976471  -0.021001   0.020945  -0.026553
     5  C    3.020091   3.020091  -0.010706  -0.001575   0.016421
     6  C    2.996849   2.996849  -0.031248  -0.052354  -0.016456
     7  C    3.024171   3.024171  -0.000026  -0.037439  -0.008513
     8  C    2.990201   2.990201   0.049787  -0.004832   0.000005
     9  Br  17.519103  17.519103   0.040637  -0.002207  -0.000749
    10  C    3.020704   3.020704   0.006482   0.041690   0.003834
    11  C    3.007976   3.007976  -0.008628   0.051865   0.003013
    12  C    3.013129   3.013129  -0.063353   0.013570  -0.007252
    13  H    0.475361   0.475361  -0.108484  -0.106581  -0.018336
    14  H    0.481332   0.481332   0.025307  -0.011336   0.141675
    15  H    0.477950   0.477950   0.051952  -0.134922   0.045086
    16  H    0.478543   0.478543  -0.041382  -0.019803  -0.147218
    17  H    0.476413   0.476413   0.048790  -0.153064  -0.019337
    18  H    0.474729   0.474729   0.087800   0.140182   0.019478
    19  H    0.471586   0.471586  -0.045717   0.156299   0.019862
       Tot  55.999998  55.999998   0.085811  -0.244672   0.048021

 Dip from Atomic Chgs              0.384774  -1.015809   0.211330
         Total Dipole              0.470585  -1.260480   0.259351

 Hirshfeld charges, spin densities, dipoles, and CM5 charges using IRadAn=      5:
              Q-H        S-H        Dx         Dy         Dz        Q-CM5   
     1  O   -0.260293   0.000000   0.019531  -0.048907   0.009902  -0.303979
     2  C    0.205095   0.000000  -0.013598  -0.067008   0.014014   0.266207
     3  O   -0.135575   0.000000   0.099667  -0.029197   0.019146  -0.214261
     4  C    0.047057   0.000000  -0.021001   0.020945  -0.026553  -0.032197
     5  C   -0.040183   0.000000  -0.010706  -0.001575   0.016421  -0.140844
     6  C    0.006302   0.000000  -0.031248  -0.052354  -0.016456  -0.004841
     7  C   -0.048343   0.000000  -0.000026  -0.037439  -0.008513  -0.100229
     8  C    0.019599   0.000000   0.049787  -0.004832   0.000005  -0.001581
     9  Br  -0.038206   0.000000   0.040637  -0.002207  -0.000749  -0.023491
    10  C   -0.041408   0.000000   0.006482   0.041690   0.003834  -0.095522
    11  C   -0.015951   0.000000  -0.008628   0.051865   0.003013  -0.068016
    12  C   -0.026258   0.000000  -0.063353   0.013570  -0.007252  -0.027504
    13  H    0.049277   0.000000  -0.108484  -0.106581  -0.018336   0.113189
    14  H    0.037336   0.000000   0.025307  -0.011336   0.141675   0.100807
    15  H    0.044099   0.000000   0.051952  -0.134922   0.045086   0.100360
    16  H    0.042913   0.000000  -0.041382  -0.019803  -0.147218   0.100591
    17  H    0.047174   0.000000   0.048790  -0.153064  -0.019337   0.105454
    18  H    0.050542   0.000000   0.087800   0.140182   0.019478   0.108104
    19  H    0.056827   0.000000  -0.045717   0.156299   0.019862   0.117757
       Tot   0.000004   0.000000   0.085811  -0.244672   0.048021   0.000004
 Hirshfeld charges with hydrogens summed into heavy atoms:
              Q-H       Q-CM5   
     1  O   -0.260293  -0.303979
     2  C    0.205095   0.266207
     3  O   -0.135575  -0.214261
     4  C    0.133670   0.181800
     5  C    0.046830   0.060106
     6  C    0.006302  -0.004841
     7  C   -0.001169   0.005224
     8  C    0.019599  -0.001581
     9  Br  -0.038206  -0.023491
    10  C    0.009135   0.012582
    11  C    0.040876   0.049741
    12  C   -0.026258  -0.027504
 
 EQQ= 0.000000000000E+00 EQD= 0.000000000000E+00 EDD= 0.279221592297E-02
 EQQ+QD+DD= 0.279221592297E-02
 
 Running external command "gaunbo6 R"
         input file       "/home/rpaton/opt/xtb/Gau-1508920.EIn"
         output file      "/home/rpaton/opt/xtb/Gau-1508920.EOu"
         message file     "/home/rpaton/opt/xtb/Gau-1508920.EMs"
         fchk file        "/home/rpaton/opt/xtb/Gau-1508920.EFC"
         mat. el file     "/home/rpaton/opt/xtb/Gau-1508920.EUF"

 Writing WrtUnf unformatted file "/home/rpaton/opt/xtb/Gau-1508920.EUF"
 Gaussian matrix elements                                         Version   2 NLab=11 Len12L=8 Len4L=8
 Write SHELL TO ATOM MAP                   from file      0 offset           0 length                  82 to matrix element file.
 Write SHELL TYPES                         from file      0 offset           0 length                  82 to matrix element file.
 Write NUMBER OF PRIMITIVES PER SHELL      from file      0 offset           0 length                  82 to matrix element file.
 Write PRIMITIVE EXPONENTS                 from file      0 offset           0 length                 147 to matrix element file.
 Write CONTRACTION COEFFICIENTS            from file      0 offset           0 length                 147 to matrix element file.
 Write P(S=P) CONTRACTION COEFFICIENTS     from file      0 offset           0 length                 147 to matrix element file.
 Write COORDINATES OF EACH SHELL           from file      0 offset           0 length                 246 to matrix element file.
 Write BONDS PER ATOM                      from file      0 offset           0 length                  19 to matrix element file.
 Write BONDED ATOMS                        from file      0 offset           0 length                  40 to matrix element file.
 Write BOND TYPES                          from file      0 offset           0 length                  40 to matrix element file.
 Write ONIOM CHARGE/MULT                   from file      0 offset           0 length                  32 to matrix element file.
 Write ONIOM ATOM LAYERS                   from file      0 offset           0 length                  19 to matrix element file.
 Write ONIOM ATOM MODIFIERS                from file      0 offset           0 length                  19 to matrix element file.
 Write ONIOM ATOM TYPES                    from file      0 offset           0 length                  19 to matrix element file.
 Write ONIOM LINK ATOMS                    from file      0 offset           0 length                  19 to matrix element file.
 Write ONIOM LINK CHARGES                  from file      0 offset           0 length                  19 to matrix element file.
 Write ONIOM LINK DISTANCES                from file      0 offset           0 length                  76 to matrix element file.
 Write SYMINF INTS                         from file      0 offset           0 length                  26 to matrix element file.
 Write ROTTR TO SO                         from file      0 offset           0 length                  12 to matrix element file.
 Write GAUSSIAN SCALARS                    from file    501 offset           0 to matrix element file.
 Write OPTIMIZATION FLAGS                  from file      0 offset           0 length                  19 to matrix element file.
 Write INTEGER ISO                         from file      0 offset           0 length                  19 to matrix element file.
 Write INTEGER SPIN                        from file      0 offset           0 length                  19 to matrix element file.
 Write REAL ZEFFECTIVE                     from file      0 offset           0 length                  19 to matrix element file.
 Write REAL QUADRUPOLEMOMENT               from file      0 offset           0 length                  19 to matrix element file.
 Write REAL GFACTOR                        from file      0 offset           0 length                  19 to matrix element file.
 Write REAL ZNUCLEAR                       from file      0 offset           0 length                  19 to matrix element file.
 Write MULLIKEN CHARGES                    from file      0 offset           0 length                  19 to matrix element file.
 Write TYPE 6 CHARGES                      from file      0 offset           0 length                  19 to matrix element file.
 Write TYPE 7 CHARGES                      from file      0 offset           0 length                  19 to matrix element file.
 Write NUCLEAR GRADIENT                    from file  10584 offset           0 length                  57 to matrix element file.
 Array NUCLEAR FORCE CONSTANTS              on  file  10585 does not exist.
 Write ELECTRIC DIPOLE MOMENT              from file      0 offset           0 length                   3 to matrix element file.
 Write NON-ADIABATIC COUPLING              from file  10810 offset           0 length                  57 to matrix element file.
 Write FINITE EM FIELD                     from file  10521 offset           0 length                  35 to matrix element file.
 Write OVERLAP                             from file  10514 offset           0 length               11325 to matrix element file.
 Write CORE HAMILTONIAN ALPHA              from file  10515 offset           0 length               11325 to matrix element file.
 Write CORE HAMILTONIAN BETA               from file  10515 offset       11325 length               11325 to matrix element file.
 Write KINETIC ENERGY                      from file  10516 offset           0 length               11325 to matrix element file.
 Write ORTHOGONAL BASIS                    from file  10685 offset           0 length               22500 to matrix element file.
 Write DIPOLE INTEGRALS                    from file  10518 offset           0 length               33975 to matrix element file.
 Array DIP VEL INTEGRALS                    on  file  10572 does not exist.
 Array R X DEL INTEGRALS                    on  file  10572 does not exist.
 Write ALPHA ORBITAL ENERGIES              from file      0 offset           0 length                 150 to matrix element file.
 Write ALPHA MO COEFFICIENTS               from file  10524 offset           0 length               22500 to matrix element file.
 Write ALPHA DENSITY MATRIX                from file      0 offset           0 length               11325 to matrix element file.
 Write ALPHA FOCK MATRIX                   from file  10536 offset           0 length               11325 to matrix element file.
 Write ENERGY-WEIGHTED DENSITY             from file  10571 offset           0 length               11325 to matrix element file.
 Write ALPHA SCF DENSITY MATRIX            from file      0 offset           0 length               11325 to matrix element file.
 Write INTEGER PARAMETERS                  from file      0 offset           0 length                   2 to matrix element file.
 No 2e integrals to process.
 Perform NBO analysis...

 *********************************** NBO 7.0 ***********************************
             N A T U R A L   A T O M I C   O R B I T A L   A N D
          N A T U R A L   B O N D   O R B I T A L   A N A L Y S I S
 **************************** Robert Paton (I101709) ***************************
  (c) Copyright 1996-2019 Board of Regents of the University of Wisconsin System
      on behalf of the Theoretical Chemistry Institute.  All rights reserved.

          Cite this program [NBO 7.0.5 (4-Jun-2019)] as:

          NBO 7.0.  E. D. Glendening, J. K. Badenhoop, A. E. Reed,
          J. E. Carpenter, J. A. Bohmann, C. M. Morales, P. Karafiloglou,
          C. R. Landis, and F. Weinhold, Theoretical Chemistry Institute,
          University of Wisconsin, Madison, WI (2018)

       /AONBO  / : Checkpoint the AO to NBO transformation
                   NBOs sorted by occupancy
       /BNDIDX / : Print bond indices based on the NAO density matrix

 Filename set to /home/rpaton/opt/xtb/Gau-1508920

 Job title:  energy: -35.070055548508 gnorm: 0.000457512137 xtb: 6.7.0 (08769fc)


 NATURAL POPULATIONS:  Natural atomic orbital occupancies

  NAO Atom No lang   Type(AO)    Occupancy      Energy
 -------------------------------------------------------
   1    O  1  s      Cor( 1s)     1.99989     -19.12274
   2    O  1  s      Val( 2s)     1.69764      -0.73136
   3    O  1  s      Ryd( 3s)     0.00086       1.79491
   4    O  1  px     Val( 2p)     1.80435      -0.31157
   5    O  1  px     Ryd( 3p)     0.00077       1.88202
   6    O  1  py     Val( 2p)     1.61548      -0.31806
   7    O  1  py     Ryd( 3p)     0.00024       1.98411
   8    O  1  pz     Val( 2p)     1.40133      -0.26205
   9    O  1  pz     Ryd( 3p)     0.00039       1.70788
  10    O  1  dxy    Ryd( 3d)     0.00441       2.29644
  11    O  1  dxz    Ryd( 3d)     0.00104       1.92107
  12    O  1  dyz    Ryd( 3d)     0.00390       2.00790
  13    O  1  dx2y2  Ryd( 3d)     0.00481       2.28051
  14    O  1  dz2    Ryd( 3d)     0.00190       2.07837

  15    C  2  s      Cor( 1s)     1.99983     -10.36010
  16    C  2  s      Val( 2s)     0.76540      -0.06247
  17    C  2  s      Ryd( 3s)     0.00430       0.74719
  18    C  2  px     Val( 2p)     0.87443       0.01903
  19    C  2  px     Ryd( 3p)     0.01389       1.03504
  20    C  2  py     Val( 2p)     0.70775       0.08759
  21    C  2  py     Ryd( 3p)     0.01709       1.08994
  22    C  2  pz     Val( 2p)     0.82374      -0.11238
  23    C  2  pz     Ryd( 3p)     0.00275       0.90191

  24    O  3  s      Cor( 1s)     1.99985     -19.19563
  25    O  3  s      Val( 2s)     1.59638      -0.77484
  26    O  3  s      Ryd( 3s)     0.00155       1.90586
  27    O  3  px     Val( 2p)     1.73809      -0.38791
  28    O  3  px     Ryd( 3p)     0.00146       1.86614
  29    O  3  py     Val( 2p)     1.39615      -0.32852
  30    O  3  py     Ryd( 3p)     0.00022       2.18358
  31    O  3  pz     Val( 2p)     1.76100      -0.37429
  32    O  3  pz     Ryd( 3p)     0.00087       1.74909
  33    O  3  dxy    Ryd( 3d)     0.00546       2.31150
  34    O  3  dxz    Ryd( 3d)     0.00263       1.90191
  35    O  3  dyz    Ryd( 3d)     0.00072       1.98924
  36    O  3  dx2y2  Ryd( 3d)     0.00189       2.13096
  37    O  3  dz2    Ryd( 3d)     0.00232       2.03704

  38    C  4  s      Cor( 1s)     1.99977     -10.30332
  39    C  4  s      Val( 2s)     1.03304      -0.21185
  40    C  4  s      Ryd( 3s)     0.00147       1.06758
  41    C  4  px     Val( 2p)     1.08590      -0.10393
  42    C  4  px     Ryd( 3p)     0.00418       1.01083
  43    C  4  py     Val( 2p)     0.85439      -0.07345
  44    C  4  py     Ryd( 3p)     0.00327       0.98900
  45    C  4  pz     Val( 2p)     1.16468      -0.12556
  46    C  4  pz     Ryd( 3p)     0.00117       0.98472

  47    C  5  s      Cor( 1s)     1.99976     -10.25828
  48    C  5  s      Val( 2s)     1.03096      -0.18276
  49    C  5  s      Ryd( 3s)     0.00090       1.17155
  50    C  5  px     Val( 2p)     1.09230      -0.10741
  51    C  5  px     Ryd( 3p)     0.00273       0.99385
  52    C  5  py     Val( 2p)     1.17869      -0.12123
  53    C  5  py     Ryd( 3p)     0.00214       0.98253
  54    C  5  pz     Val( 2p)     1.23405      -0.13742
  55    C  5  pz     Ryd( 3p)     0.00081       1.03342

  56    C  6  s      Cor( 1s)     1.99989     -10.27330
  57    C  6  s      Val( 2s)     0.84505      -0.04438
  58    C  6  s      Ryd( 3s)     0.00113       0.73488
  59    C  6  px     Val( 2p)     1.09607      -0.05085
  60    C  6  px     Ryd( 3p)     0.00511       1.42024
  61    C  6  py     Val( 2p)     1.07896      -0.05168
  62    C  6  py     Ryd( 3p)     0.00436       1.39144
  63    C  6  pz     Val( 2p)     0.97042      -0.12856
  64    C  6  pz     Ryd( 3p)     0.00136       1.00848

  65    C  7  s      Cor( 1s)     1.99985     -10.25847
  66    C  7  s      Val( 2s)     0.93060      -0.07561
  67    C  7  s      Ryd( 3s)     0.00109       0.71327
  68    C  7  px     Val( 2p)     1.08686      -0.04097
  69    C  7  px     Ryd( 3p)     0.00589       1.03641
  70    C  7  py     Val( 2p)     1.19948      -0.09085
  71    C  7  py     Ryd( 3p)     0.00612       1.31475
  72    C  7  pz     Val( 2p)     1.01709      -0.13678
  73    C  7  pz     Ryd( 3p)     0.00049       0.92888

  74    C  8  s      Cor( 1s)     1.99989     -10.30822
  75    C  8  s      Val( 2s)     0.93496      -0.15076
  76    C  8  s      Ryd( 3s)     0.00056       0.70727
  77    C  8  px     Val( 2p)     1.00015      -0.13621
  78    C  8  px     Ryd( 3p)     0.00688       1.34269
  79    C  8  py     Val( 2p)     1.11200      -0.07363
  80    C  8  py     Ryd( 3p)     0.00775       1.09510
  81    C  8  pz     Val( 2p)     1.04208      -0.16451
  82    C  8  pz     Ryd( 3p)     0.00093       0.93812

  83   Br  9  s      Cor( 3s)     2.00000     -20.11261
  84   Br  9  s      Cor( 1s)     2.00000    -451.55357
  85   Br  9  s      Cor( 2s)     1.99999     -79.97924
  86   Br  9  s      Val( 4s)     1.87198      -0.77847
  87   Br  9  s      Ryd( 5s)     0.00286       0.84279
  88   Br  9  px     Cor( 3p)     2.00000      -7.18229
  89   Br  9  px     Cor( 2p)     1.99999     -55.68014
  90   Br  9  px     Val( 4p)     1.13026      -0.24247
  91   Br  9  px     Ryd( 5p)     0.00349       0.72813
  92   Br  9  py     Cor( 3p)     2.00000      -7.16804
  93   Br  9  py     Cor( 2p)     1.99999     -55.67660
  94   Br  9  py     Val( 4p)     1.96163      -0.36734
  95   Br  9  py     Ryd( 5p)     0.00135       0.75782
  96   Br  9  pz     Cor( 3p)     2.00000      -7.16799
  97   Br  9  pz     Cor( 2p)     2.00000     -55.67654
  98   Br  9  pz     Val( 4p)     1.93998      -0.36491
  99   Br  9  pz     Ryd( 5p)     0.00074       0.72273
 100   Br  9  dxy    Cor( 3d)     1.99968      -2.78128
 101   Br  9  dxy    Ryd( 4d)     0.00108       0.91403
 102   Br  9  dxz    Cor( 3d)     1.99987      -2.78129
 103   Br  9  dxz    Ryd( 4d)     0.00206       0.71356
 104   Br  9  dyz    Cor( 3d)     1.99999      -2.77012
 105   Br  9  dyz    Ryd( 4d)     0.00008       0.64254
 106   Br  9  dx2y2  Cor( 3d)     1.99944      -2.78147
 107   Br  9  dx2y2  Ryd( 4d)     0.00463       0.98498
 108   Br  9  dz2    Cor( 3d)     1.99980      -2.77390
 109   Br  9  dz2    Ryd( 4d)     0.00159       0.75438

 110    C 10  s      Cor( 1s)     1.99986     -10.25558
 111    C 10  s      Val( 2s)     0.94385      -0.08564
 112    C 10  s      Ryd( 3s)     0.00095       0.72222
 113    C 10  px     Val( 2p)     1.13611      -0.05353
 114    C 10  px     Ryd( 3p)     0.00648       1.13329
 115    C 10  py     Val( 2p)     1.15701      -0.07315
 116    C 10  py     Ryd( 3p)     0.00510       1.21934
 117    C 10  pz     Val( 2p)     1.01104      -0.13339
 118    C 10  pz     Ryd( 3p)     0.00056       0.92738

 119    C 11  s      Cor( 1s)     1.99984     -10.25634
 120    C 11  s      Val( 2s)     0.94077      -0.07449
 121    C 11  s      Ryd( 3s)     0.00091       0.73038
 122    C 11  px     Val( 2p)     1.08374      -0.02886
 123    C 11  px     Ryd( 3p)     0.00678       1.10053
 124    C 11  py     Val( 2p)     1.19578      -0.07404
 125    C 11  py     Ryd( 3p)     0.00556       1.31379
 126    C 11  pz     Val( 2p)     0.94679      -0.12155
 127    C 11  pz     Ryd( 3p)     0.00041       0.93058

 128    C 12  s      Cor( 1s)     1.99988     -10.26032
 129    C 12  s      Val( 2s)     0.87873      -0.05490
 130    C 12  s      Ryd( 3s)     0.00171       0.72489
 131    C 12  px     Val( 2p)     1.12620      -0.07920
 132    C 12  px     Ryd( 3p)     0.00452       1.51214
 133    C 12  py     Val( 2p)     1.11009      -0.04735
 134    C 12  py     Ryd( 3p)     0.00325       1.41688
 135    C 12  pz     Val( 2p)     1.05576      -0.13760
 136    C 12  pz     Ryd( 3p)     0.00034       1.01202

 137    H 13  s      Val( 1s)     0.74599       0.11227
 138    H 13  s      Ryd( 2s)     0.00108       0.57939

 139    H 14  s      Val( 1s)     0.76278       0.09491
 140    H 14  s      Ryd( 2s)     0.00196       0.60521

 141    H 15  s      Val( 1s)     0.72738       0.10895
 142    H 15  s      Ryd( 2s)     0.00126       0.61162

 143    H 16  s      Val( 1s)     0.71989       0.11404
 144    H 16  s      Ryd( 2s)     0.00204       0.61096

 145    H 17  s      Val( 1s)     0.73450       0.13216
 146    H 17  s      Ryd( 2s)     0.00124       0.61473

 147    H 18  s      Val( 1s)     0.72979       0.14462
 148    H 18  s      Ryd( 2s)     0.00117       0.60457

 149    H 19  s      Val( 1s)     0.72540       0.15383
 150    H 19  s      Ryd( 2s)     0.00303       0.62769


 Summary of Natural Population Analysis:

                                     Natural Population
             Natural    ---------------------------------------------
  Atom No    Charge        Core      Valence    Rydberg      Total
 --------------------------------------------------------------------
    O  1   -0.53700      1.99989     6.51880    0.01831     8.53700
    C  2    0.79083      1.99983     3.17131    0.03804     5.20917
    O  3   -0.50857      1.99985     6.49161    0.01712     8.50857
    C  4   -0.14787      1.99977     4.13800    0.01010     6.14787
    C  5   -0.54235      1.99976     4.53600    0.00659     6.54235
    C  6   -0.00233      1.99989     3.99049    0.01196     6.00233
    C  7   -0.24748      1.99985     4.23404    0.01359     6.24748
    C  8   -0.10518      1.99989     4.08918    0.01611     6.10518
   Br  9    0.07951     27.99875     6.90384    0.01789    34.92049
    C 10   -0.26097      1.99986     4.24802    0.01308     6.26097
    C 11   -0.18059      1.99984     4.16708    0.01367     6.18059
    C 12   -0.18048      1.99988     4.17078    0.00982     6.18048
    H 13    0.25293      0.00000     0.74599    0.00108     0.74707
    H 14    0.23526      0.00000     0.76278    0.00196     0.76474
    H 15    0.27136      0.00000     0.72738    0.00126     0.72864
    H 16    0.27807      0.00000     0.71989    0.00204     0.72193
    H 17    0.26426      0.00000     0.73450    0.00124     0.73574
    H 18    0.26903      0.00000     0.72979    0.00117     0.73097
    H 19    0.27157      0.00000     0.72540    0.00303     0.72843
 ====================================================================
 * Total *  0.00000     49.99705    61.80491    0.19804   112.00000

                                 Natural Population
 ---------------------------------------------------------
   Core                      49.99705 ( 99.9941% of   50)
   Valence                   61.80491 ( 99.6853% of   62)
   Natural Minimal Basis    111.80196 ( 99.8232% of  112)
   Natural Rydberg Basis      0.19804 (  0.1768% of  112)
 ---------------------------------------------------------

    Atom No         Natural Electron Configuration
 ----------------------------------------------------------------------------
      O  1      [core]2s( 1.70)2p( 4.82)3d( 0.02)
      C  2      [core]2s( 0.77)2p( 2.41)3p( 0.03)
      O  3      [core]2s( 1.60)2p( 4.90)3d( 0.01)
      C  4      [core]2s( 1.03)2p( 3.10)3p( 0.01)
      C  5      [core]2s( 1.03)2p( 3.51)3p( 0.01)
      C  6      [core]2s( 0.85)2p( 3.15)3p( 0.01)
      C  7      [core]2s( 0.93)2p( 3.30)3p( 0.01)
      C  8      [core]2s( 0.93)2p( 3.15)3p( 0.02)
     Br  9      [core]4s( 1.87)4p( 5.03)4d( 0.01)5p( 0.01)
      C 10      [core]2s( 0.94)2p( 3.30)3p( 0.01)
      C 11      [core]2s( 0.94)2p( 3.23)3p( 0.01)
      C 12      [core]2s( 0.88)2p( 3.29)3p( 0.01)
      H 13            1s( 0.75)
      H 14            1s( 0.76)
      H 15            1s( 0.73)
      H 16            1s( 0.72)
      H 17            1s( 0.73)
      H 18            1s( 0.73)
      H 19            1s( 0.73)


 Wiberg bond index matrix in the NAO basis:

     Atom    1       2       3       4       5       6       7       8       9
     ---- ------  ------  ------  ------  ------  ------  ------  ------  ------
   1.  O  0.0000  1.7630  0.1711  0.0153  0.0024  0.0266  0.0015  0.0115  0.0019
   2.  C  1.7630  0.0000  1.0186  0.0067  0.0038  0.0118  0.0057  0.0026  0.0011
   3.  O  0.1711  1.0186  0.0000  0.8896  0.0184  0.0083  0.0003  0.0025  0.0004
   4.  C  0.0153  0.0067  0.8896  0.0000  1.0027  0.0075  0.0064  0.0003  0.0004
   5.  C  0.0024  0.0038  0.0184  1.0027  0.0000  1.0018  0.0125  0.0059  0.0010
   6.  C  0.0266  0.0118  0.0083  0.0075  1.0018  0.0000  1.4038  0.0146  0.0122
   7.  C  0.0015  0.0057  0.0003  0.0064  0.0125  1.4038  0.0000  1.4073  0.0361
   8.  C  0.0115  0.0026  0.0025  0.0003  0.0059  0.0146  1.4073  0.0000  1.0384
   9. Br  0.0019  0.0011  0.0004  0.0004  0.0010  0.0122  0.0361  1.0384  0.0000
  10.  C  0.0007  0.0062  0.0010  0.0013  0.0010  0.1017  0.0150  1.3940  0.0354
  11.  C  0.0237  0.0145  0.0104  0.0004  0.0064  0.0159  0.1058  0.0154  0.0131
  12.  C  0.0458  0.9947  0.0207  0.0044  0.0108  1.3527  0.0138  0.0964  0.0127
  13.  H  0.0014  0.0041  0.0075  0.9123  0.0019  0.0061  0.0004  0.0002  0.0001
  14.  H  0.0033  0.0024  0.0158  0.9110  0.0024  0.0012  0.0001  0.0000  0.0000
  15.  H  0.0011  0.0004  0.0101  0.0038  0.8986  0.0025  0.0022  0.0001  0.0001
  16.  H  0.0004  0.0001  0.0028  0.0034  0.8851  0.0024  0.0083  0.0001  0.0001
  17.  H  0.0005  0.0002  0.0000  0.0001  0.0024  0.0051  0.9005  0.0046  0.0050
  18.  H  0.0001  0.0002  0.0004  0.0000  0.0002  0.0002  0.0057  0.0043  0.0049
  19.  H  0.0074  0.0019  0.0013  0.0001  0.0003  0.0062  0.0001  0.0058  0.0010

     Atom   10      11      12      13      14      15      16      17      18
     ---- ------  ------  ------  ------  ------  ------  ------  ------  ------
   1.  O  0.0007  0.0237  0.0458  0.0014  0.0033  0.0011  0.0004  0.0005  0.0001
   2.  C  0.0062  0.0145  0.9947  0.0041  0.0024  0.0004  0.0001  0.0002  0.0002
   3.  O  0.0010  0.0104  0.0207  0.0075  0.0158  0.0101  0.0028  0.0000  0.0004
   4.  C  0.0013  0.0004  0.0044  0.9123  0.9110  0.0038  0.0034  0.0001  0.0000
   5.  C  0.0010  0.0064  0.0108  0.0019  0.0024  0.8986  0.8851  0.0024  0.0002
   6.  C  0.1017  0.0159  1.3527  0.0061  0.0012  0.0025  0.0024  0.0051  0.0002
   7.  C  0.0150  0.1058  0.0138  0.0004  0.0001  0.0022  0.0083  0.9005  0.0057
   8.  C  1.3940  0.0154  0.0964  0.0002  0.0000  0.0001  0.0001  0.0046  0.0043
   9. Br  0.0354  0.0131  0.0127  0.0001  0.0000  0.0001  0.0001  0.0050  0.0049
  10.  C  0.0000  1.4417  0.0110  0.0003  0.0001  0.0007  0.0039  0.0058  0.8994
  11.  C  1.4417  0.0000  1.3729  0.0002  0.0001  0.0001  0.0000  0.0002  0.0054
  12.  C  0.0110  1.3729  0.0000  0.0008  0.0008  0.0057  0.0073  0.0065  0.0061
  13.  H  0.0003  0.0002  0.0008  0.0000  0.0005  0.0006  0.0013  0.0000  0.0000
  14.  H  0.0001  0.0001  0.0008  0.0005  0.0000  0.0005  0.0093  0.0000  0.0000
  15.  H  0.0007  0.0001  0.0057  0.0006  0.0005  0.0000  0.0010  0.0004  0.0000
  16.  H  0.0039  0.0000  0.0073  0.0013  0.0093  0.0010  0.0000  0.0000  0.0000
  17.  H  0.0058  0.0002  0.0065  0.0000  0.0000  0.0004  0.0000  0.0000  0.0003
  18.  H  0.8994  0.0054  0.0061  0.0000  0.0000  0.0000  0.0000  0.0003  0.0000
  19.  H  0.0048  0.8946  0.0045  0.0000  0.0000  0.0002  0.0000  0.0002  0.0023

     Atom   19
     ---- ------
   1.  O  0.0074
   2.  C  0.0019
   3.  O  0.0013
   4.  C  0.0001
   5.  C  0.0003
   6.  C  0.0062
   7.  C  0.0001
   8.  C  0.0058
   9. Br  0.0010
  10.  C  0.0048
  11.  C  0.8946
  12.  C  0.0045
  13.  H  0.0000
  14.  H  0.0000
  15.  H  0.0002
  16.  H  0.0000
  17.  H  0.0002
  18.  H  0.0023
  19.  H  0.0000


 Wiberg bond index, Totals by atom:

     Atom    1
     ---- ------
   1.  O  2.0774
   2.  C  3.8381
   3.  O  2.1794
   4.  C  3.7657
   5.  C  3.8576
   6.  C  3.9805
   7.  C  3.9255
   8.  C  4.0039
   9. Br  1.1639
  10.  C  3.9241
  11.  C  3.9207
  12.  C  3.9678
  13.  H  0.9376
  14.  H  0.9476
  15.  H  0.9282
  16.  H  0.9256
  17.  H  0.9320
  18.  H  0.9293
  19.  H  0.9306


 NBI: Natural Binding Index (NCU strength parameters)

     Atom    1       2       3       4       5       6       7       8       9
     ---- ------  ------  ------  ------  ------  ------  ------  ------  ------
   1.  O  0.0000  1.3278  0.4136  0.1237  0.0488  0.1631  0.0383  0.1071  0.0438
   2.  C  1.3278  0.0000  1.0093  0.0821  0.0619  0.1086  0.0755  0.0506  0.0339
   3.  O  0.4136  1.0093  0.0000  0.9432  0.1355  0.0914  0.0184  0.0496  0.0211
   4.  C  0.1237  0.0821  0.9432  0.0000  1.0013  0.0866  0.0799  0.0187  0.0193
   5.  C  0.0488  0.0619  0.1355  1.0013  0.0000  1.0009  0.1119  0.0767  0.0313
   6.  C  0.1631  0.1086  0.0914  0.0866  1.0009  0.0000  1.1848  0.1207  0.1103
   7.  C  0.0383  0.0755  0.0184  0.0799  0.1119  1.1848  0.0000  1.1863  0.1900
   8.  C  0.1071  0.0506  0.0496  0.0187  0.0767  0.1207  1.1863  0.0000  1.0190
   9. Br  0.0438  0.0339  0.0211  0.0193  0.0313  0.1103  0.1900  1.0190  0.0000
  10.  C  0.0265  0.0789  0.0315  0.0357  0.0313  0.3189  0.1223  1.1807  0.1882
  11.  C  0.1539  0.1205  0.1021  0.0192  0.0801  0.1260  0.3253  0.1240  0.1143
  12.  C  0.2140  0.9974  0.1440  0.0667  0.1040  1.1631  0.1176  0.3105  0.1125
  13.  H  0.0373  0.0640  0.0868  0.9551  0.0435  0.0782  0.0203  0.0130  0.0101
  14.  H  0.0575  0.0494  0.1258  0.9544  0.0489  0.0343  0.0095  0.0061  0.0040
  15.  H  0.0326  0.0209  0.1007  0.0619  0.9479  0.0503  0.0469  0.0083  0.0102
  16.  H  0.0200  0.0100  0.0527  0.0587  0.9408  0.0492  0.0909  0.0094  0.0084
  17.  H  0.0216  0.0137  0.0054  0.0094  0.0495  0.0713  0.9490  0.0679  0.0710
  18.  H  0.0096  0.0125  0.0190  0.0017  0.0143  0.0127  0.0758  0.0656  0.0699
  19.  H  0.0858  0.0432  0.0364  0.0096  0.0160  0.0786  0.0111  0.0763  0.0313

     Atom   10      11      12      13      14      15      16      17      18
     ---- ------  ------  ------  ------  ------  ------  ------  ------  ------
   1.  O  0.0265  0.1539  0.2140  0.0373  0.0575  0.0326  0.0200  0.0216  0.0096
   2.  C  0.0789  0.1205  0.9974  0.0640  0.0494  0.0209  0.0100  0.0137  0.0125
   3.  O  0.0315  0.1021  0.1440  0.0868  0.1258  0.1007  0.0527  0.0054  0.0190
   4.  C  0.0357  0.0192  0.0667  0.9551  0.9544  0.0619  0.0587  0.0094  0.0017
   5.  C  0.0313  0.0801  0.1040  0.0435  0.0489  0.9479  0.9408  0.0495  0.0143
   6.  C  0.3189  0.1260  1.1631  0.0782  0.0343  0.0503  0.0492  0.0713  0.0127
   7.  C  0.1223  0.3253  0.1176  0.0203  0.0095  0.0469  0.0909  0.9490  0.0758
   8.  C  1.1807  0.1240  0.3105  0.0130  0.0061  0.0083  0.0094  0.0679  0.0656
   9. Br  0.1882  0.1143  0.1125  0.0101  0.0040  0.0102  0.0084  0.0710  0.0699
  10.  C  0.0000  1.2007  0.1051  0.0164  0.0120  0.0262  0.0625  0.0764  0.9483
  11.  C  1.2007  0.0000  1.1717  0.0125  0.0080  0.0114  0.0067  0.0137  0.0732
  12.  C  0.1051  1.1717  0.0000  0.0278  0.0282  0.0756  0.0857  0.0804  0.0782
  13.  H  0.0164  0.0125  0.0278  0.0000  0.0233  0.0235  0.0362  0.0059  0.0024
  14.  H  0.0120  0.0080  0.0282  0.0233  0.0000  0.0234  0.0963  0.0032  0.0010
  15.  H  0.0262  0.0114  0.0756  0.0235  0.0234  0.0000  0.0322  0.0198  0.0009
  16.  H  0.0625  0.0067  0.0857  0.0362  0.0963  0.0322  0.0000  0.0046  0.0010
  17.  H  0.0764  0.0137  0.0804  0.0059  0.0032  0.0198  0.0046  0.0000  0.0177
  18.  H  0.9483  0.0732  0.0782  0.0024  0.0010  0.0009  0.0010  0.0177  0.0000
  19.  H  0.0693  0.9458  0.0669  0.0038  0.0019  0.0142  0.0023  0.0157  0.0477

     Atom   19
     ---- ------
   1.  O  0.0858
   2.  C  0.0432
   3.  O  0.0364
   4.  C  0.0096
   5.  C  0.0160
   6.  C  0.0786
   7.  C  0.0111
   8.  C  0.0763
   9. Br  0.0313
  10.  C  0.0693
  11.  C  0.9458
  12.  C  0.0669
  13.  H  0.0038
  14.  H  0.0019
  15.  H  0.0142
  16.  H  0.0023
  17.  H  0.0157
  18.  H  0.0477
  19.  H  0.0000


 NATURAL BOND ORBITAL ANALYSIS:

                            Occupancies       Lewis Structure    Low   High
         Max    Occ     -------------------  -----------------   occ   occ
  Cycle  Ctr   Thresh    Lewis   non-Lewis     CR  BD  nC  LP    (L)   (NL)
 ============================================================================
    1     2     1.90   108.02781   3.97219     25  21   0  10     5      5
    2     2     1.84   108.20345   3.79655     25  21   0  10     4      5
    3     2     1.82   108.20345   3.79655     25  21   0  10     4      5
    4     2     1.79   108.20426   3.79574     25  21   0  10     3      5
    5     2     1.67   108.83390   3.16610     25  22   0   9     2      5
    6     2     1.66   108.83390   3.16610     25  22   0   9     2      5
    7     2     1.65   109.48103   2.51897     25  23   0   8     1      5
    8     2     1.64   110.06849   1.93151     25  24   0   7     0      5
    9     2     1.63   110.06849   1.93151     25  24   0   7     0      5
   10     2     1.64   110.06849   1.93151     25  24   0   7     0      5
 ----------------------------------------------------------------------------

 Structure accepted: No low occupancy Lewis orbitals

 -------------------------------------------------------
   Core                     49.99705 ( 99.994% of  50)
   Valence Lewis            60.07144 ( 96.889% of  62)
  ==================      =============================
   Total Lewis             110.06849 ( 98.275% of 112)
  -----------------------------------------------------
   Valence non-Lewis         1.80410 (  1.611% of 112)
   Rydberg non-Lewis         0.12741 (  0.114% of 112)
  ==================      =============================
   Total non-Lewis           1.93151 (  1.725% of 112)
 -------------------------------------------------------


     (Occupancy)   Bond orbital / Coefficients / Hybrids
 ------------------ Lewis ------------------------------------------------------
   1. (1.99989) CR ( 1) O  1            s(100.00%)
                                         1.0000  0.0000  0.0000  0.0000  0.0000
                                         0.0000  0.0000  0.0000  0.0000  0.0000
                                         0.0000  0.0000  0.0000  0.0000
   2. (1.99983) CR ( 1) C  2            s(100.00%)
                                         1.0000  0.0000  0.0000  0.0000  0.0000
                                         0.0000  0.0000  0.0000  0.0000
   3. (1.99985) CR ( 1) O  3            s(100.00%)
                                         1.0000  0.0000  0.0000  0.0000  0.0000
                                         0.0000  0.0000  0.0000  0.0000  0.0000
                                         0.0000  0.0000  0.0000  0.0000
   4. (1.99977) CR ( 1) C  4            s(100.00%)
                                         1.0000  0.0000  0.0000  0.0000  0.0000
                                         0.0000  0.0000  0.0000  0.0000
   5. (1.99976) CR ( 1) C  5            s(100.00%)
                                         1.0000  0.0000  0.0000  0.0000  0.0000
                                         0.0000  0.0000  0.0000  0.0000
   6. (1.99989) CR ( 1) C  6            s(100.00%)
                                         1.0000  0.0000  0.0000  0.0000  0.0000
                                         0.0000  0.0000  0.0000  0.0000
   7. (1.99985) CR ( 1) C  7            s(100.00%)
                                         1.0000  0.0000  0.0000  0.0000  0.0000
                                         0.0000  0.0000  0.0000  0.0000
   8. (1.99989) CR ( 1) C  8            s(100.00%)
                                         1.0000  0.0000  0.0000  0.0000  0.0000
                                         0.0000  0.0000  0.0000  0.0000
   9. (2.00000) CR ( 1)Br  9            s(100.00%)
                                         1.0000  0.0000  0.0000  0.0000  0.0000
                                         0.0000  0.0000  0.0000  0.0000  0.0000
                                         0.0000  0.0000  0.0000  0.0000  0.0000
                                         0.0000  0.0000  0.0000  0.0000  0.0000
                                         0.0000  0.0000  0.0000  0.0000  0.0000
                                         0.0000  0.0000
  10. (2.00000) CR ( 2)Br  9            s(100.00%)
                                         0.0000  1.0000  0.0000  0.0000  0.0000
                                         0.0000  0.0000  0.0000  0.0000  0.0000
                                         0.0000  0.0000  0.0000  0.0000  0.0000
                                         0.0000  0.0000  0.0000  0.0000  0.0000
                                         0.0000  0.0000  0.0000  0.0000  0.0000
                                         0.0000  0.0000
  11. (1.99999) CR ( 3)Br  9            s(100.00%)
                                         0.0000  0.0000  1.0000  0.0000  0.0000
                                         0.0000  0.0000  0.0000  0.0000  0.0000
                                         0.0000  0.0000  0.0000  0.0000  0.0000
                                         0.0000  0.0000  0.0000  0.0000  0.0000
                                         0.0000  0.0000  0.0000  0.0000  0.0000
                                         0.0000  0.0000
  12. (2.00000) CR ( 4)Br  9            s(  0.00%)p 1.00(100.00%)
                                         0.0000  0.0000  0.0000  0.0000  0.0000
                                         1.0000  0.0000  0.0000  0.0000  0.0000
                                         0.0000  0.0000  0.0000  0.0000  0.0000
                                         0.0000  0.0000  0.0000  0.0000  0.0000
                                         0.0000  0.0000  0.0000  0.0000  0.0000
                                         0.0000  0.0000
  13. (1.99999) CR ( 5)Br  9            s(  0.00%)p 1.00(100.00%)
                                         0.0000  0.0000  0.0000  0.0000  0.0000
                                         0.0000  1.0000  0.0000  0.0000  0.0000
                                         0.0000  0.0000  0.0000  0.0000  0.0000
                                         0.0000  0.0000  0.0000  0.0000  0.0000
                                         0.0000  0.0000  0.0000  0.0000  0.0000
                                         0.0000  0.0000
  14. (2.00000) CR ( 6)Br  9            s(  0.00%)p 1.00(100.00%)
                                         0.0000  0.0000  0.0000  0.0000  0.0000
                                         0.0000  0.0000  0.0000  0.0000  1.0000
                                         0.0000  0.0000  0.0000  0.0000  0.0000
                                         0.0000  0.0000  0.0000  0.0000  0.0000
                                         0.0000  0.0000  0.0000  0.0000  0.0000
                                         0.0000  0.0000
  15. (1.99999) CR ( 7)Br  9            s(  0.00%)p 1.00(100.00%)
                                         0.0000  0.0000  0.0000  0.0000  0.0000
                                         0.0000  0.0000  0.0000  0.0000  0.0000
                                         1.0000  0.0000  0.0000  0.0000  0.0000
                                         0.0000  0.0000  0.0000  0.0000  0.0000
                                         0.0000  0.0000  0.0000  0.0000  0.0000
                                         0.0000  0.0000
  16. (2.00000) CR ( 8)Br  9            s(  0.00%)p 1.00(100.00%)
                                         0.0000  0.0000  0.0000  0.0000  0.0000
                                         0.0000  0.0000  0.0000  0.0000  0.0000
                                         0.0000  0.0000  0.0000  1.0000  0.0000
                                         0.0000  0.0000  0.0000  0.0000  0.0000
                                         0.0000  0.0000  0.0000  0.0000  0.0000
                                         0.0000  0.0000
  17. (2.00000) CR ( 9)Br  9            s(  0.00%)p 1.00(100.00%)
                                         0.0000  0.0000  0.0000  0.0000  0.0000
                                         0.0000  0.0000  0.0000  0.0000  0.0000
                                         0.0000  0.0000  0.0000  0.0000  1.0000
                                         0.0000  0.0000  0.0000  0.0000  0.0000
                                         0.0000  0.0000  0.0000  0.0000  0.0000
                                         0.0000  0.0000
  18. (1.99968) CR (10)Br  9            s(  0.00%)p 0.00(  0.00%)d 1.00(100.00%)
                                         0.0000  0.0000  0.0000  0.0000  0.0000
                                         0.0000  0.0000  0.0000  0.0000  0.0000
                                         0.0000  0.0000  0.0000  0.0000  0.0000
                                         0.0000  0.0000  1.0000  0.0000  0.0000
                                         0.0000  0.0000  0.0000  0.0000  0.0000
                                         0.0000  0.0000
  19. (1.99987) CR (11)Br  9            s(  0.00%)p 0.00(  0.00%)d 1.00(100.00%)
                                         0.0000  0.0000  0.0000  0.0000  0.0000
                                         0.0000  0.0000  0.0000  0.0000  0.0000
                                         0.0000  0.0000  0.0000  0.0000  0.0000
                                         0.0000  0.0000  0.0000  0.0000  1.0000
                                         0.0000  0.0000  0.0000  0.0000  0.0000
                                         0.0000  0.0000
  20. (1.99999) CR (12)Br  9            s(  0.00%)p 0.00(  0.00%)d 1.00(100.00%)
                                         0.0000  0.0000  0.0000  0.0000  0.0000
                                         0.0000  0.0000  0.0000  0.0000  0.0000
                                         0.0000  0.0000  0.0000  0.0000  0.0000
                                         0.0000  0.0000  0.0000  0.0000  0.0000
                                         0.0000  1.0000  0.0000  0.0000  0.0000
                                         0.0000  0.0000
  21. (1.99944) CR (13)Br  9            s(  0.00%)p 0.00(  0.00%)d 1.00(100.00%)
                                         0.0000  0.0000  0.0000  0.0000  0.0000
                                         0.0000  0.0000  0.0000  0.0000  0.0000
                                         0.0000  0.0000  0.0000  0.0000  0.0000
                                         0.0000  0.0000  0.0000  0.0000  0.0000
                                         0.0000  0.0000  0.0000  1.0000  0.0000
                                         0.0000  0.0000
  22. (1.99980) CR (14)Br  9            s(  0.00%)p 0.00(  0.00%)d 1.00(100.00%)
                                         0.0000  0.0000  0.0000  0.0000  0.0000
                                         0.0000  0.0000  0.0000  0.0000  0.0000
                                         0.0000  0.0000  0.0000  0.0000  0.0000
                                         0.0000  0.0000  0.0000  0.0000  0.0000
                                         0.0000  0.0000  0.0000  0.0000  0.0000
                                         1.0000  0.0000
  23. (1.99986) CR ( 1) C 10            s(100.00%)
                                         1.0000  0.0000  0.0000  0.0000  0.0000
                                         0.0000  0.0000  0.0000  0.0000
  24. (1.99984) CR ( 1) C 11            s(100.00%)
                                         1.0000  0.0000  0.0000  0.0000  0.0000
                                         0.0000  0.0000  0.0000  0.0000
  25. (1.99988) CR ( 1) C 12            s(100.00%)
                                         1.0000  0.0000  0.0000  0.0000  0.0000
                                         0.0000  0.0000  0.0000  0.0000
  26. (1.97972) LP ( 1) O  1            s( 57.50%)p 0.74( 42.43%)d 0.00(  0.07%)
                                         0.0000  0.7582 -0.0078 -0.2894 -0.0009
                                         0.5706 -0.0013 -0.1225  0.0002  0.0162
                                        -0.0035  0.0083  0.0128  0.0133
  27. (1.84218) LP ( 2) O  1            s(  0.10%)p99.99( 99.68%)d 2.12(  0.22%)
                                         0.0000  0.0320 -0.0027  0.9103 -0.0025
                                         0.4040 -0.0007 -0.0708 -0.0005 -0.0295
                                         0.0072  0.0062  0.0349 -0.0025
  28. (1.95799) LP ( 1) O  3            s( 37.68%)p 1.65( 62.24%)d 0.00(  0.09%)
                                         0.0000  0.6138  0.0004 -0.7846 -0.0027
                                         0.0602  0.0009 -0.0560 -0.0002  0.0034
                                        -0.0043  0.0001 -0.0251  0.0148
  29. (1.79156) LP ( 2) O  3            s(  0.11%)p99.99( 99.75%)d 1.28(  0.14%)
                                         0.0000  0.0328 -0.0030  0.0754 -0.0009
                                        -0.2494  0.0001 -0.9642 -0.0067 -0.0100
                                        -0.0353 -0.0041  0.0032 -0.0038
  30. (1.99732) LP ( 1)Br  9            s( 87.54%)p 0.14( 12.46%)d 0.00(  0.00%)
                                         0.0000  0.0000  0.0000  0.9356 -0.0095
                                         0.0000  0.0000  0.3489  0.0136  0.0000
                                         0.0000 -0.0517 -0.0019  0.0000  0.0000
                                         0.0030  0.0001  0.0000  0.0011  0.0000
                                         0.0000  0.0000  0.0003  0.0000 -0.0037
                                         0.0000  0.0010
  31. (1.98223) LP ( 2)Br  9            s(  0.00%)p 1.00( 99.98%)d 0.00(  0.02%)
                                         0.0000  0.0000  0.0000 -0.0004  0.0004
                                         0.0000  0.0000  0.1451 -0.0024  0.0000
                                         0.0000  0.9801 -0.0159  0.0000  0.0000
                                         0.1337 -0.0022  0.0000 -0.0142  0.0000
                                        -0.0020  0.0000  0.0002  0.0000 -0.0041
                                         0.0000  0.0002
  32. (1.94022) LP ( 3)Br  9            s(  0.00%)p 1.00( 99.97%)d 0.00(  0.03%)
                                         0.0000  0.0000  0.0000  0.0008  0.0001
                                         0.0000  0.0000  0.0260 -0.0004  0.0000
                                         0.0000  0.1313 -0.0018  0.0000  0.0000
                                        -0.9907  0.0138  0.0000 -0.0022  0.0000
                                         0.0170  0.0000 -0.0023  0.0000 -0.0007
                                         0.0000  0.0001
  33. (1.99645) BD ( 1) O  1- C  2
               ( 65.69%)   0.8105* O  1 s( 41.72%)p 1.39( 57.85%)d 0.01(  0.43%)
                                         0.0000  0.6458  0.0140  0.2875 -0.0016
                                        -0.6521  0.0028  0.2656  0.0006 -0.0389
                                         0.0115 -0.0252 -0.0372 -0.0257
               ( 34.31%)   0.5857* C  2 s( 33.12%)p 2.02( 66.88%)
                                         0.0000  0.5744  0.0362 -0.3454 -0.0475
                                         0.7367  0.0603 -0.0235 -0.0198
  34. (1.98207) BD ( 2) O  1- C  2
               ( 66.31%)   0.8143* O  1 s(  0.65%)p99.99( 99.00%)d 0.53(  0.35%)
                                         0.0000  0.0806  0.0026  0.0499  0.0006
                                        -0.2856 -0.0014 -0.9518 -0.0101 -0.0108
                                        -0.0227  0.0461 -0.0152 -0.0221
               ( 33.69%)   0.5804* C  2 s(  0.52%)p99.99( 99.48%)
                                         0.0000  0.0719  0.0080 -0.0262 -0.0069
                                        -0.1011  0.0191 -0.9908  0.0416
  35. (1.99411) BD ( 1) C  2- O  3
               ( 31.31%)   0.5595* C  2 s( 26.93%)p 2.71( 73.07%)
                                         0.0000  0.5190  0.0002 -0.5341 -0.0594
                                        -0.6539 -0.0149  0.1186  0.0005
               ( 68.69%)   0.8288* O  3 s( 32.80%)p 2.04( 66.92%)d 0.01(  0.28%)
                                         0.0000  0.5727  0.0007  0.5039 -0.0101
                                         0.6356  0.0001 -0.1056 -0.0011  0.0445
                                        -0.0058 -0.0063  0.0048 -0.0272
  36. (1.98280) BD ( 1) C  2- C 12
               ( 46.54%)   0.6822* C  2 s( 39.07%)p 1.56( 60.93%)
                                         0.0000  0.6246 -0.0242  0.7692 -0.0033
                                        -0.1259  0.0197  0.0379 -0.0038
               ( 53.46%)   0.7312* C 12 s( 29.88%)p 2.35( 70.12%)
                                         0.0000  0.5465 -0.0059 -0.8282  0.0125
                                         0.1221  0.0042 -0.0178 -0.0002
  37. (1.98882) BD ( 1) O  3- C  4
               ( 67.65%)   0.8225* O  3 s( 29.31%)p 2.40( 70.43%)d 0.01(  0.26%)
                                         0.0000  0.5414  0.0050  0.3507 -0.0136
                                        -0.7256  0.0013  0.2336 -0.0002 -0.0393
                                         0.0138 -0.0170 -0.0063 -0.0236
               ( 32.35%)   0.5688* C  4 s( 19.09%)p 4.24( 80.91%)
                                         0.0000  0.4361  0.0269 -0.3155 -0.0435
                                         0.8039  0.0289 -0.2459 -0.0084
  38. (1.98691) BD ( 1) C  4- C  5
               ( 48.83%)   0.6988* C  4 s( 29.03%)p 2.44( 70.97%)
                                         0.0000  0.5388 -0.0034  0.6772 -0.0004
                                        -0.1697 -0.0248 -0.4708 -0.0066
               ( 51.17%)   0.7153* C  5 s( 25.55%)p 2.91( 74.45%)
                                         0.0000  0.5054  0.0049 -0.7117 -0.0109
                                         0.1761 -0.0141  0.4546  0.0030
  39. (1.98803) BD ( 1) C  4- H 13
               ( 62.85%)   0.7928* C  4 s( 26.06%)p 2.84( 73.94%)
                                         0.0000  0.5105  0.0049 -0.6351  0.0069
                                        -0.5653  0.0182 -0.1267  0.0083
               ( 37.15%)   0.6095* H 13 s(100.00%)
                                         1.0000  0.0017
  40. (1.98990) BD ( 1) C  4- H 14
               ( 62.33%)   0.7895* C  4 s( 25.84%)p 2.87( 74.16%)
                                         0.0000  0.5081 -0.0155  0.1914 -0.0177
                                         0.0555 -0.0086  0.8375 -0.0050
               ( 37.67%)   0.6138* H 14 s(100.00%)
                                         1.0000  0.0045
  41. (1.97568) BD ( 1) C  5- C  6
               ( 49.31%)   0.7022* C  5 s( 26.76%)p 2.74( 73.24%)
                                         0.0000  0.5172  0.0098  0.5780  0.0219
                                         0.6244  0.0068  0.0888 -0.0031
               ( 50.69%)   0.7119* C  6 s( 31.04%)p 2.22( 68.96%)
                                         0.0000  0.5571 -0.0082 -0.5247  0.0233
                                        -0.6356  0.0024 -0.0980 -0.0035
  42. (1.97826) BD ( 1) C  5- H 15
               ( 63.54%)   0.7971* C  5 s( 24.37%)p 3.10( 75.63%)
                                         0.0000  0.4937 -0.0038  0.3345 -0.0097
                                        -0.7564  0.0051  0.2681 -0.0129
               ( 36.46%)   0.6038* H 15 s(100.00%)
                                         1.0000  0.0015
  43. (1.97178) BD ( 1) C  5- H 16
               ( 63.93%)   0.7996* C  5 s( 23.33%)p 3.29( 76.67%)
                                         0.0000  0.4830 -0.0075 -0.2161  0.0071
                                        -0.0799 -0.0126 -0.8446  0.0094
               ( 36.07%)   0.6006* H 16 s(100.00%)
                                         1.0000  0.0030
  44. (1.96865) BD ( 1) C  6- C  7
               ( 50.92%)   0.7136* C  6 s( 35.50%)p 1.82( 64.50%)
                                         0.0000  0.5958  0.0072  0.7920  0.0047
                                        -0.1315 -0.0183 -0.0010 -0.0019
               ( 49.08%)   0.7006* C  7 s( 35.62%)p 1.81( 64.38%)
                                         0.0000  0.5968  0.0083 -0.7962 -0.0232
                                         0.0939 -0.0214 -0.0075 -0.0035
  45. (1.96671) BD ( 1) C  6- C 12
               ( 49.98%)   0.7070* C  6 s( 33.44%)p 1.99( 66.56%)
                                         0.0000  0.5783  0.0032 -0.3107 -0.0056
                                         0.7467  0.0078  0.1066 -0.0008
               ( 50.02%)   0.7072* C 12 s( 34.80%)p 1.87( 65.20%)
                                         0.0000  0.5899  0.0054  0.2795 -0.0006
                                        -0.7544 -0.0061 -0.0690 -0.0030
  46. (1.64218) BD ( 2) C  6- C 12
               ( 46.56%)   0.6824* C  6 s(  0.01%)p99.99( 99.99%)
                                         0.0000  0.0065  0.0080  0.0177 -0.0035
                                         0.1435  0.0010 -0.9894 -0.0004
               ( 53.44%)   0.7310* C 12 s(  0.00%)p 1.00(100.00%)
                                         0.0000  0.0019  0.0058  0.0383 -0.0009
                                         0.1066  0.0005 -0.9935 -0.0032
  47. (1.97961) BD ( 1) C  7- C  8
               ( 49.26%)   0.7018* C  7 s( 34.89%)p 1.87( 65.11%)
                                         0.0000  0.5905  0.0136  0.5134  0.0383
                                         0.6147 -0.0055  0.0902  0.0001
               ( 50.74%)   0.7124* C  8 s( 38.91%)p 1.57( 61.09%)
                                         0.0000  0.6237  0.0047 -0.4300 -0.0013
                                        -0.6452 -0.0304 -0.0942 -0.0040
  48. (1.67673) BD ( 2) C  7- C  8
               ( 48.99%)   0.6999* C  7 s(  0.00%)p 1.00(100.00%)
                                         0.0000  0.0021 -0.0003 -0.0229 -0.0005
                                        -0.1283  0.0002  0.9915 -0.0046
               ( 51.01%)   0.7142* C  8 s(  0.00%)p 1.00(100.00%)
                                         0.0000 -0.0010 -0.0002 -0.0245  0.0001
                                        -0.1293 -0.0008  0.9913  0.0053
  49. (1.98102) BD ( 1) C  7- H 17
               ( 63.32%)   0.7957* C  7 s( 29.53%)p 2.39( 70.47%)
                                         0.0000  0.5432 -0.0148  0.3165 -0.0078
                                        -0.7714  0.0226 -0.0936  0.0024
               ( 36.68%)   0.6057* H 17 s(100.00%)
                                         1.0000  0.0027
  50. (1.98728) BD ( 1) C  8-Br  9
               ( 50.41%)   0.7100* C  8 s( 22.08%)p 3.53( 77.92%)
                                         0.0000  0.4698 -0.0096  0.8720 -0.0479
                                        -0.1281  0.0080  0.0054 -0.0002
               ( 49.59%)   0.7042*Br  9 s( 12.66%)p 6.85( 86.72%)d 0.05(  0.62%)
                                         0.0000  0.0000  0.0000  0.3522  0.0511
                                         0.0000  0.0000 -0.9194 -0.0542  0.0000
                                         0.0000  0.1370  0.0082  0.0000  0.0000
                                        -0.0057 -0.0004  0.0000 -0.0198  0.0000
                                         0.0007  0.0000 -0.0003  0.0000  0.0656
[...]
   26. LP ( 1) O  1             1.97972    -0.62851  90(v),60(v),59(v)
   27. LP ( 2) O  1             1.84218    -0.31255  59(v),60(v),91(v),61(r)
   28. LP ( 1) O  3             1.95799    -0.56416  60(v),57(v),62(v),91(v)
                                                     63(v),103(v),104(v)
   29. LP ( 2) O  3             1.79156    -0.38051  58(v),64(v),62(v),57(v)
                                                     63(v)
   30. LP ( 1)Br  9             1.99732    -0.76750  120(v)
   31. LP ( 2)Br  9             1.98223    -0.37031  75(v),71(v),119(v)
   32. LP ( 3)Br  9             1.94022    -0.36516  72(v)
   33. BD ( 1) O  1- C  2       1.99645    -1.01184  61(v),60(g),69(v)
   34. BD ( 2) O  1- C  2       1.98207    -0.46617  70(v),58(g)
   35. BD ( 1) C  2- O  3       1.99411    -0.91404  103(v),79(v),63(v)
   36. BD ( 1) C  2- C 12       1.98280    -0.70043  69(g),79(g),136(v),68(v)
                                                     111(v),76(v),81(v),57(g)
                                                     95(v)
   37. BD ( 1) O  3- C  4       1.98882    -0.83951  57(v),91(v),66(v)
   38. BD ( 1) C  4- C  5       1.98691    -0.66019  68(v),70(v),65(g),112(v)
                                                     66(g),67(g),63(g)
   39. BD ( 1) C  4- H 13       1.98803    -0.59882  65(v),59(v),95(v)
   40. BD ( 1) C  4- H 14       1.98990    -0.59710  67(v),96(v),107(v)
   41. BD ( 1) C  5- C  6       1.97568    -0.65773  68(g),69(g),79(v),115(v)
                                                     140(v),71(v),63(v),104(v)
                                                     66(g),67(g),62(g),61(v)
   42. BD ( 1) C  5- H 15       1.97826    -0.58610  61(v),69(v),70(v),65(g)
   43. BD ( 1) C  5- H 16       1.97178    -0.57712  70(v),64(v),61(v),113(v)
                                                     65(g),103(v)
   44. BD ( 1) C  6- C  7       1.96865    -0.71326  69(g),74(v),71(g),65(g)
                                                     60(v),119(v),73(g),140(v)
                                                     107(v),120(v),141(v)
   45. BD ( 1) C  6- C 12       1.96671    -0.70713  79(g),68(g),65(g),60(g)
                                                     136(v),73(v),116(v),57(v)
                                                     80(v),91(v),107(v),66(v)
                                                     115(v)
   46. BD ( 2) C  6- C 12       1.64218    -0.32665  77(v),72(v),58(v),67(v)
                                                     139(v),66(v),118(v),59(v)
                                                     62(v),63(r)
   47. BD ( 1) C  7- C  8       1.97961    -0.73563  75(g),68(g),112(v),65(v)
                                                     73(g),78(v),132(v),133(v)
                                                     111(v)
   48. BD ( 2) C  7- C  8       1.67673    -0.34370  70(v),77(v),123(v),135(v)
   49. BD ( 1) C  7- H 17       1.98102    -0.59363  69(v),75(v),111(v),120(v)
                                                     68(g),71(g),74(v),65(v)
   50. BD ( 1) C  8-Br  9       1.98728    -0.63896  115(v),132(v),68(v),76(v)
   51. BD ( 1) C  8- C 10       1.98031    -0.73451  71(g),137(v),76(g),78(g)
                                                     73(v),80(v),116(v),115(v)
   52. BD ( 1) C 10- C 11       1.97341    -0.71201  74(v),75(g),79(g),141(v)
                                                     60(v),78(g),119(v),80(g)
                                                     120(v)
   53. BD ( 2) C 10- C 11       1.65526    -0.32593  72(v),70(v),143(v),121(v)
   54. BD ( 1) C 10- H 18       1.98161    -0.59003  71(v),79(v),120(v),76(g)
                                                     136(v),75(g),74(v)
   55. BD ( 1) C 11- C 12       1.97146    -0.70373  69(g),76(g),60(g),133(v)
                                                     90(v),65(v),59(v),78(v)
                                                     80(g),111(v),112(v)
   56. BD ( 1) C 11- H 19       1.98120    -0.58344  69(v),75(v),140(v),132(v)
                                                     79(g),76(g),60(v)
 ------ non-Lewis ----------------------------------
   57. BD*( 1) O  1- C  2       0.01906     0.70861
   58. BD*( 2) O  1- C  2       0.23964     0.08090
   59. BD*( 1) C  2- O  3       0.10095     0.45639
   60. BD*( 1) C  2- C 12       0.07283     0.51624
   61. BD*( 1) O  3- C  4       0.02353     0.34916
   62. BD*( 1) C  4- C  5       0.02028     0.43712
   63. BD*( 1) C  4- H 13       0.01195     0.53473
   64. BD*( 1) C  4- H 14       0.02097     0.51184
   65. BD*( 1) C  5- C  6       0.02127     0.49468
   66. BD*( 1) C  5- H 15       0.00961     0.52202
   67. BD*( 1) C  5- H 16       0.01357     0.51691
   68. BD*( 1) C  6- C  7       0.02307     0.67328
   69. BD*( 1) C  6- C 12       0.02968     0.65632
   70. BD*( 2) C  6- C 12       0.38051     0.05826
   71. BD*( 1) C  7- C  8       0.02158     0.65045
   72. BD*( 2) C  7- C  8       0.37843     0.03958
   73. BD*( 1) C  7- H 17       0.01237     0.56861
   74. BD*( 1) C  8-Br  9       0.02504     0.16873
   75. BD*( 1) C  8- C 10       0.02245     0.64845
   76. BD*( 1) C 10- C 11       0.01570     0.68012
   77. BD*( 2) C 10- C 11       0.29515     0.06652
   78. BD*( 1) C 10- H 18       0.01167     0.58111
   79. BD*( 1) C 11- C 12       0.02152     0.66639
   80. BD*( 1) C 11- H 19       0.01328     0.58901
   81. RY ( 1) O  1             0.00089     1.81508
   82. RY ( 2) O  1             0.00060     2.18540
   83. RY ( 3) O  1             0.00040     1.67531
   84. RY ( 4) O  1             0.00010     2.47051
   85. RY ( 5) O  1             0.00004     2.03549
   86. RY ( 6) O  1             0.00002     1.96185
   87. RY ( 7) O  1             0.00001     1.91269
   88. RY ( 8) O  1             0.00001     1.93644
   89. RY ( 9) O  1             0.00000     1.96389
   90. RY ( 1) C  2             0.01668     0.96254
   91. RY ( 2) C  2             0.01107     1.04634
   92. RY ( 3) C  2             0.00150     0.84924
   93. RY ( 4) C  2             0.00058     0.90150
   94. RY ( 1) O  3             0.00190     1.85655
   95. RY ( 2) O  3             0.00126     2.00789
   96. RY ( 3) O  3             0.00093     1.76524
   97. RY ( 4) O  3             0.00026     1.96382
   98. RY ( 5) O  3             0.00024     2.35884
   99. RY ( 6) O  3             0.00016     2.21657
  100. RY ( 7) O  3             0.00003     1.93683
  101. RY ( 8) O  3             0.00003     2.05349
  102. RY ( 9) O  3             0.00002     1.92017
  103. RY ( 1) C  4             0.00292     0.95816
  104. RY ( 2) C  4             0.00217     1.08930
  105. RY ( 3) C  4             0.00059     0.96945
  106. RY ( 4) C  4             0.00035     1.02694
  107. RY ( 1) C  5             0.00287     1.10045
  108. RY ( 2) C  5             0.00117     0.97965
  109. RY ( 3) C  5             0.00073     1.03513
  110. RY ( 4) C  5             0.00022     1.05896
  111. RY ( 1) C  6             0.00501     1.50431
  112. RY ( 2) C  6             0.00394     1.27336
  113. RY ( 3) C  6             0.00155     0.96231
  114. RY ( 4) C  6             0.00048     0.81503
  115. RY ( 1) C  7             0.00570     1.36245
  116. RY ( 2) C  7             0.00375     0.98510
  117. RY ( 3) C  7             0.00056     0.71173
  118. RY ( 4) C  7             0.00035     0.92272
  119. RY ( 1) C  8             0.00665     1.08383
  120. RY ( 2) C  8             0.00517     1.35402
  121. RY ( 3) C  8             0.00083     0.93495
  122. RY ( 4) C  8             0.00037     0.70471
  123. RY ( 1)Br  9             0.00188     0.67310
  124. RY ( 2)Br  9             0.00094     0.73883
  125. RY ( 3)Br  9             0.00060     1.10736
  126. RY ( 4)Br  9             0.00025     0.81575
  127. RY ( 5)Br  9             0.00010     0.93032
  128. RY ( 6)Br  9             0.00004     0.63924
  129. RY ( 7)Br  9             0.00003     0.66652
  130. RY ( 8)Br  9             0.00002     0.76102
  131. RY ( 9)Br  9             0.00001     0.71143
  132. RY ( 1) C 10             0.00538     1.33113
  133. RY ( 2) C 10             0.00335     1.02363
  134. RY ( 3) C 10             0.00047     0.71588
  135. RY ( 4) C 10             0.00033     0.92171
  136. RY ( 1) C 11             0.00627     1.28591
  137. RY ( 2) C 11             0.00378     1.11953
  138. RY ( 3) C 11             0.00042     0.73851
  139. RY ( 4) C 11             0.00026     0.92122
  140. RY ( 1) C 12             0.00448     1.50762
  141. RY ( 2) C 12             0.00323     1.35962
  142. RY ( 3) C 12             0.00134     0.78872
  143. RY ( 4) C 12             0.00029     1.00763
  144. RY ( 1) H 13             0.00108     0.57848
  145. RY ( 1) H 14             0.00198     0.60287
  146. RY ( 1) H 15             0.00126     0.61081
  147. RY ( 1) H 16             0.00205     0.60935
  148. RY ( 1) H 17             0.00125     0.61323
  149. RY ( 1) H 18             0.00118     0.60308
  150. RY ( 1) H 19             0.00304     0.62498
          -------------------------------
                 Total Lewis  110.06849  ( 98.2754%)
           Valence non-Lewis    1.80410  (  1.6108%)
           Rydberg non-Lewis    0.12741  (  0.1138%)
          -------------------------------
               Total unit  1  112.00000  (100.0000%)
              Charge unit  1    0.00000

 $CHOOSE
   LONE 1 2 3 2 9 3 END
   BOND D 1 2 S 2 3 S 2 12 S 3 4 S 4 5 S 4 13 S 4 14 S 5 6 S 5 15 S 5 16 S 6 7
        D 6 12 D 7 8 S 7 17 S 8 9 S 8 10 D 10 11 S 10 18 S 11 12 S 11 19 END
 $END


 Checkpoint NBOs sorted by occupancy:

  Sort    Occ       Energy   Orig   Label
 -----------------------------------------------------------
    1.  2.00000   -20.11261    9.   CR ( 1)Br  9
    2.  2.00000  -451.55357   10.   CR ( 2)Br  9
    3.  2.00000    -7.18229   12.   CR ( 4)Br  9
    4.  2.00000    -7.16804   14.   CR ( 6)Br  9
    5.  2.00000    -7.16799   16.   CR ( 8)Br  9
    6.  2.00000   -55.67654   17.   CR ( 9)Br  9
    7.  1.99999   -55.67660   15.   CR ( 7)Br  9
    8.  1.99999   -79.97924   11.   CR ( 3)Br  9
    9.  1.99999    -2.77012   20.   CR (12)Br  9
   10.  1.99999   -55.68014   13.   CR ( 5)Br  9
   11.  1.99989   -19.12274    1.   CR ( 1) O  1
   12.  1.99989   -10.30822    8.   CR ( 1) C  8
   13.  1.99989   -10.27330    6.   CR ( 1) C  6
   14.  1.99988   -10.26032   25.   CR ( 1) C 12
   15.  1.99987    -2.78129   19.   CR (11)Br  9
   16.  1.99986   -10.25558   23.   CR ( 1) C 10
   17.  1.99985   -10.25847    7.   CR ( 1) C  7
   18.  1.99985   -19.19563    3.   CR ( 1) O  3
   19.  1.99984   -10.25634   24.   CR ( 1) C 11
   20.  1.99983   -10.36010    2.   CR ( 1) C  2
   21.  1.99980    -2.77390   22.   CR (14)Br  9
   22.  1.99977   -10.30332    4.   CR ( 1) C  4
   23.  1.99976   -10.25828    5.   CR ( 1) C  5
   24.  1.99968    -2.78128   18.   CR (10)Br  9
   25.  1.99944    -2.78147   21.   CR (13)Br  9
   26.  1.99732    -0.76750   30.   LP ( 1)Br  9
   27.  1.99645    -1.01184   33.   BD ( 1) O  1- C  2
   28.  1.99411    -0.91404   35.   BD ( 1) C  2- O  3
   29.  1.98990    -0.59710   40.   BD ( 1) C  4- H 14
   30.  1.98882    -0.83951   37.   BD ( 1) O  3- C  4
   31.  1.98803    -0.59882   39.   BD ( 1) C  4- H 13
   32.  1.98728    -0.63896   50.   BD ( 1) C  8-Br  9
   33.  1.98691    -0.66019   38.   BD ( 1) C  4- C  5
   34.  1.98280    -0.70043   36.   BD ( 1) C  2- C 12
   35.  1.98223    -0.37031   31.   LP ( 2)Br  9
   36.  1.98207    -0.46617   34.   BD ( 2) O  1- C  2
   37.  1.98161    -0.59003   54.   BD ( 1) C 10- H 18
   38.  1.98120    -0.58344   56.   BD ( 1) C 11- H 19
   39.  1.98102    -0.59363   49.   BD ( 1) C  7- H 17
   40.  1.98031    -0.73451   51.   BD ( 1) C  8- C 10
   41.  1.97972    -0.62851   26.   LP ( 1) O  1
   42.  1.97961    -0.73563   47.   BD ( 1) C  7- C  8
   43.  1.97826    -0.58610   42.   BD ( 1) C  5- H 15
   44.  1.97568    -0.65773   41.   BD ( 1) C  5- C  6
   45.  1.97341    -0.71201   52.   BD ( 1) C 10- C 11
   46.  1.97178    -0.57712   43.   BD ( 1) C  5- H 16
   47.  1.97146    -0.70373   55.   BD ( 1) C 11- C 12
   48.  1.96865    -0.71326   44.   BD ( 1) C  6- C  7
   49.  1.96671    -0.70713   45.   BD ( 1) C  6- C 12
   50.  1.95799    -0.56416   28.   LP ( 1) O  3
   51.  1.94022    -0.36516   32.   LP ( 3)Br  9
   52.  1.84218    -0.31255   27.   LP ( 2) O  1
   53.  1.79156    -0.38051   29.   LP ( 2) O  3
   54.  1.67673    -0.34370   48.   BD ( 2) C  7- C  8
   55.  1.65526    -0.32593   53.   BD ( 2) C 10- C 11
   56.  1.64218    -0.32665   46.   BD ( 2) C  6- C 12
   57.  0.38051     0.05826   70.   BD*( 2) C  6- C 12
   58.  0.37843     0.03958   72.   BD*( 2) C  7- C  8
   59.  0.29515     0.06652   77.   BD*( 2) C 10- C 11
   60.  0.23964     0.08090   58.   BD*( 2) O  1- C  2
   61.  0.10095     0.45639   59.   BD*( 1) C  2- O  3
   62.  0.07283     0.51624   60.   BD*( 1) C  2- C 12
   63.  0.02968     0.65632   69.   BD*( 1) C  6- C 12
   64.  0.02504     0.16873   74.   BD*( 1) C  8-Br  9
   65.  0.02353     0.34916   61.   BD*( 1) O  3- C  4
   66.  0.02307     0.67328   68.   BD*( 1) C  6- C  7
   67.  0.02245     0.64845   75.   BD*( 1) C  8- C 10
   68.  0.02158     0.65045   71.   BD*( 1) C  7- C  8
   69.  0.02152     0.66639   79.   BD*( 1) C 11- C 12
   70.  0.02127     0.49468   65.   BD*( 1) C  5- C  6
   71.  0.02097     0.51184   64.   BD*( 1) C  4- H 14
   72.  0.02028     0.43712   62.   BD*( 1) C  4- C  5
   73.  0.01906     0.70861   57.   BD*( 1) O  1- C  2
   74.  0.01668     0.96254   90.   RY ( 1) C  2
   75.  0.01570     0.68012   76.   BD*( 1) C 10- C 11
   76.  0.01357     0.51691   67.   BD*( 1) C  5- H 16
   77.  0.01328     0.58901   80.   BD*( 1) C 11- H 19
   78.  0.01237     0.56861   73.   BD*( 1) C  7- H 17
   79.  0.01195     0.53473   63.   BD*( 1) C  4- H 13
   80.  0.01167     0.58111   78.   BD*( 1) C 10- H 18
   81.  0.01107     1.04634   91.   RY ( 2) C  2
   82.  0.00961     0.52202   66.   BD*( 1) C  5- H 15
   83.  0.00665     1.08383  119.   RY ( 1) C  8
   84.  0.00627     1.28591  136.   RY ( 1) C 11
   85.  0.00570     1.36245  115.   RY ( 1) C  7
   86.  0.00538     1.33113  132.   RY ( 1) C 10
   87.  0.00517     1.35402  120.   RY ( 2) C  8
   88.  0.00501     1.50431  111.   RY ( 1) C  6
   89.  0.00448     1.50762  140.   RY ( 1) C 12
   90.  0.00394     1.27336  112.   RY ( 2) C  6
   91.  0.00378     1.11953  137.   RY ( 2) C 11
   92.  0.00375     0.98510  116.   RY ( 2) C  7
   93.  0.00335     1.02363  133.   RY ( 2) C 10
   94.  0.00323     1.35962  141.   RY ( 2) C 12
   95.  0.00304     0.62498  150.   RY ( 1) H 19
   96.  0.00292     0.95816  103.   RY ( 1) C  4
   97.  0.00287     1.10045  107.   RY ( 1) C  5
   98.  0.00217     1.08930  104.   RY ( 2) C  4
   99.  0.00205     0.60935  147.   RY ( 1) H 16
  100.  0.00198     0.60287  145.   RY ( 1) H 14
  101.  0.00190     1.85655   94.   RY ( 1) O  3
  102.  0.00188     0.67310  123.   RY ( 1)Br  9
  103.  0.00155     0.96231  113.   RY ( 3) C  6
  104.  0.00150     0.84924   92.   RY ( 3) C  2
  105.  0.00134     0.78872  142.   RY ( 3) C 12
  106.  0.00126     0.61081  146.   RY ( 1) H 15
  107.  0.00126     2.00789   95.   RY ( 2) O  3
  108.  0.00125     0.61323  148.   RY ( 1) H 17
  109.  0.00118     0.60308  149.   RY ( 1) H 18
  110.  0.00117     0.97965  108.   RY ( 2) C  5
  111.  0.00108     0.57848  144.   RY ( 1) H 13
  112.  0.00094     0.73883  124.   RY ( 2)Br  9
  113.  0.00093     1.76524   96.   RY ( 3) O  3
  114.  0.00089     1.81508   81.   RY ( 1) O  1
  115.  0.00083     0.93495  121.   RY ( 3) C  8
  116.  0.00073     1.03513  109.   RY ( 3) C  5
  117.  0.00060     1.10736  125.   RY ( 3)Br  9
  118.  0.00060     2.18540   82.   RY ( 2) O  1
  119.  0.00059     0.96945  105.   RY ( 3) C  4
  120.  0.00058     0.90150   93.   RY ( 4) C  2
  121.  0.00056     0.71173  117.   RY ( 3) C  7
  122.  0.00048     0.81503  114.   RY ( 4) C  6
  123.  0.00047     0.71588  134.   RY ( 3) C 10
  124.  0.00042     0.73851  138.   RY ( 3) C 11
  125.  0.00040     1.67531   83.   RY ( 3) O  1
  126.  0.00037     0.70471  122.   RY ( 4) C  8
  127.  0.00035     0.92272  118.   RY ( 4) C  7
  128.  0.00035     1.02694  106.   RY ( 4) C  4
  129.  0.00033     0.92171  135.   RY ( 4) C 10
  130.  0.00029     1.00763  143.   RY ( 4) C 12
  131.  0.00026     1.96382   97.   RY ( 4) O  3
  132.  0.00026     0.92122  139.   RY ( 4) C 11
  133.  0.00025     0.81575  126.   RY ( 4)Br  9
  134.  0.00024     2.35884   98.   RY ( 5) O  3
  135.  0.00022     1.05896  110.   RY ( 4) C  5
  136.  0.00016     2.21657   99.   RY ( 6) O  3
  137.  0.00010     2.47051   84.   RY ( 4) O  1
  138.  0.00010     0.93032  127.   RY ( 5)Br  9
  139.  0.00004     0.63924  128.   RY ( 6)Br  9
  140.  0.00004     2.03549   85.   RY ( 5) O  1
  141.  0.00003     1.93683  100.   RY ( 7) O  3
  142.  0.00003     0.66652  129.   RY ( 7)Br  9
  143.  0.00003     2.05349  101.   RY ( 8) O  3
  144.  0.00002     1.96185   86.   RY ( 6) O  1
  145.  0.00002     0.76102  130.   RY ( 8)Br  9
  146.  0.00001     1.91269   87.   RY ( 7) O  1
  147.  0.00002     1.92017  102.   RY ( 9) O  3
  148.  0.00001     0.71143  131.   RY ( 9)Br  9
  149.  0.00001     1.93644   88.   RY ( 8) O  1
  150.  0.00000     1.96389   89.   RY ( 9) O  1

 NBO analysis completed in 0.50 CPU seconds (0 wall seconds)
 Maximum scratch memory used by NBO was 644591 words (4.92 MB)
 Maximum scratch memory used by G16NBO was 43128 words (0.33 MB)

 Opening RunExU unformatted file "/home/rpaton/opt/xtb/Gau-1508920.EUF"
 Read unf file /home/rpaton/opt/xtb/Gau-1508920.EUF:
 Label Gaussian matrix elements                                         IVers= 2 NLab= 2 Version=ES64L-G16RevC.01
 Title energy: -35.070055548508 gnorm: 0.000457512137 xtb: 6.7.0 (08769
 NAtoms=    19 NBasis=   150 NBsUse=   150 ICharg=     0 Multip=     1 NE=   112 Len12L=8 Len4L=8 IOpCl= 0 ICGU=111
 GAUSSIAN SCALARS                    NI= 1 NR= 1 NTot=       1 LenBuf=    2 NRI=1 N=    1000
 ALPHA ORBITAL ENERGIES              NI= 0 NR= 1 NTot=     150 LenBuf= 2048 NRI=1 N=     150
 ALPHA MO COEFFICIENTS               NI= 0 NR= 1 NTot=   22500 LenBuf= 2048 NRI=1 N=     150     150
 Store file  10524 Len=   22500.
 NPA CHARGES                         NI= 0 NR= 1 NTot=      19 LenBuf= 2048 NRI=1 N=      19
 Recovered energy= -3056.64411753     dipole=      0.470621750493     -1.260471269038      0.259340818744
 Unable to Open any file for archive entry.
 1\1\GINC-DYNAMO\SP\RwB97XD\MIDIx\C9H7Br1O2\RPATON\26-Sep-2024\0\\# wb9
 7xd midix pop(nbo6read,savenbos,hirshfeld)\\energy: -35.070055548508 g
 norm: 0.000457512137 xtb: 6.7.0 (08769fc)\\0,1\O,0,-3.33889,1.85455,-0
 .33796\C,0,-2.85947,0.77816,-0.09683\O,0,-3.66348,-0.28242,0.09138\C,0
 ,-3.10018,-1.52289,0.4877\C,0,-1.85316,-1.87059,-0.31733\C,0,-0.87546,
 -0.74557,-0.15666\C,0,0.49606,-0.93657,-0.14091\C,0,1.33237,0.15731,0.
 01155\Br,0,3.214,-0.11756,0.03938\C,0,0.83095,1.44322,0.14733\C,0,-0.5
 3656,1.63232,0.12371\C,0,-1.39205,0.54475,-0.02317\H,0,-3.89463,-2.257
 32,0.33918\H,0,-2.85292,-1.47691,1.55712\H,0,-1.43314,-2.81418,0.03055
 \H,0,-2.11605,-1.97998,-1.37409\H,0,0.90922,-1.9283,-0.24618\H,0,1.502
 61,2.27914,0.26412\H,0,-0.96315,2.61914,0.21545\\Version=ES64L-G16RevC
 .01\State=1-A\HF=-3056.6441175\RMSD=4.444e-09\Dipole=0.4717162,-1.2561
 267,0.2777768\Quadrupole=-6.6358763,5.7990979,0.8367784,9.2419955,-1.6
 720454,1.1093686\PG=C01 [X(C9H7Br1O2)]\\@
 The archive entry for this job was punched.


 I DON'T EXACTLY UNDERSTAND WHAT YOU ARE SAYING,
 BUT YOU ARE ABSOLUTELY RIGHT.
     M.S.GORDON, IN A NDSU FACULTY MEETING
 Job cpu time:       0 days  0 hours  3 minutes 32.3 seconds.
 Elapsed time:       0 days  0 hours  0 minutes  9.1 seconds.
 File lengths (MBytes):  RWF=     17 Int=      0 D2E=      0 Chk=      2 Scr=      1
 Normal termination of Gaussian 16 at Thu Sep 26 14:38:34 2024.
