 Entering Gaussian System, Link 0=/usr/local/Gaussian/G16C/g16/g16
 Input=popn/arbr43_xtbopt_popn.com
 Output=popn/arbr43_xtbopt_popn.log
 Initial command:
 /usr/local/Gaussian/G16C/g16/l1.exe "/home/rpaton/opt/xtb/Gau-1518005.inp" -scrdir="/home/rpaton/opt/xtb/"
 Entering Link 1 = /usr/local/Gaussian/G16C/g16/l1.exe PID=   1518006.
  
 Copyright (c) 1988-2019, Gaussian, Inc.  All Rights Reserved.
  
 This is part of the Gaussian(R) 16 program.  It is based on
 the Gaussian(R) 09 system (copyright 2009, Gaussian, Inc.),
 the Gaussian(R) 03 system (copyright 2003, Gaussian, Inc.),
 the Gaussian(R) 98 system (copyright 1998, Gaussian, Inc.),
 the Gaussian(R) 94 system (copyright 1995, Gaussian, Inc.),
 the Gaussian 92(TM) system (copyright 1992, Gaussian, Inc.),
 the Gaussian 90(TM) system (copyright 1990, Gaussian, Inc.),
 the Gaussian 88(TM) system (copyright 1988, Gaussian, Inc.),
 the Gaussian 86(TM) system (copyright 1986, Carnegie Mellon
 University), and the Gaussian 82(TM) system (copyright 1983,
 Carnegie Mellon University). Gaussian is a federally registered
 trademark of Gaussian, Inc.
  
 This software contains proprietary and confidential information,
 including trade secrets, belonging to Gaussian, Inc.
  
 This software is provided under written license and may be
 used, copied, transmitted, or stored only in accord with that
 written license.
  
 The following legend is applicable only to US Government
 contracts under FAR:
  
                    RESTRICTED RIGHTS LEGEND
  
 Use, reproduction and disclosure by the US Government is
 subject to restrictions as set forth in subparagraphs (a)
 and (c) of the Commercial Computer Software - Restricted
 Rights clause in FAR 52.227-19.
  
 Gaussian, Inc.
 340 Quinnipiac St., Bldg. 40, Wallingford CT 06492
  
  
 ---------------------------------------------------------------
 Warning -- This program may not be used in any manner that
 competes with the business of Gaussian, Inc. or will provide
 assistance to any competitor of Gaussian, Inc.  The licensee
 of this program is prohibited from giving any competitor of
 Gaussian, Inc. access to this program.  By using this program,
 the user acknowledges that Gaussian, Inc. is engaged in the
 business of creating and licensing software in the field of
 computational chemistry and represents and warrants to the
 licensee that it is not a competitor of Gaussian, Inc. and that
 it will not use this program in any manner prohibited above.
 ---------------------------------------------------------------
  

 Cite this work as:
 Gaussian 16, Revision C.01,
 M. J. Frisch, G. W. Trucks, H. B. Schlegel, G. E. Scuseria, 
 M. A. Robb, J. R. Cheeseman, G. Scalmani, V. Barone, 
 G. A. Petersson, H. Nakatsuji, X. Li, M. Caricato, A. V. Marenich, 
 J. Bloino, B. G. Janesko, R. Gomperts, B. Mennucci, H. P. Hratchian, 
 J. V. Ortiz, A. F. Izmaylov, J. L. Sonnenberg, D. Williams-Young, 
 F. Ding, F. Lipparini, F. Egidi, J. Goings, B. Peng, A. Petrone, 
 T. Henderson, D. Ranasinghe, V. G. Zakrzewski, J. Gao, N. Rega, 
 G. Zheng, W. Liang, M. Hada, M. Ehara, K. Toyota, R. Fukuda, 
 J. Hasegawa, M. Ishida, T. Nakajima, Y. Honda, O. Kitao, H. Nakai, 
 T. Vreven, K. Throssell, J. A. Montgomery, Jr., J. E. Peralta, 
 F. Ogliaro, M. J. Bearpark, J. J. Heyd, E. N. Brothers, K. N. Kudin, 
 V. N. Staroverov, T. A. Keith, R. Kobayashi, J. Normand, 
 K. Raghavachari, A. P. Rendell, J. C. Burant, S. S. Iyengar, 
 J. Tomasi, M. Cossi, J. M. Millam, M. Klene, C. Adamo, R. Cammi, 
 J. W. Ochterski, R. L. Martin, K. Morokuma, O. Farkas, 
 J. B. Foresman, and D. J. Fox, Gaussian, Inc., Wallingford CT, 2019.
 
 ******************************************
 Gaussian 16:  ES64L-G16RevC.01  3-Jul-2019
                26-Sep-2024 
 ******************************************
 %nprocshared=24
 Will use up to   24 processors via shared memory.
 -----------------------------------------------
 # wb97xd midix pop(nbo6read,savenbos,hirshfeld)
 -----------------------------------------------
 1/38=1,163=2,172=1/1;
 2/12=2,17=6,18=5,40=1/2;
 3/5=20,11=2,25=1,30=1,74=-58/1,2,3;
 4//1;
 5/5=2,38=5/2;
 6/7=2,8=2,9=2,10=2,28=1,40=2,73=1,79=1,113=1,114=1,124=2103,126=1/1,12;
 99/5=1,9=1/99;
 -------------------------------------------------------------------
 energy: -32.024707278763 gnorm: 0.000396726366 xtb: 6.7.0 (08769fc)
 -------------------------------------------------------------------
 Symbolic Z-matrix:
 Charge =  0 Multiplicity = 1
 Br                    2.99342  -0.25958  -0.10009 
 C                     1.14493   0.19043  -0.01904 
 C                     0.77157   1.52267   0.02996 
 C                    -0.57582   1.82671   0.07294 
 C                    -1.54811   0.83663   0.08075 
 C                    -1.14665  -0.50201   0.05256 
 C                     0.20891  -0.82187  -0.00776 
 O                    -2.00854  -1.55071   0.06264 
 C                    -3.3694   -1.25156   0.31039 
 C                    -3.82063   0.00148  -0.42881 
 C                    -3.01189   1.18433   0.09478 
 H                     1.51618   2.30252   0.02672 
 H                    -0.88513   2.86131   0.09737 
 H                     0.49778  -1.85993  -0.04322 
 H                    -3.92136  -2.13547  -0.01777 
 H                    -3.51964  -1.12209   1.39139 
 H                    -3.63557  -0.13034  -1.49682 
 H                    -4.88826   0.15648  -0.27645 
 H                    -3.32259   1.42203   1.11738 
 H                    -3.1866    2.07262  -0.51535 
 
                          Input orientation:                          
 ---------------------------------------------------------------------
 Center     Atomic      Atomic             Coordinates (Angstroms)
 Number     Number       Type             X           Y           Z
 ---------------------------------------------------------------------
      1         35           0        2.993420   -0.259580   -0.100090
      2          6           0        1.144930    0.190430   -0.019040
      3          6           0        0.771570    1.522670    0.029960
      4          6           0       -0.575820    1.826710    0.072940
      5          6           0       -1.548110    0.836630    0.080750
      6          6           0       -1.146650   -0.502010    0.052560
      7          6           0        0.208910   -0.821870   -0.007760
      8          8           0       -2.008540   -1.550710    0.062640
      9          6           0       -3.369400   -1.251560    0.310390
     10          6           0       -3.820630    0.001480   -0.428810
     11          6           0       -3.011890    1.184330    0.094780
     12          1           0        1.516180    2.302520    0.026720
     13          1           0       -0.885130    2.861310    0.097370
     14          1           0        0.497780   -1.859930   -0.043220
     15          1           0       -3.921360   -2.135470   -0.017770
     16          1           0       -3.519640   -1.122090    1.391390
     17          1           0       -3.635570   -0.130340   -1.496820
     18          1           0       -4.888260    0.156480   -0.276450
     19          1           0       -3.322590    1.422030    1.117380
     20          1           0       -3.186600    2.072620   -0.515350
 ---------------------------------------------------------------------
                    Distance matrix (angstroms):
                    1          2          3          4          5
     1  Br   0.000000
     2  C    1.904204   0.000000
     3  C    2.851306   1.384436   0.000000
     4  C    4.137876   2.376311   1.381936   0.000000
     5  C    4.675454   2.771281   2.419534   1.387684   0.000000
     6  C    4.149970   2.394982   2.789159   2.397749   1.397828
     7  C    2.842216   1.378772   2.411406   2.763565   2.417763
     8  O    5.168472   3.603139   4.144363   3.668754   2.431402
     9  C    6.452751   4.750477   4.992257   4.163678   2.780354
    10  C    6.826968   4.986020   4.859299   3.756595   2.474161
    11  C    6.179531   4.275505   3.799111   2.519438   1.504574
    12  H    2.960182   2.144958   1.078249   2.145925   3.397297
    13  H    4.982178   3.356828   2.130999   1.080123   2.130528
    14  H    2.965227   2.150201   3.394451   3.841539   3.387104
    15  H    7.165188   5.574684   5.950450   5.186496   3.804655
    16  H    6.737090   5.046804   5.221372   4.370333   3.072669
    17  H    6.775771   5.013971   4.948372   3.956799   2.789489
    18  H    7.894624   6.038774   5.830441   4.637767   3.427360
    19  H    6.648461   4.771480   4.237305   2.966373   2.136837
    20  H    6.618478   4.748801   4.033227   2.687514   2.137208
                    6          7          8          9         10
     6  C    0.000000
     7  C    1.394092   0.000000
     8  O    1.357471   2.335219   0.000000
     9  C    2.359856   3.618032   1.415207   0.000000
    10  C    2.763221   4.134293   2.436080   1.523199   0.000000
    11  C    2.514885   3.795906   2.913450   2.471409   1.525563
    12  H    3.867392   3.387028   5.222291   6.048210   5.829565
    13  H    3.373770   3.843669   4.552931   4.809644   4.131907
    14  H    2.134776   1.078087   2.527541   3.930679   4.718283
    15  H    3.220583   4.334141   2.001822   1.092541   2.178453
    16  H    2.794288   3.993725   2.057356   1.099043   2.160123
    17  H    2.955239   4.180376   2.663943   2.143359   1.091911
    18  H    3.813332   5.197163   3.364858   2.152648   1.089529
    19  H    3.093620   4.332727   3.417073   2.793118   2.157941
    20  H    3.333562   4.490569   3.853624   3.430078   2.167742
                   11         12         13         14         15
    11  C    0.000000
    12  H    4.664590   0.000000
    13  H    2.708390   2.466481   0.000000
    14  H    4.648048   4.285793   4.921617   0.000000
    15  H    3.443962   7.018873   5.848056   4.427795   0.000000
    16  H    2.694175   6.240974   4.947990   4.329224   1.781586
    17  H    2.156507   5.897500   4.365356   4.710522   2.507950
    18  H    2.171417   6.761232   4.845709   5.755843   2.500969
    19  H    1.094873   5.037708   3.008847   5.168509   3.781917
    20  H    1.091715   4.739497   2.508829   5.409484   4.300637
                   16         17         18         19         20
    16  H    0.000000
    17  H    3.055939   0.000000
    18  H    2.507898   1.772230   0.000000
    19  H    2.566409   3.056444   2.448612   0.000000
    20  H    3.735337   2.453139   2.573774   1.762830   0.000000
 Stoichiometry    C9H9BrO
 Framework group  C1[X(C9H9BrO)]
 Deg. of freedom    54
 Full point group                 C1      NOp   1
 Largest Abelian subgroup         C1      NOp   1
 Largest concise Abelian subgroup C1      NOp   1
                         Standard orientation:                         
 ---------------------------------------------------------------------
 Center     Atomic      Atomic             Coordinates (Angstroms)
 Number     Number       Type             X           Y           Z
 ---------------------------------------------------------------------
      1         35           0       -3.001707   -0.254224    0.036626
      2          6           0       -1.151362    0.192322   -0.016413
      3          6           0       -0.774972    1.523637   -0.067322
      4          6           0        0.573462    1.825251   -0.089740
      5          6           0        1.544060    0.833587   -0.075338
      6          6           0        1.139909   -0.504211   -0.045663
      7          6           0       -0.217009   -0.821525   -0.005947
      8          8           0        2.000061   -1.554331   -0.035009
      9          6           0        3.365359   -1.258883   -0.261911
     10          6           0        3.806372   -0.002061    0.477033
     11          6           0        3.008461    1.178851   -0.067141
     12          1           0       -1.518205    2.304683   -0.081225
     13          1           0        0.884896    2.859186   -0.115334
     14          1           0       -0.508195   -1.858885    0.031035
     15          1           0        3.910282   -2.141648    0.080770
     16          1           0        3.533767   -1.136281   -1.341033
     17          1           0        3.603361   -0.127038    1.542602
     18          1           0        4.876649    0.150293    0.341509
     19          1           0        3.336520    1.409783   -1.085863
     20          1           0        3.174517    2.070583    0.540380
 ---------------------------------------------------------------------
 Rotational constants (GHZ):           2.4510255           0.3732244           0.3280302
 Standard basis: MIDIx (5D, 7F)
 There are   143 symmetry adapted cartesian basis functions of A   symmetry.
 There are   140 symmetry adapted basis functions of A   symmetry.
   140 basis functions,   246 primitive gaussians,   143 cartesian basis functions
    53 alpha electrons       53 beta electrons
       nuclear repulsion energy       827.5070561860 Hartrees.
 NAtoms=   20 NActive=   20 NUniq=   20 SFac= 1.00D+00 NAtFMM=   60 NAOKFM=F Big=F
 Integral buffers will be    131072 words long.
 Raffenetti 2 integral format.
 Two-electron integral symmetry is turned on.
 Nuclear repulsion after empirical dispersion term =      827.4947897399 Hartrees.
 One-electron integrals computed using PRISM.
 NBasis=   140 RedAO= T EigKep=  1.05D-03  NBF=   140
 NBsUse=   140 1.00D-06 EigRej= -1.00D+00 NBFU=   140
 ExpMin= 1.47D-01 ExpMax= 6.10D+03 ExpMxC= 6.10D+03 IAcc=3 IRadAn=         5 AccDes= 0.00D+00
 Harris functional with IExCor= 4639 and IRadAn=       5 diagonalized for initial guess.
 HarFok:  IExCor= 4639 AccDes= 0.00D+00 IRadAn=         5 IDoV= 1 UseB2=F ITyADJ=14
 ICtDFT=  3500011 ScaDFX=  1.000000  1.000000  1.000000  1.000000
 FoFCou: FMM=F IPFlag=           0 FMFlag=      100000 FMFlg1=           0
         NFxFlg=           0 DoJE=T BraDBF=F KetDBF=T FulRan=T
         wScrn=  0.000000 ICntrl=       500 IOpCl=  0 I1Cent=   200000004 NGrid=           0
         NMat0=    1 NMatS0=      1 NMatT0=    0 NMatD0=    1 NMtDS0=    0 NMtDT0=    0
 Petite list used in FoFCou.
 Requested convergence on RMS density matrix=1.00D-08 within 128 cycles.
 Requested convergence on MAX density matrix=1.00D-06.
 Requested convergence on             energy=1.00D-06.
 No special actions if energy rises.
 Integral accuracy reduced to 1.0D-05 until final iterations.
 Initial convergence to 1.0D-05 achieved.  Increase integral accuracy.
 SCF Done:  E(RwB97XD) =  -2983.04687725     A.U. after   16 cycles
            NFock= 16  Conv=0.45D-08     -V/T= 2.0021

 **********************************************************************

            Population analysis using the SCF Density.

 **********************************************************************

 Orbital symmetries:
       Occupied  (A) (A) (A) (A) (A) (A) (A) (A) (A) (A) (A) (A)
                 (A) (A) (A) (A) (A) (A) (A) (A) (A) (A) (A) (A)
                 (A) (A) (A) (A) (A) (A) (A) (A) (A) (A) (A) (A)
                 (A) (A) (A) (A) (A) (A) (A) (A) (A) (A) (A) (A)
                 (A) (A) (A) (A) (A)
       Virtual   (A) (A) (A) (A) (A) (A) (A) (A) (A) (A) (A) (A)
                 (A) (A) (A) (A) (A) (A) (A) (A) (A) (A) (A) (A)
                 (A) (A) (A) (A) (A) (A) (A) (A) (A) (A) (A) (A)
                 (A) (A) (A) (A) (A) (A) (A) (A) (A) (A) (A) (A)
                 (A) (A) (A) (A) (A) (A) (A) (A) (A) (A) (A) (A)
                 (A) (A) (A) (A) (A) (A) (A) (A) (A) (A) (A) (A)
                 (A) (A) (A) (A) (A) (A) (A) (A) (A) (A) (A) (A)
                 (A) (A) (A)
 The electronic state is 1-A.
 Alpha  occ. eigenvalues -- -480.13939 -62.57327 -56.16225 -56.15800 -56.15787
 Alpha  occ. eigenvalues --  -19.18524 -10.30319 -10.29203 -10.28820 -10.24590
 Alpha  occ. eigenvalues --  -10.24476 -10.24201 -10.24139 -10.23707 -10.23568
 Alpha  occ. eigenvalues --   -8.88168  -6.66647  -6.65225  -6.65210  -2.76954
 Alpha  occ. eigenvalues --   -2.76459  -2.76443  -2.75272  -2.75267  -1.18056
 Alpha  occ. eigenvalues --   -0.98799  -0.93201  -0.90148  -0.86405  -0.83507
 Alpha  occ. eigenvalues --   -0.77404  -0.73858  -0.71627  -0.65780  -0.61210
 Alpha  occ. eigenvalues --   -0.59985  -0.59106  -0.54451  -0.53355  -0.53046
 Alpha  occ. eigenvalues --   -0.52328  -0.49880  -0.48698  -0.47408  -0.45613
 Alpha  occ. eigenvalues --   -0.44775  -0.42129  -0.41203  -0.39349  -0.37316
 Alpha  occ. eigenvalues --   -0.35595  -0.31386  -0.29115
 Alpha virt. eigenvalues --    0.06432   0.08037   0.09512   0.16790   0.19786
 Alpha virt. eigenvalues --    0.20751   0.22032   0.22515   0.24120   0.24686
 Alpha virt. eigenvalues --    0.25547   0.25853   0.27219   0.28624   0.31539
 Alpha virt. eigenvalues --    0.33230   0.34914   0.37912   0.40616   0.42393
 Alpha virt. eigenvalues --    0.43898   0.47194   0.54737   0.56782   0.59089
 Alpha virt. eigenvalues --    0.60333   0.61743   0.65049   0.65170   0.65874
 Alpha virt. eigenvalues --    0.67592   0.68802   0.69012   0.69378   0.72585
 Alpha virt. eigenvalues --    0.74470   0.75884   0.77119   0.80335   0.82864
 Alpha virt. eigenvalues --    0.85425   0.85770   0.86475   0.88619   0.90053
 Alpha virt. eigenvalues --    0.93463   0.95442   0.96011   0.97011   0.97592
 Alpha virt. eigenvalues --    0.98567   0.99415   1.00597   1.01880   1.02337
 Alpha virt. eigenvalues --    1.03516   1.04187   1.04811   1.06181   1.06969
 Alpha virt. eigenvalues --    1.08331   1.09049   1.10496   1.11420   1.12947
 Alpha virt. eigenvalues --    1.17531   1.21360   1.25102   1.32452   1.34966
 Alpha virt. eigenvalues --    1.42001   1.45118   1.53914   1.57442   1.59316
 Alpha virt. eigenvalues --    1.64990   1.67523   1.71194   1.80299   1.92128
 Alpha virt. eigenvalues --    1.93548   1.97620   2.00298   2.06603   2.24940
 Alpha virt. eigenvalues --    2.52749   2.71063
          Condensed to atoms (all electrons):
               1          2          3          4          5          6
     1  Br  34.937782   0.207236  -0.036229   0.001826   0.000410   0.001657
     2  C    0.207236   5.078005   0.469176  -0.033026  -0.049672  -0.017384
     3  C   -0.036229   0.469176   4.948013   0.511053  -0.036048  -0.023018
     4  C    0.001826  -0.033026   0.511053   4.909856   0.454859  -0.018387
     5  C    0.000410  -0.049672  -0.036048   0.454859   5.254933   0.454047
     6  C    0.001657  -0.017384  -0.023018  -0.018387   0.454047   4.574791
     7  C   -0.036548   0.454066  -0.051960  -0.021563  -0.034380   0.500569
     8  O   -0.000013   0.003029  -0.000012   0.001975  -0.038525   0.259066
     9  C    0.000001  -0.000230   0.000035  -0.000088  -0.004089  -0.045808
    10  C   -0.000000  -0.000041  -0.000029   0.001880  -0.065096  -0.024628
    11  C    0.000002   0.000767   0.000277  -0.019665   0.258965  -0.016505
    12  H    0.000446  -0.021314   0.396073  -0.017383   0.002927   0.000010
    13  H   -0.000065   0.003184  -0.019859   0.397017  -0.023332   0.002128
    14  H   -0.000455  -0.017759   0.002640  -0.000402   0.004535  -0.018627
    15  H   -0.000000   0.000001   0.000000   0.000013  -0.000511   0.004202
    16  H   -0.000000   0.000010  -0.000007  -0.000148   0.003173  -0.002094
    17  H   -0.000000  -0.000004   0.000008  -0.000259  -0.001583   0.002112
    18  H    0.000000   0.000000  -0.000000   0.000031   0.005686   0.000402
    19  H   -0.000000   0.000000   0.000019  -0.004599  -0.030312  -0.001689
    20  H   -0.000000   0.000009   0.000228  -0.005297  -0.031030   0.002145
               7          8          9         10         11         12
     1  Br  -0.036548  -0.000013   0.000001  -0.000000   0.000002   0.000446
     2  C    0.454066   0.003029  -0.000230  -0.000041   0.000767  -0.021314
     3  C   -0.051960  -0.000012   0.000035  -0.000029   0.000277   0.396073
     4  C   -0.021563   0.001975  -0.000088   0.001880  -0.019665  -0.017383
     5  C   -0.034380  -0.038525  -0.004089  -0.065096   0.258965   0.002927
     6  C    0.500569   0.259066  -0.045808  -0.024628  -0.016505   0.000010
     7  C    5.002712  -0.053394   0.003734   0.000240  -0.000639   0.002613
     8  O   -0.053394   8.421268   0.173405  -0.030963  -0.011592   0.000001
     9  C    0.003734   0.173405   4.938961   0.295793  -0.093539  -0.000000
    10  C    0.000240  -0.030963   0.295793   5.325577   0.311593   0.000001
    11  C   -0.000639  -0.011592  -0.093539   0.311593   5.211439  -0.000029
    12  H    0.002613   0.000001  -0.000000   0.000001  -0.000029   0.435997
    13  H    0.000045  -0.000019   0.000002   0.000099  -0.004570  -0.004312
    14  H    0.385479   0.001420  -0.000026   0.000028  -0.000011  -0.000055
    15  H    0.000110  -0.024109   0.391088  -0.032744   0.006321   0.000000
    16  H   -0.000060  -0.026020   0.388765  -0.050476  -0.009137  -0.000000
    17  H   -0.000312   0.000425  -0.033153   0.384671  -0.036994   0.000000
    18  H    0.000011   0.002231  -0.028789   0.386355  -0.037756  -0.000000
    19  H   -0.000044   0.000030  -0.003740  -0.033296   0.390843   0.000001
    20  H   -0.000077   0.000070   0.006133  -0.032162   0.393544  -0.000006
              13         14         15         16         17         18
     1  Br  -0.000065  -0.000455  -0.000000  -0.000000  -0.000000   0.000000
     2  C    0.003184  -0.017759   0.000001   0.000010  -0.000004   0.000000
     3  C   -0.019859   0.002640   0.000000  -0.000007   0.000008  -0.000000
     4  C    0.397017  -0.000402   0.000013  -0.000148  -0.000259   0.000031
     5  C   -0.023332   0.004535  -0.000511   0.003173  -0.001583   0.005686
     6  C    0.002128  -0.018627   0.004202  -0.002094   0.002112   0.000402
     7  C    0.000045   0.385479   0.000110  -0.000060  -0.000312   0.000011
     8  O   -0.000019   0.001420  -0.024109  -0.026020   0.000425   0.002231
     9  C    0.000002  -0.000026   0.391088   0.388765  -0.033153  -0.028789
    10  C    0.000099   0.000028  -0.032744  -0.050476   0.384671   0.386355
    11  C   -0.004570  -0.000011   0.006321  -0.009137  -0.036994  -0.037756
    12  H   -0.004312  -0.000055   0.000000  -0.000000   0.000000  -0.000000
    13  H    0.454779   0.000007  -0.000000   0.000001   0.000004  -0.000007
    14  H    0.000007   0.429643  -0.000036   0.000015   0.000006  -0.000001
    15  H   -0.000000  -0.000036   0.492459  -0.032561  -0.004265  -0.000668
    16  H    0.000001   0.000015  -0.032561   0.534138   0.004970  -0.000376
    17  H    0.000004   0.000006  -0.004265   0.004970   0.492440  -0.022101
    18  H   -0.000007  -0.000001  -0.000668  -0.000376  -0.022101   0.497714
    19  H    0.000597   0.000002  -0.000134   0.004102   0.004116  -0.003632
    20  H    0.003120   0.000002  -0.000152   0.000064  -0.003460  -0.000745
              19         20
     1  Br  -0.000000  -0.000000
     2  C    0.000000   0.000009
     3  C    0.000019   0.000228
     4  C   -0.004599  -0.005297
     5  C   -0.030312  -0.031030
     6  C   -0.001689   0.002145
     7  C   -0.000044  -0.000077
     8  O    0.000030   0.000070
     9  C   -0.003740   0.006133
    10  C   -0.033296  -0.032162
    11  C    0.390843   0.393544
    12  H    0.000001  -0.000006
    13  H    0.000597   0.003120
    14  H    0.000002   0.000002
    15  H   -0.000134  -0.000152
    16  H    0.004102   0.000064
    17  H    0.004116  -0.003460
    18  H   -0.003632  -0.000745
    19  H    0.493615  -0.024974
    20  H   -0.024974   0.487594
 Mulliken charges:
               1
     1  Br  -0.076049
     2  C   -0.076053
     3  C   -0.160360
     4  C   -0.157692
     5  C   -0.124957
     6  C    0.367010
     7  C   -0.150601
     8  O   -0.678272
     9  C    0.011544
    10  C   -0.436801
    11  C   -0.343314
    12  H    0.205031
    13  H    0.191179
    14  H    0.213595
    15  H    0.200987
    16  H    0.185643
    17  H    0.213377
    18  H    0.201646
    19  H    0.209096
    20  H    0.204994
 Sum of Mulliken charges =  -0.00000
 Mulliken charges with hydrogens summed into heavy atoms:
               1
     1  Br  -0.076049
     2  C   -0.076053
     3  C    0.044671
     4  C    0.033487
     5  C   -0.124957
     6  C    0.367010
     7  C    0.062994
     8  O   -0.678272
     9  C    0.398174
    10  C   -0.021779
    11  C    0.070775
 Electronic spatial extent (au):  <R**2>=           3025.6657
 Charge=             -0.0000 electrons
 Dipole moment (field-independent basis, Debye):
    X=              3.3929    Y=              0.9325    Z=             -0.1732  Tot=              3.5230
 Quadrupole moment (field-independent basis, Debye-Ang):
   XX=            -66.4765   YY=            -73.0703   ZZ=            -78.8878
   XY=             -0.0099   XZ=             -0.7850   YZ=              0.0101
 Traceless Quadrupole moment (field-independent basis, Debye-Ang):
   XX=              6.3351   YY=             -0.2588   ZZ=             -6.0763
   XY=             -0.0099   XZ=             -0.7850   YZ=              0.0101
 Octapole moment (field-independent basis, Debye-Ang**2):
  XXX=            -43.6775  YYY=             -5.4294  ZZZ=              1.2431  XYY=            -28.0075
  XXY=            -11.4849  XXZ=             -2.5292  XZZ=            -25.3845  YZZ=             -7.3542
  YYZ=              0.6927  XYZ=              0.6698
 Hexadecapole moment (field-independent basis, Debye-Ang**3):
 XXXX=          -2563.5421 YYYY=           -555.0570 ZZZZ=           -111.6609 XXXY=            -14.6515
 XXXZ=            -18.7612 YYYX=             11.5899 YYYZ=             -0.9342 ZZZX=             -5.8190
 ZZZY=              0.3383 XXYY=           -540.8186 XXZZ=           -485.8043 YYZZ=           -123.5297
 XXYZ=              0.4414 YYXZ=              0.8249 ZZXY=              3.3159
 N-N= 8.274947897399D+02 E-N=-8.757173828151D+03  KE= 2.976821730617D+03
 There are a total of      455472 grid points.
 ElSum from          density=      106.0000194128
 ElSum from atomic densities=      106.0001216986
 Hirshfeld populations at iteration   1 (CA, CB, DipXYZ):
               1          2          3          4          5
     1  Br  17.527392  17.527392  -0.021864  -0.006658   0.000797
     2  C    2.995925   2.995925  -0.053939  -0.011174   0.001408
     3  C    3.031041   3.031041  -0.012128   0.037025  -0.001239
     4  C    3.020201   3.020201   0.011076   0.049393  -0.001785
     5  C    3.013470   3.013470   0.051480   0.002470   0.000577
     6  C    2.961373   2.961373   0.061812  -0.073090   0.000320
     7  C    3.032055   3.032055   0.021278  -0.031198   0.002799
     8  O    4.072158   4.072158   0.048716   0.102459  -0.020707
     9  C    2.978381   2.978381  -0.029824  -0.007077   0.020056
    10  C    3.022016   3.022016  -0.004501  -0.003563  -0.028166
    11  C    3.021004   3.021004   0.003004  -0.015199   0.012565
    12  H    0.477969   0.477969  -0.098960   0.131084  -0.002752
    13  H    0.477774   0.477774   0.039550   0.153797  -0.003941
    14  H    0.475251   0.475251  -0.031758  -0.164032   0.005720
    15  H    0.477696   0.477696   0.079962  -0.118944   0.045303
    16  H    0.483513   0.483513   0.033984   0.009113  -0.134196
    17  H    0.483886   0.483886  -0.021926  -0.017288   0.144869
    18  H    0.482144   0.482144   0.145271   0.019741  -0.019898
    19  H    0.484493   0.484493   0.049923   0.036189  -0.132681
    20  H    0.482268   0.482268   0.028376   0.120881   0.081209
       Tot  53.000010  53.000010   0.299533   0.213927  -0.029741

 Dip from Atomic Chgs              1.035306   0.152942  -0.038354
         Total Dipole              1.334839   0.366869  -0.068095

 Hirshfeld charges, spin densities, dipoles, and CM5 charges using IRadAn=      5:
              Q-H        S-H        Dx         Dy         Dz        Q-CM5   
     1  Br  -0.054784   0.000000  -0.021864  -0.006658   0.000797  -0.040069
     2  C    0.008149   0.000000  -0.053939  -0.011174   0.001408  -0.012757
     3  C   -0.062082   0.000000  -0.012128   0.037025  -0.001239  -0.116426
     4  C   -0.040401   0.000000   0.011076   0.049393  -0.001785  -0.094331
     5  C   -0.026940   0.000000   0.051480   0.002470   0.000577  -0.037575
     6  C    0.077254   0.000000   0.061812  -0.073090   0.000320   0.096739
     7  C   -0.064111   0.000000   0.021278  -0.031198   0.002799  -0.112735
     8  O   -0.144316   0.000000   0.048716   0.102459  -0.020707  -0.228876
     9  C    0.043237   0.000000  -0.029824  -0.007077   0.020056  -0.036849
    10  C   -0.044032   0.000000  -0.004501  -0.003563  -0.028166  -0.151029
    11  C   -0.042007   0.000000   0.003004  -0.015199   0.012565  -0.144881
    12  H    0.044062   0.000000  -0.098960   0.131084  -0.002752   0.101620
    13  H    0.044452   0.000000   0.039550   0.153797  -0.003941   0.102016
    14  H    0.049498   0.000000  -0.031758  -0.164032   0.005720   0.110622
    15  H    0.044608   0.000000   0.079962  -0.118944   0.045303   0.108477
    16  H    0.032974   0.000000   0.033984   0.009113  -0.134196   0.096159
    17  H    0.032229   0.000000  -0.021926  -0.017288   0.144869   0.090444
    18  H    0.035711   0.000000   0.145271   0.019741  -0.019898   0.090931
    19  H    0.031015   0.000000   0.049923   0.036189  -0.132681   0.087133
    20  H    0.035464   0.000000   0.028376   0.120881   0.081209   0.091369
       Tot  -0.000019   0.000000   0.299533   0.213927  -0.029741  -0.000019
 Hirshfeld charges with hydrogens summed into heavy atoms:
              Q-H       Q-CM5   
     1  Br  -0.054784  -0.040069
     2  C    0.008149  -0.012757
     3  C   -0.018021  -0.014806
     4  C    0.004051   0.007685
     5  C   -0.026940  -0.037575
     6  C    0.077254   0.096739
     7  C   -0.014613  -0.002114
     8  O   -0.144316  -0.228876
     9  C    0.120820   0.167786
    10  C    0.023908   0.030345
    11  C    0.024471   0.033621
 
 EQQ= 0.000000000000E+00 EQD= 0.000000000000E+00 EDD= 0.142567880429E-02
 EQQ+QD+DD= 0.142567880429E-02
 
 Running external command "gaunbo6 R"
         input file       "/home/rpaton/opt/xtb/Gau-1518006.EIn"
         output file      "/home/rpaton/opt/xtb/Gau-1518006.EOu"
         message file     "/home/rpaton/opt/xtb/Gau-1518006.EMs"
         fchk file        "/home/rpaton/opt/xtb/Gau-1518006.EFC"
         mat. el file     "/home/rpaton/opt/xtb/Gau-1518006.EUF"

 Writing WrtUnf unformatted file "/home/rpaton/opt/xtb/Gau-1518006.EUF"
 Gaussian matrix elements                                         Version   2 NLab=11 Len12L=8 Len4L=8
 Write SHELL TO ATOM MAP                   from file      0 offset           0 length                  80 to matrix element file.
 Write SHELL TYPES                         from file      0 offset           0 length                  80 to matrix element file.
 Write NUMBER OF PRIMITIVES PER SHELL      from file      0 offset           0 length                  80 to matrix element file.
 Write PRIMITIVE EXPONENTS                 from file      0 offset           0 length                 143 to matrix element file.
 Write CONTRACTION COEFFICIENTS            from file      0 offset           0 length                 143 to matrix element file.
 Write P(S=P) CONTRACTION COEFFICIENTS     from file      0 offset           0 length                 143 to matrix element file.
 Write COORDINATES OF EACH SHELL           from file      0 offset           0 length                 240 to matrix element file.
 Write BONDS PER ATOM                      from file      0 offset           0 length                  20 to matrix element file.
 Write BONDED ATOMS                        from file      0 offset           0 length                  42 to matrix element file.
 Write BOND TYPES                          from file      0 offset           0 length                  42 to matrix element file.
 Write ONIOM CHARGE/MULT                   from file      0 offset           0 length                  32 to matrix element file.
 Write ONIOM ATOM LAYERS                   from file      0 offset           0 length                  20 to matrix element file.
 Write ONIOM ATOM MODIFIERS                from file      0 offset           0 length                  20 to matrix element file.
 Write ONIOM ATOM TYPES                    from file      0 offset           0 length                  20 to matrix element file.
 Write ONIOM LINK ATOMS                    from file      0 offset           0 length                  20 to matrix element file.
 Write ONIOM LINK CHARGES                  from file      0 offset           0 length                  20 to matrix element file.
 Write ONIOM LINK DISTANCES                from file      0 offset           0 length                  80 to matrix element file.
 Write SYMINF INTS                         from file      0 offset           0 length                  26 to matrix element file.
 Write ROTTR TO SO                         from file      0 offset           0 length                  12 to matrix element file.
 Write GAUSSIAN SCALARS                    from file    501 offset           0 to matrix element file.
 Write OPTIMIZATION FLAGS                  from file      0 offset           0 length                  20 to matrix element file.
 Write INTEGER ISO                         from file      0 offset           0 length                  20 to matrix element file.
 Write INTEGER SPIN                        from file      0 offset           0 length                  20 to matrix element file.
 Write REAL ZEFFECTIVE                     from file      0 offset           0 length                  20 to matrix element file.
 Write REAL QUADRUPOLEMOMENT               from file      0 offset           0 length                  20 to matrix element file.
 Write REAL GFACTOR                        from file      0 offset           0 length                  20 to matrix element file.
 Write REAL ZNUCLEAR                       from file      0 offset           0 length                  20 to matrix element file.
 Write MULLIKEN CHARGES                    from file      0 offset           0 length                  20 to matrix element file.
 Write TYPE 6 CHARGES                      from file      0 offset           0 length                  20 to matrix element file.
 Write TYPE 7 CHARGES                      from file      0 offset           0 length                  20 to matrix element file.
 Write NUCLEAR GRADIENT                    from file  10584 offset           0 length                  60 to matrix element file.
 Array NUCLEAR FORCE CONSTANTS              on  file  10585 does not exist.
 Write ELECTRIC DIPOLE MOMENT              from file      0 offset           0 length                   3 to matrix element file.
 Write NON-ADIABATIC COUPLING              from file  10810 offset           0 length                  60 to matrix element file.
 Write FINITE EM FIELD                     from file  10521 offset           0 length                  35 to matrix element file.
 Write OVERLAP                             from file  10514 offset           0 length                9870 to matrix element file.
 Write CORE HAMILTONIAN ALPHA              from file  10515 offset           0 length                9870 to matrix element file.
 Write CORE HAMILTONIAN BETA               from file  10515 offset        9870 length                9870 to matrix element file.
 Write KINETIC ENERGY                      from file  10516 offset           0 length                9870 to matrix element file.
 Write ORTHOGONAL BASIS                    from file  10685 offset           0 length               19600 to matrix element file.
 Write DIPOLE INTEGRALS                    from file  10518 offset           0 length               29610 to matrix element file.
 Array DIP VEL INTEGRALS                    on  file  10572 does not exist.
 Array R X DEL INTEGRALS                    on  file  10572 does not exist.
 Write ALPHA ORBITAL ENERGIES              from file      0 offset           0 length                 140 to matrix element file.
 Write ALPHA MO COEFFICIENTS               from file  10524 offset           0 length               19600 to matrix element file.
 Write ALPHA DENSITY MATRIX                from file      0 offset           0 length                9870 to matrix element file.
 Write ALPHA FOCK MATRIX                   from file  10536 offset           0 length                9870 to matrix element file.
 Write ENERGY-WEIGHTED DENSITY             from file  10571 offset           0 length                9870 to matrix element file.
 Write ALPHA SCF DENSITY MATRIX            from file      0 offset           0 length                9870 to matrix element file.
 Write INTEGER PARAMETERS                  from file      0 offset           0 length                   2 to matrix element file.
 No 2e integrals to process.
 Perform NBO analysis...

 *********************************** NBO 7.0 ***********************************
             N A T U R A L   A T O M I C   O R B I T A L   A N D
          N A T U R A L   B O N D   O R B I T A L   A N A L Y S I S
 **************************** Robert Paton (I101709) ***************************
  (c) Copyright 1996-2019 Board of Regents of the University of Wisconsin System
      on behalf of the Theoretical Chemistry Institute.  All rights reserved.

          Cite this program [NBO 7.0.5 (4-Jun-2019)] as:

          NBO 7.0.  E. D. Glendening, J. K. Badenhoop, A. E. Reed,
          J. E. Carpenter, J. A. Bohmann, C. M. Morales, P. Karafiloglou,
          C. R. Landis, and F. Weinhold, Theoretical Chemistry Institute,
          University of Wisconsin, Madison, WI (2018)

       /AONBO  / : Checkpoint the AO to NBO transformation
                   NBOs sorted by occupancy
       /BNDIDX / : Print bond indices based on the NAO density matrix

 Filename set to /home/rpaton/opt/xtb/Gau-1518006

 Job title:  energy: -32.024707278763 gnorm: 0.000396726366 xtb: 6.7.0 (08769fc)


 NATURAL POPULATIONS:  Natural atomic orbital occupancies

  NAO Atom No lang   Type(AO)    Occupancy      Energy
 -------------------------------------------------------
   1   Br  1  s      Cor( 3s)     2.00000     -19.74483
   2   Br  1  s      Cor( 1s)     2.00000    -451.82379
   3   Br  1  s      Cor( 2s)     1.99999     -80.02498
   4   Br  1  s      Val( 4s)     1.87163      -0.76193
   5   Br  1  s      Ryd( 5s)     0.00285       0.85639
   6   Br  1  px     Cor( 3p)     2.00000      -7.16203
   7   Br  1  px     Cor( 2p)     1.99999     -55.66514
   8   Br  1  px     Val( 4p)     1.16718      -0.23166
   9   Br  1  px     Ryd( 5p)     0.00337       0.74461
  10   Br  1  py     Cor( 3p)     2.00000      -7.14895
  11   Br  1  py     Cor( 2p)     1.99999     -55.66189
  12   Br  1  py     Val( 4p)     1.93501      -0.34695
  13   Br  1  py     Ryd( 5p)     0.00141       0.77235
  14   Br  1  pz     Cor( 3p)     2.00000      -7.14831
  15   Br  1  pz     Cor( 2p)     2.00000     -55.66168
  16   Br  1  pz     Val( 4p)     1.94628      -0.34924
  17   Br  1  pz     Ryd( 5p)     0.00074       0.73758
  18   Br  1  dxy    Cor( 3d)     1.99964      -2.76402
  19   Br  1  dxy    Ryd( 4d)     0.00153       0.94131
  20   Br  1  dxz    Cor( 3d)     1.99988      -2.76355
  21   Br  1  dxz    Ryd( 4d)     0.00202       0.72532
  22   Br  1  dyz    Cor( 3d)     1.99999      -2.75330
  23   Br  1  dyz    Ryd( 4d)     0.00017       0.65996
  24   Br  1  dx2y2  Cor( 3d)     1.99948      -2.76416
  25   Br  1  dx2y2  Ryd( 4d)     0.00402       0.99104
  26   Br  1  dz2    Cor( 3d)     1.99980      -2.75662
  27   Br  1  dz2    Ryd( 4d)     0.00155       0.77108

  28    C  2  s      Cor( 1s)     1.99988     -10.28634
  29    C  2  s      Val( 2s)     0.92891      -0.12367
  30    C  2  s      Ryd( 3s)     0.00052       0.72077
  31    C  2  px     Val( 2p)     1.00004      -0.11259
  32    C  2  px     Ryd( 3p)     0.00680       1.35079
  33    C  2  py     Val( 2p)     1.10955      -0.05295
  34    C  2  py     Ryd( 3p)     0.00767       1.12294
  35    C  2  pz     Val( 2p)     1.06304      -0.14724
  36    C  2  pz     Ryd( 3p)     0.00076       0.95574

  37    C  3  s      Cor( 1s)     1.99986     -10.23245
  38    C  3  s      Val( 2s)     0.93738      -0.06087
  39    C  3  s      Ryd( 3s)     0.00087       0.73737
  40    C  3  px     Val( 2p)     1.14553      -0.03733
  41    C  3  px     Ryd( 3p)     0.00649       1.18165
  42    C  3  py     Val( 2p)     1.14590      -0.04760
  43    C  3  py     Ryd( 3p)     0.00526       1.20820
  44    C  3  pz     Val( 2p)     1.04055      -0.11719
  45    C  3  pz     Ryd( 3p)     0.00064       0.94078

  46    C  4  s      Cor( 1s)     1.99985     -10.23804
  47    C  4  s      Val( 2s)     0.93131      -0.05559
  48    C  4  s      Ryd( 3s)     0.00076       0.74486
  49    C  4  px     Val( 2p)     1.08246      -0.01155
  50    C  4  px     Ryd( 3p)     0.00502       1.08066
  51    C  4  py     Val( 2p)     1.19617      -0.06124
  52    C  4  py     Ryd( 3p)     0.00543       1.36166
  53    C  4  pz     Val( 2p)     0.99407      -0.11341
  54    C  4  pz     Ryd( 3p)     0.00026       0.94445

  55    C  5  s      Cor( 1s)     1.99990     -10.24297
  56    C  5  s      Val( 2s)     0.85113      -0.03234
  57    C  5  s      Ryd( 3s)     0.00108       0.73085
  58    C  5  px     Val( 2p)     1.08902      -0.03734
  59    C  5  px     Ryd( 3p)     0.00390       1.54847
  60    C  5  py     Val( 2p)     1.10314      -0.03286
  61    C  5  py     Ryd( 3p)     0.00425       1.31865
  62    C  5  pz     Val( 2p)     1.06211      -0.11962
  63    C  5  pz     Ryd( 3p)     0.00141       1.02396

  64    C  6  s      Cor( 1s)     1.99986     -10.29964
  65    C  6  s      Val( 2s)     0.80963      -0.03730
  66    C  6  s      Ryd( 3s)     0.00110       0.78472
  67    C  6  px     Val( 2p)     0.95938      -0.01450
  68    C  6  px     Ryd( 3p)     0.00453       1.35282
  69    C  6  py     Val( 2p)     0.90807       0.01756
  70    C  6  py     Ryd( 3p)     0.00980       1.28911
  71    C  6  pz     Val( 2p)     0.98754      -0.12576
  72    C  6  pz     Ryd( 3p)     0.00089       0.97258

  73    C  7  s      Cor( 1s)     1.99985     -10.23369
  74    C  7  s      Val( 2s)     0.94065      -0.06556
  75    C  7  s      Ryd( 3s)     0.00118       0.71739
  76    C  7  px     Val( 2p)     1.07434      -0.02579
  77    C  7  px     Ryd( 3p)     0.00621       1.02879
  78    C  7  py     Val( 2p)     1.21941      -0.07299
  79    C  7  py     Ryd( 3p)     0.00518       1.37513
  80    C  7  pz     Val( 2p)     1.05090      -0.12162
  81    C  7  pz     Ryd( 3p)     0.00070       0.94430

  82    O  8  s      Cor( 1s)     1.99985     -19.18280
  83    O  8  s      Val( 2s)     1.57875      -0.75103
  84    O  8  s      Ryd( 3s)     0.00079       1.89194
  85    O  8  px     Val( 2p)     1.39639      -0.31071
  86    O  8  px     Ryd( 3p)     0.00059       2.17644
  87    O  8  py     Val( 2p)     1.67373      -0.36521
  88    O  8  py     Ryd( 3p)     0.00151       1.88924
  89    O  8  pz     Val( 2p)     1.82015      -0.36625
  90    O  8  pz     Ryd( 3p)     0.00101       1.72699
  91    O  8  dxy    Ryd( 3d)     0.00407       2.26198
  92    O  8  dxz    Ryd( 3d)     0.00057       1.97022
  93    O  8  dyz    Ryd( 3d)     0.00222       1.89621
  94    O  8  dx2y2  Ryd( 3d)     0.00248       2.22849
  95    O  8  dz2    Ryd( 3d)     0.00251       2.09006

  96    C  9  s      Cor( 1s)     1.99977     -10.28859
  97    C  9  s      Val( 2s)     1.02892      -0.19473
  98    C  9  s      Ryd( 3s)     0.00165       1.09952
  99    C  9  px     Val( 2p)     0.76678      -0.03949
 100    C  9  px     Ryd( 3p)     0.00355       0.96906
 101    C  9  py     Val( 2p)     1.14255      -0.10262
 102    C  9  py     Ryd( 3p)     0.00381       1.04321
 103    C  9  pz     Val( 2p)     1.19569      -0.11675
 104    C  9  pz     Ryd( 3p)     0.00136       1.01730

 105    C 10  s      Cor( 1s)     1.99977     -10.23863
 106    C 10  s      Val( 2s)     1.03677      -0.17820
 107    C 10  s      Ryd( 3s)     0.00072       1.19512
 108    C 10  px     Val( 2p)     1.21851      -0.11639
 109    C 10  px     Ryd( 3p)     0.00225       1.10343
 110    C 10  py     Val( 2p)     1.05733      -0.08316
 111    C 10  py     Ryd( 3p)     0.00144       0.95496
 112    C 10  pz     Val( 2p)     1.21528      -0.11517
 113    C 10  pz     Ryd( 3p)     0.00112       1.02840

 114    C 11  s      Cor( 1s)     1.99975     -10.24105
 115    C 11  s      Val( 2s)     1.01859      -0.15375
 116    C 11  s      Ryd( 3s)     0.00094       1.23075
 117    C 11  px     Val( 2p)     1.05720      -0.07051
 118    C 11  px     Ryd( 3p)     0.00209       0.95475
 119    C 11  py     Val( 2p)     1.17225      -0.10267
 120    C 11  py     Ryd( 3p)     0.00314       1.05786
 121    C 11  pz     Val( 2p)     1.24684      -0.11754
 122    C 11  pz     Ryd( 3p)     0.00151       1.09978

 123    H 12  s      Val( 1s)     0.73593       0.15708
 124    H 12  s      Ryd( 2s)     0.00116       0.61893

 125    H 13  s      Val( 1s)     0.74898       0.14238
 126    H 13  s      Ryd( 2s)     0.00085       0.62653

 127    H 14  s      Val( 1s)     0.72565       0.15917
 128    H 14  s      Ryd( 2s)     0.00188       0.63014

 129    H 15  s      Val( 1s)     0.75183       0.11980
 130    H 15  s      Ryd( 2s)     0.00104       0.59117

 131    H 16  s      Val( 1s)     0.77365       0.09884
 132    H 16  s      Ryd( 2s)     0.00207       0.62049

 133    H 17  s      Val( 1s)     0.73554       0.12767
 134    H 17  s      Ryd( 2s)     0.00233       0.63232

 135    H 18  s      Val( 1s)     0.73627       0.12448
 136    H 18  s      Ryd( 2s)     0.00131       0.61232

 137    H 19  s      Val( 1s)     0.73603       0.12215
 138    H 19  s      Ryd( 2s)     0.00147       0.62948

 139    H 20  s      Val( 1s)     0.73187       0.12900
 140    H 20  s      Ryd( 2s)     0.00129       0.62816


 Summary of Natural Population Analysis:

                                     Natural Population
             Natural    ---------------------------------------------
  Atom No    Charge        Core      Valence    Rydberg      Total
 --------------------------------------------------------------------
   Br  1    0.06347     27.99876     6.92010    0.01767    34.93653
    C  2   -0.11717      1.99988     4.10154    0.01575     6.11717
    C  3   -0.28247      1.99986     4.26936    0.01325     6.28247
    C  4   -0.21534      1.99985     4.20401    0.01148     6.21534
    C  5   -0.11592      1.99990     4.10539    0.01063     6.11592
    C  6    0.31920      1.99986     3.66462    0.01632     5.68080
    C  7   -0.29841      1.99985     4.28529    0.01327     6.29841
    O  8   -0.48463      1.99985     6.46902    0.01576     8.48463
    C  9   -0.14409      1.99977     4.13394    0.01038     6.14409
    C 10   -0.53318      1.99977     4.52788    0.00553     6.53318
    C 11   -0.50231      1.99975     4.49488    0.00768     6.50231
    H 12    0.26290      0.00000     0.73593    0.00116     0.73710
    H 13    0.25017      0.00000     0.74898    0.00085     0.74983
    H 14    0.27247      0.00000     0.72565    0.00188     0.72753
    H 15    0.24713      0.00000     0.75183    0.00104     0.75287
    H 16    0.22428      0.00000     0.77365    0.00207     0.77572
    H 17    0.26214      0.00000     0.73554    0.00233     0.73786
    H 18    0.26242      0.00000     0.73627    0.00131     0.73758
    H 19    0.26250      0.00000     0.73603    0.00147     0.73750
    H 20    0.26684      0.00000     0.73187    0.00129     0.73316
 ====================================================================
 * Total *  0.00000     47.99710    57.85179    0.15111   106.00000

                                 Natural Population
 ---------------------------------------------------------
   Core                      47.99710 ( 99.9940% of   48)
   Valence                   57.85179 ( 99.7445% of   58)
   Natural Minimal Basis    105.84889 ( 99.8574% of  106)
   Natural Rydberg Basis      0.15111 (  0.1426% of  106)
 ---------------------------------------------------------

    Atom No         Natural Electron Configuration
 ----------------------------------------------------------------------------
     Br  1      [core]4s( 1.87)4p( 5.05)4d( 0.01)5p( 0.01)
      C  2      [core]2s( 0.93)2p( 3.17)3p( 0.02)
      C  3      [core]2s( 0.94)2p( 3.33)3p( 0.01)
      C  4      [core]2s( 0.93)2p( 3.27)3p( 0.01)
      C  5      [core]2s( 0.85)2p( 3.25)3p( 0.01)
      C  6      [core]2s( 0.81)2p( 2.85)3p( 0.02)
      C  7      [core]2s( 0.94)2p( 3.34)3p( 0.01)
      O  8      [core]2s( 1.58)2p( 4.89)3d( 0.01)
      C  9      [core]2s( 1.03)2p( 3.11)3p( 0.01)
      C 10      [core]2s( 1.04)2p( 3.49)
      C 11      [core]2s( 1.02)2p( 3.48)3p( 0.01)
      H 12            1s( 0.74)
      H 13            1s( 0.75)
      H 14            1s( 0.73)
      H 15            1s( 0.75)
      H 16            1s( 0.77)
      H 17            1s( 0.74)
      H 18            1s( 0.74)
      H 19            1s( 0.74)
      H 20            1s( 0.73)


 Wiberg bond index matrix in the NAO basis:

     Atom    1       2       3       4       5       6       7       8       9
     ---- ------  ------  ------  ------  ------  ------  ------  ------  ------
   1. Br  0.0000  1.0290  0.0331  0.0123  0.0113  0.0117  0.0366  0.0012  0.0006
   2.  C  1.0290  0.0000  1.3852  0.0148  0.0954  0.0147  1.4303  0.0066  0.0006
   3.  C  0.0331  1.3852  0.0000  1.4342  0.0144  0.0914  0.0190  0.0252  0.0002
   4.  C  0.0123  0.0148  1.4342  0.0000  1.3970  0.0165  0.1052  0.0081  0.0002
   5.  C  0.0113  0.0954  0.0144  1.3970  0.0000  1.3389  0.0167  0.0608  0.0030
   6.  C  0.0117  0.0147  0.0914  0.0165  1.3389  0.0000  1.3467  1.0298  0.0064
   7.  C  0.0366  1.4303  0.0190  0.1052  0.0167  1.3467  0.0000  0.0498  0.0067
   8.  O  0.0012  0.0066  0.0252  0.0081  0.0608  1.0298  0.0498  0.0000  0.8991
   9.  C  0.0006  0.0006  0.0002  0.0002  0.0030  0.0064  0.0067  0.8991  0.0000
  10.  C  0.0001  0.0005  0.0009  0.0052  0.0074  0.0039  0.0011  0.0193  1.0050
  11.  C  0.0004  0.0010  0.0059  0.0134  0.9993  0.0098  0.0056  0.0063  0.0072
  12.  H  0.0049  0.0045  0.9027  0.0053  0.0060  0.0002  0.0058  0.0002  0.0000
  13.  H  0.0012  0.0061  0.0048  0.9089  0.0044  0.0064  0.0001  0.0011  0.0000
  14.  H  0.0054  0.0058  0.0059  0.0003  0.0059  0.0044  0.8949  0.0045  0.0002
  15.  H  0.0001  0.0002  0.0000  0.0002  0.0001  0.0052  0.0001  0.0076  0.9148
  16.  H  0.0000  0.0002  0.0013  0.0000  0.0023  0.0017  0.0017  0.0182  0.9133
  17.  H  0.0000  0.0001  0.0001  0.0001  0.0005  0.0007  0.0002  0.0026  0.0029
  18.  H  0.0000  0.0002  0.0002  0.0002  0.0065  0.0005  0.0004  0.0099  0.0037
  19.  H  0.0005  0.0036  0.0001  0.0072  0.0021  0.0076  0.0001  0.0010  0.0008
  20.  H  0.0002  0.0014  0.0001  0.0031  0.0023  0.0070  0.0001  0.0004  0.0074

     Atom   10      11      12      13      14      15      16      17      18
     ---- ------  ------  ------  ------  ------  ------  ------  ------  ------
   1. Br  0.0001  0.0004  0.0049  0.0012  0.0054  0.0001  0.0000  0.0000  0.0000
   2.  C  0.0005  0.0010  0.0045  0.0061  0.0058  0.0002  0.0002  0.0001  0.0002
   3.  C  0.0009  0.0059  0.9027  0.0048  0.0059  0.0000  0.0013  0.0001  0.0002
   4.  C  0.0052  0.0134  0.0053  0.9089  0.0003  0.0002  0.0000  0.0001  0.0002
   5.  C  0.0074  0.9993  0.0060  0.0044  0.0059  0.0001  0.0023  0.0005  0.0065
   6.  C  0.0039  0.0098  0.0002  0.0064  0.0044  0.0052  0.0017  0.0007  0.0005
   7.  C  0.0011  0.0056  0.0058  0.0001  0.8949  0.0001  0.0017  0.0002  0.0004
   8.  O  0.0193  0.0063  0.0002  0.0011  0.0045  0.0076  0.0182  0.0026  0.0099
   9.  C  1.0050  0.0072  0.0000  0.0000  0.0002  0.9148  0.9133  0.0029  0.0037
  10.  C  0.0000  1.0018  0.0001  0.0002  0.0001  0.0021  0.0023  0.9041  0.9049
  11.  C  1.0018  0.0000  0.0002  0.0026  0.0004  0.0072  0.0016  0.0028  0.0025
  12.  H  0.0001  0.0002  0.0000  0.0023  0.0003  0.0000  0.0000  0.0000  0.0000
  13.  H  0.0002  0.0026  0.0023  0.0000  0.0002  0.0000  0.0000  0.0000  0.0001
  14.  H  0.0001  0.0004  0.0003  0.0002  0.0000  0.0001  0.0000  0.0000  0.0000
  15.  H  0.0021  0.0072  0.0000  0.0000  0.0001  0.0000  0.0005  0.0010  0.0008
  16.  H  0.0023  0.0016  0.0000  0.0000  0.0000  0.0005  0.0000  0.0092  0.0003
  17.  H  0.9041  0.0028  0.0000  0.0000  0.0000  0.0010  0.0092  0.0000  0.0009
  18.  H  0.9049  0.0025  0.0000  0.0001  0.0000  0.0008  0.0003  0.0009  0.0000
  19.  H  0.0029  0.8967  0.0000  0.0000  0.0000  0.0000  0.0002  0.0082  0.0013
  20.  H  0.0023  0.9026  0.0000  0.0004  0.0002  0.0005  0.0001  0.0012  0.0006

     Atom   19      20
     ---- ------  ------
   1. Br  0.0005  0.0002
   2.  C  0.0036  0.0014
   3.  C  0.0001  0.0001
   4.  C  0.0072  0.0031
   5.  C  0.0021  0.0023
   6.  C  0.0076  0.0070
   7.  C  0.0001  0.0001
   8.  O  0.0010  0.0004
   9.  C  0.0008  0.0074
  10.  C  0.0029  0.0023
  11.  C  0.8967  0.9026
  12.  H  0.0000  0.0000
  13.  H  0.0000  0.0004
  14.  H  0.0000  0.0002
  15.  H  0.0000  0.0005
  16.  H  0.0002  0.0001
  17.  H  0.0082  0.0012
  18.  H  0.0013  0.0006
  19.  H  0.0000  0.0008
  20.  H  0.0008  0.0000


 Wiberg bond index, Totals by atom:

     Atom    1
     ---- ------
   1. Br  1.1485
   2.  C  4.0001
   3.  C  3.9246
   4.  C  3.9321
   5.  C  3.9743
   6.  C  3.9035
   7.  C  3.9211
   8.  O  2.1517
   9.  C  3.7723
  10.  C  3.8643
  11.  C  3.8671
  12.  H  0.9326
  13.  H  0.9387
  14.  H  0.9285
  15.  H  0.9405
  16.  H  0.9529
  17.  H  0.9347
  18.  H  0.9331
  19.  H  0.9333
  20.  H  0.9307


 NBI: Natural Binding Index (NCU strength parameters)

     Atom    1       2       3       4       5       6       7       8       9
     ---- ------  ------  ------  ------  ------  ------  ------  ------  ------
   1. Br  0.0000  1.0144  0.1819  0.1111  0.1061  0.1083  0.1912  0.0347  0.0245
   2.  C  1.0144  0.0000  1.1769  0.1217  0.3088  0.1213  1.1959  0.0815  0.0254
   3.  C  0.1819  1.1769  0.0000  1.1976  0.1201  0.3023  0.1377  0.1589  0.0127
   4.  C  0.1111  0.1217  1.1976  0.0000  1.1819  0.1283  0.3243  0.0901  0.0141
   5.  C  0.1061  0.3088  0.1201  1.1819  0.0000  1.1571  0.1294  0.2467  0.0551
   6.  C  0.1083  0.1213  0.3023  0.1283  1.1571  0.0000  1.1605  1.0148  0.0799
   7.  C  0.1912  1.1959  0.1377  0.3243  0.1294  1.1605  0.0000  0.2231  0.0821
   8.  O  0.0347  0.0815  0.1589  0.0901  0.2467  1.0148  0.2231  0.0000  0.9482
   9.  C  0.0245  0.0254  0.0127  0.0141  0.0551  0.0799  0.0821  0.9482  0.0000
  10.  C  0.0088  0.0213  0.0307  0.0718  0.0862  0.0623  0.0332  0.1389  1.0025
  11.  C  0.0195  0.0312  0.0768  0.1157  0.9996  0.0992  0.0749  0.0791  0.0850
  12.  H  0.0698  0.0674  0.9501  0.0727  0.0773  0.0148  0.0763  0.0143  0.0041
  13.  H  0.0342  0.0780  0.0690  0.9534  0.0664  0.0797  0.0111  0.0329  0.0067
  14.  H  0.0734  0.0760  0.0768  0.0166  0.0766  0.0667  0.9460  0.0667  0.0140
  15.  H  0.0093  0.0132  0.0044  0.0144  0.0104  0.0723  0.0108  0.0871  0.9565
  16.  H  0.0053  0.0123  0.0356  0.0066  0.0479  0.0408  0.0415  0.1349  0.9557
  17.  H  0.0050  0.0111  0.0095  0.0091  0.0231  0.0262  0.0146  0.0507  0.0540
  18.  H  0.0067  0.0123  0.0130  0.0144  0.0806  0.0229  0.0190  0.0997  0.0608
  19.  H  0.0222  0.0602  0.0095  0.0849  0.0456  0.0874  0.0113  0.0323  0.0285
  20.  H  0.0138  0.0376  0.0106  0.0553  0.0484  0.0834  0.0112  0.0204  0.0862

     Atom   10      11      12      13      14      15      16      17      18
     ---- ------  ------  ------  ------  ------  ------  ------  ------  ------
   1. Br  0.0088  0.0195  0.0698  0.0342  0.0734  0.0093  0.0053  0.0050  0.0067
   2.  C  0.0213  0.0312  0.0674  0.0780  0.0760  0.0132  0.0123  0.0111  0.0123
   3.  C  0.0307  0.0768  0.9501  0.0690  0.0768  0.0044  0.0356  0.0095  0.0130
   4.  C  0.0718  0.1157  0.0727  0.9534  0.0166  0.0144  0.0066  0.0091  0.0144
   5.  C  0.0862  0.9996  0.0773  0.0664  0.0766  0.0104  0.0479  0.0231  0.0806
   6.  C  0.0623  0.0992  0.0148  0.0797  0.0667  0.0723  0.0408  0.0262  0.0229
   7.  C  0.0332  0.0749  0.0763  0.0111  0.9460  0.0108  0.0415  0.0146  0.0190
   8.  O  0.1389  0.0791  0.0143  0.0329  0.0667  0.0871  0.1349  0.0507  0.0997
   9.  C  1.0025  0.0850  0.0041  0.0067  0.0140  0.9565  0.9557  0.0540  0.0608
  10.  C  0.0000  1.0009  0.0116  0.0123  0.0090  0.0455  0.0483  0.9509  0.9513
  11.  C  1.0009  0.0000  0.0130  0.0510  0.0197  0.0848  0.0397  0.0530  0.0497
  12.  H  0.0116  0.0130  0.0000  0.0482  0.0175  0.0012  0.0005  0.0010  0.0066
  13.  H  0.0123  0.0510  0.0482  0.0000  0.0135  0.0024  0.0007  0.0030  0.0075
  14.  H  0.0090  0.0197  0.0175  0.0135  0.0000  0.0092  0.0013  0.0008  0.0024
  15.  H  0.0455  0.0848  0.0012  0.0024  0.0092  0.0000  0.0232  0.0314  0.0284
  16.  H  0.0483  0.0397  0.0005  0.0007  0.0013  0.0232  0.0000  0.0960  0.0185
  17.  H  0.9509  0.0530  0.0010  0.0030  0.0008  0.0314  0.0960  0.0000  0.0305
  18.  H  0.9513  0.0497  0.0066  0.0075  0.0024  0.0284  0.0185  0.0305  0.0000
  19.  H  0.0539  0.9470  0.0018  0.0060  0.0048  0.0034  0.0129  0.0906  0.0359
  20.  H  0.0485  0.9500  0.0053  0.0191  0.0144  0.0218  0.0100  0.0344  0.0249

     Atom   19      20
     ---- ------  ------
   1. Br  0.0222  0.0138
   2.  C  0.0602  0.0376
   3.  C  0.0095  0.0106
   4.  C  0.0849  0.0553
   5.  C  0.0456  0.0484
   6.  C  0.0874  0.0834
   7.  C  0.0113  0.0112
   8.  O  0.0323  0.0204
   9.  C  0.0285  0.0862
  10.  C  0.0539  0.0485
  11.  C  0.9470  0.9500
  12.  H  0.0018  0.0053
  13.  H  0.0060  0.0191
  14.  H  0.0048  0.0144
  15.  H  0.0034  0.0218
  16.  H  0.0129  0.0100
  17.  H  0.0906  0.0344
  18.  H  0.0359  0.0249
  19.  H  0.0000  0.0275
  20.  H  0.0275  0.0000


 NATURAL BOND ORBITAL ANALYSIS:

                            Occupancies       Lewis Structure    Low   High
         Max    Occ     -------------------  -----------------   occ   occ
  Cycle  Ctr   Thresh    Lewis   non-Lewis     CR  BD  nC  LP    (L)   (NL)
 ============================================================================
    1     2     1.90   102.63926   3.36074     24  22   0   7     3      3
    2     2     1.86   102.63926   3.36074     24  22   0   7     3      3
    3     2     1.83   102.49939   3.50061     24  21   0   8     3      3
    4     2     1.72   103.15000   2.85000     24  22   0   7     2      3
    5     2     1.69   103.80193   2.19807     24  23   0   6     1      3
    6     2     1.68   103.80193   2.19807     24  23   0   6     1      3
    7     2     1.63   104.37973   1.62027     24  24   0   5     0      3
 ----------------------------------------------------------------------------

 Structure accepted: No low occupancy Lewis orbitals

 -------------------------------------------------------
   Core                     47.99710 ( 99.994% of  48)
   Valence Lewis            56.38263 ( 97.211% of  58)
  ==================      =============================
   Total Lewis             104.37973 ( 98.471% of 106)
  -----------------------------------------------------
   Valence non-Lewis         1.51897 (  1.433% of 106)
   Rydberg non-Lewis         0.10130 (  0.096% of 106)
  ==================      =============================
   Total non-Lewis           1.62027 (  1.529% of 106)
 -------------------------------------------------------


     (Occupancy)   Bond orbital / Coefficients / Hybrids
 ------------------ Lewis ------------------------------------------------------
   1. (2.00000) CR ( 1)Br  1            s(100.00%)
                                         1.0000  0.0000  0.0000  0.0000  0.0000
                                         0.0000  0.0000  0.0000  0.0000  0.0000
                                         0.0000  0.0000  0.0000  0.0000  0.0000
                                         0.0000  0.0000  0.0000  0.0000  0.0000
                                         0.0000  0.0000  0.0000  0.0000  0.0000
                                         0.0000  0.0000
   2. (2.00000) CR ( 2)Br  1            s(100.00%)
                                         0.0000  1.0000  0.0000  0.0000  0.0000
                                         0.0000  0.0000  0.0000  0.0000  0.0000
                                         0.0000  0.0000  0.0000  0.0000  0.0000
                                         0.0000  0.0000  0.0000  0.0000  0.0000
                                         0.0000  0.0000  0.0000  0.0000  0.0000
                                         0.0000  0.0000
   3. (1.99999) CR ( 3)Br  1            s(100.00%)
                                         0.0000  0.0000  1.0000  0.0000  0.0000
                                         0.0000  0.0000  0.0000  0.0000  0.0000
                                         0.0000  0.0000  0.0000  0.0000  0.0000
                                         0.0000  0.0000  0.0000  0.0000  0.0000
                                         0.0000  0.0000  0.0000  0.0000  0.0000
                                         0.0000  0.0000
   4. (2.00000) CR ( 4)Br  1            s(  0.00%)p 1.00(100.00%)
                                         0.0000  0.0000  0.0000  0.0000  0.0000
                                         1.0000  0.0000  0.0000  0.0000  0.0000
                                         0.0000  0.0000  0.0000  0.0000  0.0000
                                         0.0000  0.0000  0.0000  0.0000  0.0000
                                         0.0000  0.0000  0.0000  0.0000  0.0000
                                         0.0000  0.0000
   5. (1.99999) CR ( 5)Br  1            s(  0.00%)p 1.00(100.00%)
                                         0.0000  0.0000  0.0000  0.0000  0.0000
                                         0.0000  1.0000  0.0000  0.0000  0.0000
                                         0.0000  0.0000  0.0000  0.0000  0.0000
                                         0.0000  0.0000  0.0000  0.0000  0.0000
                                         0.0000  0.0000  0.0000  0.0000  0.0000
                                         0.0000  0.0000
   6. (2.00000) CR ( 6)Br  1            s(  0.00%)p 1.00(100.00%)
                                         0.0000  0.0000  0.0000  0.0000  0.0000
                                         0.0000  0.0000  0.0000  0.0000  1.0000
                                         0.0000  0.0000  0.0000  0.0000  0.0000
                                         0.0000  0.0000  0.0000  0.0000  0.0000
                                         0.0000  0.0000  0.0000  0.0000  0.0000
                                         0.0000  0.0000
   7. (1.99999) CR ( 7)Br  1            s(  0.00%)p 1.00(100.00%)
                                         0.0000  0.0000  0.0000  0.0000  0.0000
                                         0.0000  0.0000  0.0000  0.0000  0.0000
                                         1.0000  0.0000  0.0000  0.0000  0.0000
                                         0.0000  0.0000  0.0000  0.0000  0.0000
                                         0.0000  0.0000  0.0000  0.0000  0.0000
                                         0.0000  0.0000
   8. (2.00000) CR ( 8)Br  1            s(  0.00%)p 1.00(100.00%)
                                         0.0000  0.0000  0.0000  0.0000  0.0000
                                         0.0000  0.0000  0.0000  0.0000  0.0000
                                         0.0000  0.0000  0.0000  1.0000  0.0000
                                         0.0000  0.0000  0.0000  0.0000  0.0000
                                         0.0000  0.0000  0.0000  0.0000  0.0000
                                         0.0000  0.0000
   9. (2.00000) CR ( 9)Br  1            s(  0.00%)p 1.00(100.00%)
                                         0.0000  0.0000  0.0000  0.0000  0.0000
                                         0.0000  0.0000  0.0000  0.0000  0.0000
                                         0.0000  0.0000  0.0000  0.0000  1.0000
                                         0.0000  0.0000  0.0000  0.0000  0.0000
                                         0.0000  0.0000  0.0000  0.0000  0.0000
                                         0.0000  0.0000
  10. (1.99964) CR (10)Br  1            s(  0.00%)p 0.00(  0.00%)d 1.00(100.00%)
                                         0.0000  0.0000  0.0000  0.0000  0.0000
                                         0.0000  0.0000  0.0000  0.0000  0.0000
                                         0.0000  0.0000  0.0000  0.0000  0.0000
                                         0.0000  0.0000  1.0000  0.0000  0.0000
                                         0.0000  0.0000  0.0000  0.0000  0.0000
                                         0.0000  0.0000
  11. (1.99988) CR (11)Br  1            s(  0.00%)p 0.00(  0.00%)d 1.00(100.00%)
                                         0.0000  0.0000  0.0000  0.0000  0.0000
                                         0.0000  0.0000  0.0000  0.0000  0.0000
                                         0.0000  0.0000  0.0000  0.0000  0.0000
                                         0.0000  0.0000  0.0000  0.0000  1.0000
                                         0.0000  0.0000  0.0000  0.0000  0.0000
                                         0.0000  0.0000
  12. (1.99999) CR (12)Br  1            s(  0.00%)p 0.00(  0.00%)d 1.00(100.00%)
                                         0.0000  0.0000  0.0000  0.0000  0.0000
                                         0.0000  0.0000  0.0000  0.0000  0.0000
                                         0.0000  0.0000  0.0000  0.0000  0.0000
                                         0.0000  0.0000  0.0000  0.0000  0.0000
                                         0.0000  1.0000  0.0000  0.0000  0.0000
                                         0.0000  0.0000
  13. (1.99948) CR (13)Br  1            s(  0.00%)p 0.00(  0.00%)d 1.00(100.00%)
                                         0.0000  0.0000  0.0000  0.0000  0.0000
                                         0.0000  0.0000  0.0000  0.0000  0.0000
                                         0.0000  0.0000  0.0000  0.0000  0.0000
                                         0.0000  0.0000  0.0000  0.0000  0.0000
                                         0.0000  0.0000  0.0000  1.0000  0.0000
                                         0.0000  0.0000
  14. (1.99980) CR (14)Br  1            s(  0.00%)p 0.00(  0.00%)d 1.00(100.00%)
                                         0.0000  0.0000  0.0000  0.0000  0.0000
                                         0.0000  0.0000  0.0000  0.0000  0.0000
                                         0.0000  0.0000  0.0000  0.0000  0.0000
                                         0.0000  0.0000  0.0000  0.0000  0.0000
                                         0.0000  0.0000  0.0000  0.0000  0.0000
                                         1.0000  0.0000
  15. (1.99988) CR ( 1) C  2            s(100.00%)
                                         1.0000  0.0000  0.0000  0.0000  0.0000
                                         0.0000  0.0000  0.0000  0.0000
  16. (1.99986) CR ( 1) C  3            s(100.00%)
                                         1.0000  0.0000  0.0000  0.0000  0.0000
                                         0.0000  0.0000  0.0000  0.0000
  17. (1.99985) CR ( 1) C  4            s(100.00%)
                                         1.0000  0.0000  0.0000  0.0000  0.0000
                                         0.0000  0.0000  0.0000  0.0000
  18. (1.99990) CR ( 1) C  5            s(100.00%)
                                         1.0000  0.0000  0.0000  0.0000  0.0000
                                         0.0000  0.0000  0.0000  0.0000
  19. (1.99986) CR ( 1) C  6            s(100.00%)
                                         1.0000  0.0000  0.0000  0.0000  0.0000
                                         0.0000  0.0000  0.0000  0.0000
  20. (1.99985) CR ( 1) C  7            s(100.00%)
                                         1.0000  0.0000  0.0000  0.0000  0.0000
                                         0.0000  0.0000  0.0000  0.0000
  21. (1.99985) CR ( 1) O  8            s(100.00%)
                                         1.0000  0.0000  0.0000  0.0000  0.0000
                                         0.0000  0.0000  0.0000  0.0000  0.0000
                                         0.0000  0.0000  0.0000  0.0000
  22. (1.99977) CR ( 1) C  9            s(100.00%)
                                         1.0000  0.0000  0.0000  0.0000  0.0000
                                         0.0000  0.0000  0.0000  0.0000
  23. (1.99977) CR ( 1) C 10            s(100.00%)
                                         1.0000  0.0000  0.0000  0.0000  0.0000
                                         0.0000  0.0000  0.0000  0.0000
  24. (1.99975) CR ( 1) C 11            s(100.00%)
                                         1.0000  0.0000  0.0000  0.0000  0.0000
                                         0.0000  0.0000  0.0000  0.0000
  25. (1.99734) LP ( 1)Br  1            s( 87.39%)p 0.14( 12.60%)d 0.00(  0.00%)
                                         0.0000  0.0000  0.0000  0.9348 -0.0095
                                         0.0000  0.0000 -0.3426 -0.0129  0.0000
                                         0.0000 -0.0916 -0.0030  0.0000  0.0000
                                         0.0095  0.0004  0.0000 -0.0018  0.0000
                                         0.0002  0.0000  0.0000  0.0000 -0.0033
                                         0.0000  0.0009
  26. (1.98290) LP ( 2)Br  1            s(  0.01%)p 1.00( 99.97%)d 0.00(  0.02%)
                                         0.0000  0.0000  0.0000  0.0085 -0.0002
                                         0.0000  0.0000 -0.2372  0.0036  0.0000
                                         0.0000  0.9708 -0.0155  0.0000  0.0000
                                        -0.0260  0.0004  0.0000  0.0124  0.0000
                                        -0.0003  0.0000 -0.0005  0.0000 -0.0065
                                         0.0000  0.0000
  27. (1.94777) LP ( 3)Br  1            s(  0.00%)p 1.00( 99.98%)d 0.00(  0.02%)
                                         0.0000  0.0000  0.0000  0.0006  0.0000
                                         0.0000  0.0000  0.0210 -0.0003  0.0000
                                         0.0000  0.0319 -0.0004  0.0000  0.0000
                                         0.9991 -0.0139  0.0000  0.0006  0.0000
                                         0.0151  0.0000  0.0038  0.0000  0.0002
                                         0.0000 -0.0008
  28. (1.96426) LP ( 1) O  8            s( 39.45%)p 1.53( 60.48%)d 0.00(  0.08%)
                                         0.0000  0.6281 -0.0030 -0.2375  0.0013
                                        -0.7366 -0.0002  0.0763  0.0000 -0.0132
                                         0.0013  0.0056  0.0206  0.0127
  29. (1.83195) LP ( 2) O  8            s(  0.12%)p99.99( 99.77%)d 0.98(  0.12%)
                                         0.0000  0.0342 -0.0025  0.1359 -0.0008
                                         0.0875 -0.0004  0.9856  0.0070  0.0057
                                         0.0052  0.0323 -0.0013 -0.0073
  30. (1.98686) BD ( 1)Br  1- C  2
               ( 49.97%)   0.7069*Br  1 s( 12.79%)p 6.77( 86.60%)d 0.05(  0.60%)
                                         0.0000  0.0000  0.0000  0.3541  0.0508
                                         0.0000  0.0000  0.9030  0.0530  0.0000
                                         0.0000  0.2168  0.0128  0.0000  0.0000
                                        -0.0261 -0.0015  0.0000  0.0308  0.0000
                                        -0.0037  0.0000 -0.0008  0.0000  0.0601
                                         0.0000 -0.0382
               ( 50.03%)   0.7073* C  2 s( 21.97%)p 3.55( 78.03%)
                                         0.0000  0.4687 -0.0093 -0.8566  0.0475
                                        -0.2086  0.0119  0.0235 -0.0013
  31. (1.97959) BD ( 1) C  2- C  3
               ( 51.04%)   0.7144* C  2 s( 39.08%)p 1.56( 60.92%)
                                         0.0000  0.6251  0.0042  0.1550 -0.0100
                                         0.7638  0.0290 -0.0292 -0.0008
               ( 48.96%)   0.6997* C  3 s( 34.58%)p 1.89( 65.42%)
                                         0.0000  0.5879  0.0134 -0.2547 -0.0380
                                        -0.7661 -0.0115  0.0276  0.0010
  32. (1.97721) BD ( 1) C  2- C  7
               ( 50.74%)   0.7123* C  2 s( 38.92%)p 1.57( 61.08%)
                                         0.0000  0.6238  0.0048  0.4896  0.0047
                                        -0.6083 -0.0306  0.0130  0.0008
               ( 49.26%)   0.7019* C  7 s( 35.78%)p 1.79( 64.22%)
                                         0.0000  0.5980  0.0140 -0.5637 -0.0378
                                         0.5683 -0.0084  0.0008  0.0010
  33. (1.72360) BD ( 2) C  2- C  7
               ( 50.46%)   0.7104* C  2 s(  0.00%)p 1.00(100.00%)
                                         0.0000  0.0009  0.0001 -0.0184 -0.0001
                                        -0.0352 -0.0002 -0.9992 -0.0041
               ( 49.54%)   0.7038* C  7 s(  0.00%)p 1.00(100.00%)
                                         0.0000  0.0038 -0.0001 -0.0242  0.0004
                                        -0.0266 -0.0004 -0.9993  0.0066
  34. (1.97247) BD ( 1) C  3- C  4
               ( 50.01%)   0.7072* C  3 s( 35.51%)p 1.82( 64.49%)
                                         0.0000  0.5959  0.0065  0.7773  0.0143
                                         0.1971  0.0349 -0.0188 -0.0011
               ( 49.99%)   0.7071* C  4 s( 35.75%)p 1.80( 64.25%)
                                         0.0000  0.5979  0.0081 -0.7847 -0.0246
                                        -0.1598  0.0234  0.0072 -0.0003
  35. (1.69265) BD ( 2) C  3- C  4
               ( 51.73%)   0.7192* C  3 s(  0.00%)p 1.00(100.00%)
                                         0.0000  0.0009  0.0003  0.0155 -0.0001
                                         0.0315  0.0000  0.9993 -0.0133
               ( 48.27%)   0.6948* C  4 s(  0.00%)p 1.00(100.00%)
                                         0.0000  0.0031  0.0006  0.0065  0.0004
                                         0.0244 -0.0003  0.9996 -0.0096
  36. (1.98162) BD ( 1) C  3- H 12
               ( 63.23%)   0.7952* C  3 s( 29.94%)p 2.34( 70.06%)
                                         0.0000  0.5470 -0.0142 -0.5735  0.0177
                                         0.6091 -0.0144 -0.0108  0.0001
               ( 36.77%)   0.6064* H 12 s(100.00%)
                                         1.0000  0.0026
  37. (1.97066) BD ( 1) C  4- C  5
               ( 48.88%)   0.6991* C  4 s( 35.47%)p 1.82( 64.53%)
                                         0.0000  0.5955  0.0092  0.5684  0.0294
                                        -0.5668  0.0013  0.0083 -0.0005
               ( 51.12%)   0.7150* C  5 s( 35.55%)p 1.81( 64.45%)
                                         0.0000  0.5962  0.0069 -0.5536  0.0037
                                         0.5810  0.0186 -0.0096 -0.0003
  38. (1.98130) BD ( 1) C  4- H 13
               ( 62.57%)   0.7910* C  4 s( 28.80%)p 2.47( 71.20%)
                                         0.0000  0.5365 -0.0126  0.2439 -0.0109
                                         0.8071 -0.0194 -0.0229  0.0002
               ( 37.43%)   0.6118* H 13 s(100.00%)
                                         1.0000  0.0020
  39. (1.97420) BD ( 1) C  5- C  6
               ( 50.53%)   0.7109* C  5 s( 33.08%)p 2.02( 66.92%)
                                         0.0000  0.5751  0.0040 -0.2106  0.0067
                                        -0.7903 -0.0117  0.0127 -0.0010
               ( 49.47%)   0.7033* C  6 s( 37.74%)p 1.65( 62.26%)
                                         0.0000  0.6143 -0.0086  0.2836  0.0019
                                         0.7359 -0.0047 -0.0236  0.0005
  40. (1.63981) BD ( 2) C  5- C  6
               ( 53.03%)   0.7282* C  5 s(  0.00%)p 1.00(100.00%)
                                         0.0000  0.0010 -0.0015  0.0011 -0.0014
                                         0.0165  0.0005  0.9999 -0.0040
               ( 46.97%)   0.6854* C  6 s(  0.00%)p 1.00(100.00%)
                                         0.0000 -0.0004  0.0019  0.0181  0.0020
                                         0.0254 -0.0008  0.9995 -0.0104
  41. (1.97535) BD ( 1) C  5- C 11
               ( 50.71%)   0.7121* C  5 s( 31.37%)p 2.19( 68.63%)
                                         0.0000  0.5600 -0.0096  0.8054 -0.0175
                                         0.1925  0.0108 -0.0046 -0.0017
               ( 49.29%)   0.7021* C 11 s( 26.69%)p 2.75( 73.31%)
                                         0.0000  0.5165  0.0106 -0.8341 -0.0207
                                        -0.1919  0.0074 -0.0097 -0.0016
  42. (1.97030) BD ( 1) C  6- C  7
               ( 50.36%)   0.7096* C  6 s( 36.62%)p 1.73( 63.38%)
                                         0.0000  0.6051  0.0056 -0.7672  0.0156
                                        -0.2089 -0.0292  0.0194 -0.0001
               ( 49.64%)   0.7046* C  7 s( 34.47%)p 1.90( 65.53%)
                                         0.0000  0.5870  0.0098  0.7908  0.0289
                                         0.1680 -0.0212 -0.0213  0.0001
  43. (1.99144) BD ( 1) C  6- O  8
               ( 33.53%)   0.5791* C  6 s( 25.41%)p 2.94( 74.59%)
                                         0.0000  0.5040  0.0080  0.5748  0.0064
                                        -0.6423 -0.0530  0.0061  0.0039
               ( 66.47%)   0.8153* O  8 s( 31.70%)p 2.15( 68.02%)d 0.01(  0.28%)
                                         0.0000  0.5630  0.0029 -0.5142 -0.0036
                                         0.6447 -0.0080 -0.0058  0.0018 -0.0375
                                         0.0010 -0.0039 -0.0234 -0.0292
  44. (1.97818) BD ( 1) C  7- H 14
               ( 63.69%)   0.7980* C  7 s( 29.80%)p 2.36( 70.20%)
                                         0.0000  0.5456 -0.0165 -0.2329  0.0054
                                        -0.8040  0.0220  0.0291 -0.0007
               ( 36.31%)   0.6026* H 14 s(100.00%)
                                         1.0000  0.0033
  45. (1.99126) BD ( 1) O  8- C  9
               ( 67.63%)   0.8224* O  8 s( 28.64%)p 2.48( 71.10%)d 0.01(  0.26%)
                                         0.0000  0.5352  0.0037  0.8107 -0.0039
                                         0.1793 -0.0162 -0.1464  0.0005  0.0336
                                        -0.0138 -0.0072  0.0233 -0.0258
               ( 32.37%)   0.5689* C  9 s( 19.19%)p 4.21( 80.81%)
                                         0.0000  0.4373  0.0253 -0.8736 -0.0370
                                        -0.1468 -0.0385  0.1430  0.0079
  46. (1.98996) BD ( 1) C  9- C 10
               ( 49.34%)   0.7024* C  9 s( 29.27%)p 2.42( 70.73%)
                                         0.0000  0.5410 -0.0045  0.2232  0.0238
                                         0.6911 -0.0048  0.4234  0.0095
               ( 50.66%)   0.7118* C 10 s( 25.41%)p 2.94( 74.59%)
                                         0.0000  0.5040  0.0051 -0.2402  0.0100
                                        -0.7190 -0.0170 -0.4134 -0.0004
  47. (1.98751) BD ( 1) C  9- H 15
               ( 62.55%)   0.7909* C  9 s( 25.87%)p 2.87( 74.13%)
                                         0.0000  0.5085  0.0070  0.4177 -0.0150
                                        -0.7006  0.0092  0.2749 -0.0105
               ( 37.45%)   0.6120* H 15 s(100.00%)
                                         1.0000  0.0015
  48. (1.98982) BD ( 1) C  9- H 16
[...]
    8. CR ( 8)Br  1             2.00000    -7.14831
    9. CR ( 9)Br  1             2.00000   -55.66168
   10. CR (10)Br  1             1.99964    -2.76402
   11. CR (11)Br  1             1.99988    -2.76355
   12. CR (12)Br  1             1.99999    -2.75330
   13. CR (13)Br  1             1.99948    -2.76416  80(g)
   14. CR (14)Br  1             1.99980    -2.75662
   15. CR ( 1) C  2             1.99988   -10.28634
   16. CR ( 1) C  3             1.99986   -10.23245
   17. CR ( 1) C  4             1.99985   -10.23804
   18. CR ( 1) C  5             1.99990   -10.24297
   19. CR ( 1) C  6             1.99986   -10.29964
   20. CR ( 1) C  7             1.99985   -10.23369
   21. CR ( 1) O  8             1.99985   -19.18280  113(g),114(g)
   22. CR ( 1) C  9             1.99977   -10.28859
   23. CR ( 1) C 10             1.99977   -10.23863
   24. CR ( 1) C 11             1.99975   -10.24105
   25. LP ( 1)Br  1             1.99734    -0.75085  88(v)
   26. LP ( 2)Br  1             1.98290    -0.35413  56(v),55(v),87(v)
   27. LP ( 3)Br  1             1.94777    -0.34965  57(v)
   28. LP ( 1) O  8             1.96426    -0.56096  63(v),70(v),103(v),71(v)
                                                     66(v),120(v),121(v),104(v)
   29. LP ( 2) O  8             1.83195    -0.36960  64(v),72(v),70(v),71(v)
                                                     57(r)
   30. BD ( 1)Br  1- C  2       1.98686    -0.61957  66(v),107(v),91(v),58(v)
   31. BD ( 1) C  2- C  3       1.97959    -0.71316  56(g),58(g),60(g),96(v)
                                                     68(v),62(v),107(v),108(v)
                                                     95(v)
   32. BD ( 1) C  2- C  7       1.97721    -0.71799  55(g),67(v),103(v),66(g)
                                                     68(g),60(v),91(v),92(v)
   33. BD ( 2) C  2- C  7       1.72360    -0.32968  64(v),59(v),78(v),93(v)
   34. BD ( 1) C  3- C  4       1.97247    -0.69076  54(v),61(g),55(g),100(v)
                                                     65(v),60(g),87(v),62(g)
                                                     88(v)
   35. BD ( 2) C  3- C  4       1.69265    -0.31214  57(v),64(v),89(v),101(v)
   36. BD ( 1) C  3- H 12       1.98162    -0.57209  61(v),56(v),88(v),95(v)
                                                     58(g),55(g),54(v)
   37. BD ( 1) C  4- C  5       1.97066    -0.68914  67(v),63(g),58(g),65(g)
                                                     92(v),104(v),60(v),62(g)
                                                     128(v),73(v)
   38. BD ( 1) C  4- H 13       1.98130    -0.57386  63(v),55(v),91(v),61(g)
                                                     58(g),100(v),99(v),65(v)
   39. BD ( 1) C  5- C  6       1.97420    -0.70781  66(g),61(g),65(g),108(v)
                                                     62(v),68(v),95(v),96(v)
                                                     128(v),107(v),124(r),111(v)
   40. BD ( 2) C  5- C  6       1.63981    -0.31447  59(v),57(v),76(v),77(v)
                                                     98(v),64(g),110(v),109(v)
   41. BD ( 1) C  5- C 11       1.97535    -0.63217  61(g),95(v),63(g),66(v)
                                                     58(v),75(v),73(g),103(v)
                                                     77(g),124(v),76(g),67(v)
                                                     104(v)
   42. BD ( 1) C  6- C  7       1.97030    -0.70471  63(g),54(v),56(g),99(v)
                                                     65(v),87(v),68(g),69(v)
                                                     88(v),111(v)
   43. BD ( 1) C  6- O  8       1.99144    -0.87961  120(v),56(v),61(v),71(v)
                                                     66(g),63(g)
   44. BD ( 1) C  7- H 14       1.97818    -0.57087  63(v),55(v),67(v),88(v)
                                                     56(g),104(v),66(g),54(v)
   45. BD ( 1) O  8- C  9       1.99126    -0.82202  66(v),103(v),75(v)
   46. BD ( 1) C  9- C 10       1.98996    -0.64510  77(v),73(g),129(v),75(g)
                                                     71(g),104(r),74(g)
   47. BD ( 1) C  9- H 15       1.98751    -0.58568  73(v),67(v),111(v)
   48. BD ( 1) C  9- H 16       1.98982    -0.58466  74(v),112(v)
   49. BD ( 1) C 10- C 11       1.98393    -0.62321  61(v),71(v),65(g),121(v)
                                                     77(g),75(g),70(g),76(g)
                                                     99(v),74(g)
   50. BD ( 1) C 10- H 17       1.98333    -0.56193  72(v),76(v),69(v),120(v)
                                                     128(v)
   51. BD ( 1) C 10- H 18       1.98044    -0.56839  69(v),65(v),130(v),73(g)
   52. BD ( 1) C 11- H 19       1.97613    -0.55875  64(v),74(v),101(v),65(g)
   53. BD ( 1) C 11- H 20       1.98077    -0.56133  64(v),70(v),63(v),65(g)
                                                     73(g)
 ------ non-Lewis ----------------------------------
   54. BD*( 1)Br  1- C  2       0.02596     0.18573
   55. BD*( 1) C  2- C  3       0.02231     0.67342
   56. BD*( 1) C  2- C  7       0.02059     0.68306
   57. BD*( 2) C  2- C  7       0.39005     0.06007
   58. BD*( 1) C  3- C  4       0.01606     0.69609
   59. BD*( 2) C  3- C  4       0.34217     0.07829
   60. BD*( 1) C  3- H 12       0.01162     0.59650
   61. BD*( 1) C  4- C  5       0.02168     0.69041
   62. BD*( 1) C  4- H 13       0.01170     0.58511
   63. BD*( 1) C  5- C  6       0.03321     0.66270
   64. BD*( 2) C  5- C  6       0.40978     0.06747
   65. BD*( 1) C  5- C 11       0.02132     0.51315
   66. BD*( 1) C  6- C  7       0.02309     0.66805
   67. BD*( 1) C  6- O  8       0.02362     0.45782
   68. BD*( 1) C  7- H 14       0.01150     0.59466
   69. BD*( 1) O  8- C  9       0.01838     0.36753
   70. BD*( 1) C  9- C 10       0.02375     0.45165
   71. BD*( 1) C  9- H 15       0.01198     0.54399
   72. BD*( 1) C  9- H 16       0.02328     0.51894
   73. BD*( 1) C 10- C 11       0.01249     0.46128
   74. BD*( 1) C 10- H 17       0.01157     0.53609
   75. BD*( 1) C 10- H 18       0.00955     0.54032
   76. BD*( 1) C 11- H 19       0.01357     0.52938
   77. BD*( 1) C 11- H 20       0.00972     0.54064
   78. RY ( 1)Br  1             0.00199     0.69034
   79. RY ( 2)Br  1             0.00093     0.75421
   80. RY ( 3)Br  1             0.00061     1.11922
   81. RY ( 4)Br  1             0.00026     0.83495
   82. RY ( 5)Br  1             0.00010     0.94362
   83. RY ( 6)Br  1             0.00006     0.65684
   84. RY ( 7)Br  1             0.00003     0.68288
   85. RY ( 8)Br  1             0.00002     0.77507
   86. RY ( 9)Br  1             0.00001     0.72541
   87. RY ( 1) C  2             0.00648     1.09911
   88. RY ( 2) C  2             0.00503     1.37165
   89. RY ( 3) C  2             0.00077     0.95501
   90. RY ( 4) C  2             0.00033     0.71897
   91. RY ( 1) C  3             0.00524     1.34834
   92. RY ( 2) C  3             0.00351     1.03700
   93. RY ( 3) C  3             0.00043     0.94086
   94. RY ( 4) C  3             0.00039     0.73160
   95. RY ( 1) C  4             0.00508     1.38956
   96. RY ( 2) C  4             0.00327     1.04296
   97. RY ( 3) C  4             0.00039     0.74549
   98. RY ( 4) C  4             0.00017     0.94414
   99. RY ( 1) C  5             0.00454     1.38038
  100. RY ( 2) C  5             0.00302     1.41056
  101. RY ( 3) C  5             0.00146     1.02129
  102. RY ( 4) C  5             0.00062     0.80939
  103. RY ( 1) C  6             0.00709     1.28778
  104. RY ( 2) C  6             0.00424     1.33571
  105. RY ( 3) C  6             0.00095     0.81079
  106. RY ( 4) C  6             0.00063     0.96446
  107. RY ( 1) C  7             0.00442     1.36249
  108. RY ( 2) C  7             0.00412     1.03454
  109. RY ( 3) C  7             0.00060     0.82954
  110. RY ( 4) C  7             0.00052     0.82752
  111. RY ( 1) O  8             0.00203     1.63813
  112. RY ( 2) O  8             0.00109     1.72314
  113. RY ( 3) O  8             0.00042     2.10671
  114. RY ( 4) O  8             0.00032     2.11261
  115. RY ( 5) O  8             0.00029     2.35397
  116. RY ( 6) O  8             0.00006     2.03519
  117. RY ( 7) O  8             0.00004     2.24613
  118. RY ( 8) O  8             0.00002     1.98022
  119. RY ( 9) O  8             0.00001     1.93961
  120. RY ( 1) C  9             0.00290     0.97196
  121. RY ( 2) C  9             0.00234     1.13181
  122. RY ( 3) C  9             0.00082     0.98689
  123. RY ( 4) C  9             0.00033     1.03055
  124. RY ( 1) C 10             0.00226     1.19971
  125. RY ( 2) C 10             0.00072     1.01712
  126. RY ( 3) C 10             0.00064     0.95022
  127. RY ( 4) C 10             0.00028     1.11085
  128. RY ( 1) C 11             0.00326     1.12001
  129. RY ( 2) C 11             0.00150     1.07700
  130. RY ( 3) C 11             0.00091     0.99391
  131. RY ( 4) C 11             0.00030     1.14592
  132. RY ( 1) H 12             0.00117     0.61752
  133. RY ( 1) H 13             0.00085     0.62543
  134. RY ( 1) H 14             0.00188     0.62835
  135. RY ( 1) H 15             0.00104     0.59036
  136. RY ( 1) H 16             0.00209     0.61786
  137. RY ( 1) H 17             0.00233     0.63070
  138. RY ( 1) H 18             0.00131     0.61154
  139. RY ( 1) H 19             0.00148     0.62828
  140. RY ( 1) H 20             0.00129     0.62736
          -------------------------------
                 Total Lewis  104.37973  ( 98.4714%)
           Valence non-Lewis    1.51897  (  1.4330%)
           Rydberg non-Lewis    0.10130  (  0.0956%)
          -------------------------------
               Total unit  1  106.00000  (100.0000%)
              Charge unit  1    0.00000

 $CHOOSE
   LONE 1 3 8 2 END
   BOND S 1 2 S 2 3 D 2 7 D 3 4 S 3 12 S 4 5 S 4 13 D 5 6 S 5 11 S 6 7 S 6 8
        S 7 14 S 8 9 S 9 10 S 9 15 S 9 16 S 10 11 S 10 17 S 10 18 S 11 19
        S 11 20 END
 $END


 Checkpoint NBOs sorted by occupancy:

  Sort    Occ       Energy   Orig   Label
 -----------------------------------------------------------
    1.  2.00000   -19.74483    1.   CR ( 1)Br  1
    2.  2.00000  -451.82379    2.   CR ( 2)Br  1
    3.  2.00000    -7.16203    4.   CR ( 4)Br  1
    4.  2.00000    -7.14895    6.   CR ( 6)Br  1
    5.  2.00000    -7.14831    8.   CR ( 8)Br  1
    6.  2.00000   -55.66168    9.   CR ( 9)Br  1
    7.  1.99999   -55.66189    7.   CR ( 7)Br  1
    8.  1.99999   -80.02498    3.   CR ( 3)Br  1
    9.  1.99999    -2.75330   12.   CR (12)Br  1
   10.  1.99999   -55.66514    5.   CR ( 5)Br  1
   11.  1.99990   -10.24297   18.   CR ( 1) C  5
   12.  1.99988   -10.28634   15.   CR ( 1) C  2
   13.  1.99988    -2.76355   11.   CR (11)Br  1
   14.  1.99986   -10.23245   16.   CR ( 1) C  3
   15.  1.99986   -10.29964   19.   CR ( 1) C  6
   16.  1.99985   -10.23804   17.   CR ( 1) C  4
   17.  1.99985   -10.23369   20.   CR ( 1) C  7
   18.  1.99985   -19.18280   21.   CR ( 1) O  8
   19.  1.99980    -2.75662   14.   CR (14)Br  1
   20.  1.99977   -10.23863   23.   CR ( 1) C 10
   21.  1.99977   -10.28859   22.   CR ( 1) C  9
   22.  1.99975   -10.24105   24.   CR ( 1) C 11
   23.  1.99964    -2.76402   10.   CR (10)Br  1
   24.  1.99948    -2.76416   13.   CR (13)Br  1
   25.  1.99734    -0.75085   25.   LP ( 1)Br  1
   26.  1.99144    -0.87961   43.   BD ( 1) C  6- O  8
   27.  1.99126    -0.82202   45.   BD ( 1) O  8- C  9
   28.  1.98996    -0.64510   46.   BD ( 1) C  9- C 10
   29.  1.98982    -0.58466   48.   BD ( 1) C  9- H 16
   30.  1.98751    -0.58568   47.   BD ( 1) C  9- H 15
   31.  1.98686    -0.61957   30.   BD ( 1)Br  1- C  2
   32.  1.98393    -0.62321   49.   BD ( 1) C 10- C 11
   33.  1.98333    -0.56193   50.   BD ( 1) C 10- H 17
   34.  1.98290    -0.35413   26.   LP ( 2)Br  1
   35.  1.98162    -0.57209   36.   BD ( 1) C  3- H 12
   36.  1.98130    -0.57386   38.   BD ( 1) C  4- H 13
   37.  1.98077    -0.56133   53.   BD ( 1) C 11- H 20
   38.  1.98044    -0.56839   51.   BD ( 1) C 10- H 18
   39.  1.97959    -0.71316   31.   BD ( 1) C  2- C  3
   40.  1.97818    -0.57087   44.   BD ( 1) C  7- H 14
   41.  1.97721    -0.71799   32.   BD ( 1) C  2- C  7
   42.  1.97613    -0.55875   52.   BD ( 1) C 11- H 19
   43.  1.97535    -0.63217   41.   BD ( 1) C  5- C 11
   44.  1.97420    -0.70781   39.   BD ( 1) C  5- C  6
   45.  1.97247    -0.69076   34.   BD ( 1) C  3- C  4
   46.  1.97066    -0.68914   37.   BD ( 1) C  4- C  5
   47.  1.97030    -0.70471   42.   BD ( 1) C  6- C  7
   48.  1.96426    -0.56096   28.   LP ( 1) O  8
   49.  1.94777    -0.34965   27.   LP ( 3)Br  1
   50.  1.83195    -0.36960   29.   LP ( 2) O  8
   51.  1.72360    -0.32968   33.   BD ( 2) C  2- C  7
   52.  1.69265    -0.31214   35.   BD ( 2) C  3- C  4
   53.  1.63981    -0.31447   40.   BD ( 2) C  5- C  6
   54.  0.40978     0.06747   64.   BD*( 2) C  5- C  6
   55.  0.39005     0.06007   57.   BD*( 2) C  2- C  7
   56.  0.34217     0.07829   59.   BD*( 2) C  3- C  4
   57.  0.03321     0.66270   63.   BD*( 1) C  5- C  6
   58.  0.02596     0.18573   54.   BD*( 1)Br  1- C  2
   59.  0.02375     0.45165   70.   BD*( 1) C  9- C 10
   60.  0.02362     0.45782   67.   BD*( 1) C  6- O  8
   61.  0.02328     0.51894   72.   BD*( 1) C  9- H 16
   62.  0.02309     0.66805   66.   BD*( 1) C  6- C  7
   63.  0.02231     0.67342   55.   BD*( 1) C  2- C  3
   64.  0.02168     0.69041   61.   BD*( 1) C  4- C  5
   65.  0.02132     0.51315   65.   BD*( 1) C  5- C 11
   66.  0.02059     0.68306   56.   BD*( 1) C  2- C  7
   67.  0.01838     0.36753   69.   BD*( 1) O  8- C  9
   68.  0.01606     0.69609   58.   BD*( 1) C  3- C  4
   69.  0.01357     0.52938   76.   BD*( 1) C 11- H 19
   70.  0.01249     0.46128   73.   BD*( 1) C 10- C 11
   71.  0.01198     0.54399   71.   BD*( 1) C  9- H 15
   72.  0.01170     0.58511   62.   BD*( 1) C  4- H 13
   73.  0.01162     0.59650   60.   BD*( 1) C  3- H 12
   74.  0.01157     0.53609   74.   BD*( 1) C 10- H 17
   75.  0.01150     0.59466   68.   BD*( 1) C  7- H 14
   76.  0.00972     0.54064   77.   BD*( 1) C 11- H 20
   77.  0.00955     0.54032   75.   BD*( 1) C 10- H 18
   78.  0.00709     1.28778  103.   RY ( 1) C  6
   79.  0.00648     1.09911   87.   RY ( 1) C  2
   80.  0.00524     1.34834   91.   RY ( 1) C  3
   81.  0.00508     1.38956   95.   RY ( 1) C  4
   82.  0.00503     1.37165   88.   RY ( 2) C  2
   83.  0.00454     1.38038   99.   RY ( 1) C  5
   84.  0.00442     1.36249  107.   RY ( 1) C  7
   85.  0.00424     1.33571  104.   RY ( 2) C  6
   86.  0.00412     1.03454  108.   RY ( 2) C  7
   87.  0.00351     1.03700   92.   RY ( 2) C  3
   88.  0.00327     1.04296   96.   RY ( 2) C  4
   89.  0.00326     1.12001  128.   RY ( 1) C 11
   90.  0.00302     1.41056  100.   RY ( 2) C  5
   91.  0.00290     0.97196  120.   RY ( 1) C  9
   92.  0.00234     1.13181  121.   RY ( 2) C  9
   93.  0.00233     0.63070  137.   RY ( 1) H 17
   94.  0.00226     1.19971  124.   RY ( 1) C 10
   95.  0.00209     0.61786  136.   RY ( 1) H 16
   96.  0.00203     1.63813  111.   RY ( 1) O  8
   97.  0.00199     0.69034   78.   RY ( 1)Br  1
   98.  0.00188     0.62835  134.   RY ( 1) H 14
   99.  0.00150     1.07700  129.   RY ( 2) C 11
  100.  0.00148     0.62828  139.   RY ( 1) H 19
  101.  0.00146     1.02129  101.   RY ( 3) C  5
  102.  0.00131     0.61154  138.   RY ( 1) H 18
  103.  0.00129     0.62736  140.   RY ( 1) H 20
  104.  0.00117     0.61752  132.   RY ( 1) H 12
  105.  0.00109     1.72314  112.   RY ( 2) O  8
  106.  0.00104     0.59036  135.   RY ( 1) H 15
  107.  0.00095     0.81079  105.   RY ( 3) C  6
  108.  0.00093     0.75421   79.   RY ( 2)Br  1
  109.  0.00091     0.99391  130.   RY ( 3) C 11
  110.  0.00085     0.62543  133.   RY ( 1) H 13
  111.  0.00082     0.98689  122.   RY ( 3) C  9
  112.  0.00077     0.95501   89.   RY ( 3) C  2
  113.  0.00072     1.01712  125.   RY ( 2) C 10
  114.  0.00064     0.95022  126.   RY ( 3) C 10
  115.  0.00063     0.96446  106.   RY ( 4) C  6
  116.  0.00062     0.80939  102.   RY ( 4) C  5
  117.  0.00061     1.11922   80.   RY ( 3)Br  1
  118.  0.00060     0.82954  109.   RY ( 3) C  7
  119.  0.00052     0.82752  110.   RY ( 4) C  7
  120.  0.00043     0.94086   93.   RY ( 3) C  3
  121.  0.00042     2.10671  113.   RY ( 3) O  8
  122.  0.00039     0.73160   94.   RY ( 4) C  3
  123.  0.00039     0.74549   97.   RY ( 3) C  4
  124.  0.00033     0.71897   90.   RY ( 4) C  2
  125.  0.00033     1.03055  123.   RY ( 4) C  9
  126.  0.00032     2.11261  114.   RY ( 4) O  8
  127.  0.00030     1.14592  131.   RY ( 4) C 11
  128.  0.00029     2.35397  115.   RY ( 5) O  8
  129.  0.00028     1.11085  127.   RY ( 4) C 10
  130.  0.00026     0.83495   81.   RY ( 4)Br  1
  131.  0.00017     0.94414   98.   RY ( 4) C  4
  132.  0.00010     0.94362   82.   RY ( 5)Br  1
  133.  0.00006     0.65684   83.   RY ( 6)Br  1
  134.  0.00006     2.03519  116.   RY ( 6) O  8
  135.  0.00004     2.24613  117.   RY ( 7) O  8
  136.  0.00003     0.68288   84.   RY ( 7)Br  1
  137.  0.00002     0.77507   85.   RY ( 8)Br  1
  138.  0.00002     1.98022  118.   RY ( 8) O  8
  139.  0.00001     0.72541   86.   RY ( 9)Br  1
  140.  0.00001     1.93961  119.   RY ( 9) O  8

 NBO analysis completed in 0.40 CPU seconds (0 wall seconds)
 Maximum scratch memory used by NBO was 621700 words (4.74 MB)
 Maximum scratch memory used by G16NBO was 38716 words (0.30 MB)

 Opening RunExU unformatted file "/home/rpaton/opt/xtb/Gau-1518006.EUF"
 Read unf file /home/rpaton/opt/xtb/Gau-1518006.EUF:
 Label Gaussian matrix elements                                         IVers= 2 NLab= 2 Version=ES64L-G16RevC.01
 Title energy: -32.024707278763 gnorm: 0.000396726366 xtb: 6.7.0 (08769
 NAtoms=    20 NBasis=   140 NBsUse=   140 ICharg=     0 Multip=     1 NE=   106 Len12L=8 Len4L=8 IOpCl= 0 ICGU=111
 GAUSSIAN SCALARS                    NI= 1 NR= 1 NTot=       1 LenBuf=    2 NRI=1 N=    1000
 ALPHA ORBITAL ENERGIES              NI= 0 NR= 1 NTot=     140 LenBuf= 2048 NRI=1 N=     140
 ALPHA MO COEFFICIENTS               NI= 0 NR= 1 NTot=   19600 LenBuf= 2048 NRI=1 N=     140     140
 Store file  10524 Len=   19600.
 NPA CHARGES                         NI= 0 NR= 1 NTot=      20 LenBuf= 2048 NRI=1 N=      20
 Recovered energy= -2983.04687725     dipole=      1.334870713594      0.366861812247     -0.068134018275
 Unable to Open any file for archive entry.
 1\1\GINC-DYNAMO\SP\RwB97XD\MIDIx\C9H9Br1O1\RPATON\26-Sep-2024\0\\# wb9
 7xd midix pop(nbo6read,savenbos,hirshfeld)\\energy: -32.024707278763 g
 norm: 0.000396726366 xtb: 6.7.0 (08769fc)\\0,1\Br,0,2.99342,-0.25958,-
 0.10009\C,0,1.14493,0.19043,-0.01904\C,0,0.77157,1.52267,0.02996\C,0,-
 0.57582,1.82671,0.07294\C,0,-1.54811,0.83663,0.08075\C,0,-1.14665,-0.5
 0201,0.05256\C,0,0.20891,-0.82187,-0.00776\O,0,-2.00854,-1.55071,0.062
 64\C,0,-3.3694,-1.25156,0.31039\C,0,-3.82063,0.00148,-0.42881\C,0,-3.0
 1189,1.18433,0.09478\H,0,1.51618,2.30252,0.02672\H,0,-0.88513,2.86131,
 0.09737\H,0,0.49778,-1.85993,-0.04322\H,0,-3.92136,-2.13547,-0.01777\H
 ,0,-3.51964,-1.12209,1.39139\H,0,-3.63557,-0.13034,-1.49682\H,0,-4.888
 26,0.15648,-0.27645\H,0,-3.32259,1.42203,1.11738\H,0,-3.1866,2.07262,-
 0.51535\\Version=ES64L-G16RevC.01\State=1-A\HF=-2983.0468772\RMSD=4.54
 6e-09\Dipole=-1.332964,0.3695423,0.0880635\Quadrupole=4.6880068,-0.192
 6412,-4.4953656,-0.0050626,-0.7367841,-0.0327886\PG=C01 [X(C9H9Br1O1)]
 \\@
 The archive entry for this job was punched.


 IT TAKES GREATER CHARACTER TO CARRY OFF GOOD FORTUNE THAN BAD.
                     FRENCH PROVERB.
 Job cpu time:       0 days  0 hours  3 minutes 35.6 seconds.
 Elapsed time:       0 days  0 hours  0 minutes  9.3 seconds.
 File lengths (MBytes):  RWF=     15 Int=      0 D2E=      0 Chk=      2 Scr=      1
 Normal termination of Gaussian 16 at Thu Sep 26 14:44:05 2024.
