 Entering Gaussian System, Link 0=/usr/local/Gaussian/G16C/g16/g16
 Input=popn/arbr41_xtbopt_popn.com
 Output=popn/arbr41_xtbopt_popn.log
 Initial command:
 /usr/local/Gaussian/G16C/g16/l1.exe "/home/rpaton/opt/xtb/Gau-1516968.inp" -scrdir="/home/rpaton/opt/xtb/"
 Entering Link 1 = /usr/local/Gaussian/G16C/g16/l1.exe PID=   1516969.
  
 Copyright (c) 1988-2019, Gaussian, Inc.  All Rights Reserved.
  
 This is part of the Gaussian(R) 16 program.  It is based on
 the Gaussian(R) 09 system (copyright 2009, Gaussian, Inc.),
 the Gaussian(R) 03 system (copyright 2003, Gaussian, Inc.),
 the Gaussian(R) 98 system (copyright 1998, Gaussian, Inc.),
 the Gaussian(R) 94 system (copyright 1995, Gaussian, Inc.),
 the Gaussian 92(TM) system (copyright 1992, Gaussian, Inc.),
 the Gaussian 90(TM) system (copyright 1990, Gaussian, Inc.),
 the Gaussian 88(TM) system (copyright 1988, Gaussian, Inc.),
 the Gaussian 86(TM) system (copyright 1986, Carnegie Mellon
 University), and the Gaussian 82(TM) system (copyright 1983,
 Carnegie Mellon University). Gaussian is a federally registered
 trademark of Gaussian, Inc.
  
 This software contains proprietary and confidential information,
 including trade secrets, belonging to Gaussian, Inc.
  
 This software is provided under written license and may be
 used, copied, transmitted, or stored only in accord with that
 written license.
  
 The following legend is applicable only to US Government
 contracts under FAR:
  
                    RESTRICTED RIGHTS LEGEND
  
 Use, reproduction and disclosure by the US Government is
 subject to restrictions as set forth in subparagraphs (a)
 and (c) of the Commercial Computer Software - Restricted
 Rights clause in FAR 52.227-19.
  
 Gaussian, Inc.
 340 Quinnipiac St., Bldg. 40, Wallingford CT 06492
  
  
 ---------------------------------------------------------------
 Warning -- This program may not be used in any manner that
 competes with the business of Gaussian, Inc. or will provide
 assistance to any competitor of Gaussian, Inc.  The licensee
 of this program is prohibited from giving any competitor of
 Gaussian, Inc. access to this program.  By using this program,
 the user acknowledges that Gaussian, Inc. is engaged in the
 business of creating and licensing software in the field of
 computational chemistry and represents and warrants to the
 licensee that it is not a competitor of Gaussian, Inc. and that
 it will not use this program in any manner prohibited above.
 ---------------------------------------------------------------
  

 Cite this work as:
 Gaussian 16, Revision C.01,
 M. J. Frisch, G. W. Trucks, H. B. Schlegel, G. E. Scuseria, 
 M. A. Robb, J. R. Cheeseman, G. Scalmani, V. Barone, 
 G. A. Petersson, H. Nakatsuji, X. Li, M. Caricato, A. V. Marenich, 
 J. Bloino, B. G. Janesko, R. Gomperts, B. Mennucci, H. P. Hratchian, 
 J. V. Ortiz, A. F. Izmaylov, J. L. Sonnenberg, D. Williams-Young, 
 F. Ding, F. Lipparini, F. Egidi, J. Goings, B. Peng, A. Petrone, 
 T. Henderson, D. Ranasinghe, V. G. Zakrzewski, J. Gao, N. Rega, 
 G. Zheng, W. Liang, M. Hada, M. Ehara, K. Toyota, R. Fukuda, 
 J. Hasegawa, M. Ishida, T. Nakajima, Y. Honda, O. Kitao, H. Nakai, 
 T. Vreven, K. Throssell, J. A. Montgomery, Jr., J. E. Peralta, 
 F. Ogliaro, M. J. Bearpark, J. J. Heyd, E. N. Brothers, K. N. Kudin, 
 V. N. Staroverov, T. A. Keith, R. Kobayashi, J. Normand, 
 K. Raghavachari, A. P. Rendell, J. C. Burant, S. S. Iyengar, 
 J. Tomasi, M. Cossi, J. M. Millam, M. Klene, C. Adamo, R. Cammi, 
 J. W. Ochterski, R. L. Martin, K. Morokuma, O. Farkas, 
 J. B. Foresman, and D. J. Fox, Gaussian, Inc., Wallingford CT, 2019.
 
 ******************************************
 Gaussian 16:  ES64L-G16RevC.01  3-Jul-2019
                26-Sep-2024 
 ******************************************
 %nprocshared=24
 Will use up to   24 processors via shared memory.
 -----------------------------------------------
 # wb97xd midix pop(nbo6read,savenbos,hirshfeld)
 -----------------------------------------------
 1/38=1,163=2,172=1/1;
 2/12=2,17=6,18=5,40=1/2;
 3/5=20,11=2,25=1,30=1,74=-58/1,2,3;
 4//1;
 5/5=2,38=5/2;
 6/7=2,8=2,9=2,10=2,28=1,40=2,73=1,79=1,113=1,114=1,124=2103,126=1/1,12;
 99/5=1,9=1/99;
 -------------------------------------------------------------------
 energy: -32.469090060500 gnorm: 0.000424945565 xtb: 6.7.0 (08769fc)
 -------------------------------------------------------------------
 Symbolic Z-matrix:
 Charge =  0 Multiplicity = 1
 N                    -3.07938  -2.31462  -1.17037 
 C                    -2.77038  -1.61756  -0.31936 
 C                    -2.37976  -0.71122   0.73706 
 C                    -3.36403   0.47612   0.83781 
 C                    -2.78417   1.55749  -0.08723 
 C                    -1.31851   1.24183  -0.12189 
 C                    -0.26758   2.02836  -0.55083 
 C                     1.02168   1.51821  -0.50235 
 C                     1.23573   0.23336  -0.03289 
 Br                    3.015    -0.44763   0.03086 
 C                     0.19201  -0.57471   0.39677 
 C                    -1.0806   -0.04672   0.35001 
 H                    -2.30765  -1.28005   1.66891 
 H                    -4.37759   0.18958   0.56017 
 H                    -3.37633   0.83589   1.86776 
 H                    -3.19874   1.46947  -1.09545 
 H                    -2.98828   2.56528   0.27364 
 H                    -0.4391    3.02876  -0.91769 
 H                     1.85771   2.11757  -0.82779 
 H                     0.37815  -1.57614   0.75384 
 
                          Input orientation:                          
 ---------------------------------------------------------------------
 Center     Atomic      Atomic             Coordinates (Angstroms)
 Number     Number       Type             X           Y           Z
 ---------------------------------------------------------------------
      1          7           0       -3.079380   -2.314620   -1.170370
      2          6           0       -2.770380   -1.617560   -0.319360
      3          6           0       -2.379760   -0.711220    0.737060
      4          6           0       -3.364030    0.476120    0.837810
      5          6           0       -2.784170    1.557490   -0.087230
      6          6           0       -1.318510    1.241830   -0.121890
      7          6           0       -0.267580    2.028360   -0.550830
      8          6           0        1.021680    1.518210   -0.502350
      9          6           0        1.235730    0.233360   -0.032890
     10         35           0        3.015000   -0.447630    0.030860
     11          6           0        0.192010   -0.574710    0.396770
     12          6           0       -1.080600   -0.046720    0.350010
     13          1           0       -2.307650   -1.280050    1.668910
     14          1           0       -4.377590    0.189580    0.560170
     15          1           0       -3.376330    0.835890    1.867760
     16          1           0       -3.198740    1.469470   -1.095450
     17          1           0       -2.988280    2.565280    0.273640
     18          1           0       -0.439100    3.028760   -0.917690
     19          1           0        1.857710    2.117570   -0.827790
     20          1           0        0.378150   -1.576140    0.753840
 ---------------------------------------------------------------------
                    Distance matrix (angstroms):
                    1          2          3          4          5
     1  N    0.000000
     2  C    1.142625   0.000000
     3  C    2.588175   1.445704   0.000000
     4  C    3.449934   2.464743   1.545547   0.000000
     5  C    4.031573   3.183554   2.447457   1.536651   0.000000
     6  C    4.104669   3.212948   2.382950   2.385684   1.499667
     7  C    5.210712   4.428354   3.691241   3.731725   2.601897
     8  C    5.652922   4.924049   4.251622   4.702811   3.828624
     9  C    5.138700   4.422317   3.815340   4.687733   4.232714
    10  Br   6.486145   5.912868   5.447167   6.495884   6.137167
    11  C    4.023084   3.221201   2.597775   3.734191   3.692991
    12  C    3.383792   2.402280   1.509697   2.392773   2.380508
    13  H    3.118880   2.069118   1.094126   2.211515   3.370865
    14  H    3.309250   2.573413   2.198649   1.089263   2.197565
    15  H    4.386813   3.342168   2.159904   1.091047   2.166413
    16  H    3.786713   3.211785   2.963820   2.179807   1.093674
    17  H    5.089881   4.230281   3.364596   2.196376   1.089738
    18  H    5.965454   5.232701   4.526788   4.260630   2.890269
    19  H    6.643533   5.968996   5.329818   5.721464   4.733832
    20  H    4.025227   3.326667   2.890404   4.268809   4.530707
                    6          7          8          9         10
     6  C    0.000000
     7  C    1.380968   0.000000
     8  C    2.386970   1.387370   0.000000
     9  C    2.747558   2.397963   1.384576   0.000000
    10  Br   4.653699   4.152616   2.849941   1.906204   0.000000
    11  C    2.418780   2.808050   2.424270   1.388141   2.849441
    12  C    1.392714   2.403845   2.755922   2.364412   4.127533
    13  H    3.247344   4.476015   4.860974   4.212134   5.630873
    14  H    3.306117   4.637630   5.660947   5.644732   7.438857
    15  H    2.891041   4.115324   5.042368   5.024601   6.772793
    16  H    2.129531   3.033260   4.262169   4.724566   6.599577
    17  H    2.167048   2.893137   4.216432   4.834674   6.721305
    18  H    2.144709   1.079262   2.141996   3.376713   4.991577
    19  H    3.369509   2.145116   1.078930   2.137515   2.942253
    20  H    3.403897   3.887358   3.401051   2.151436   2.957907
                   11         12         13         14         15
    11  C    0.000000
    12  C    1.378585   0.000000
    13  H    2.892083   2.183175   0.000000
    14  H    4.635955   3.312121   2.770157   0.000000
    15  H    4.109337   2.890146   2.378828   1.769189   0.000000
    16  H    4.231144   2.979044   3.999448   2.401850   3.035387
    17  H    4.470900   3.235370   4.146878   2.766990   2.383819
    18  H    3.887300   3.387796   5.361700   5.075108   4.603774
    19  H    3.394477   3.834714   5.926850   6.672522   6.025269
    20  H    1.079356   2.151780   2.852813   5.076646   4.599438
                   16         17         18         19         20
    16  H    0.000000
    17  H    1.766211   0.000000
    18  H    3.174681   2.851736   0.000000
    19  H    5.104837   4.989711   2.472587   0.000000
    20  H    5.048738   5.358619   4.966590   4.281839   0.000000
 Stoichiometry    C10H8BrN
 Framework group  C1[X(C10H8BrN)]
 Deg. of freedom    54
 Full point group                 C1      NOp   1
 Largest Abelian subgroup         C1      NOp   1
 Largest concise Abelian subgroup C1      NOp   1
                         Standard orientation:                         
 ---------------------------------------------------------------------
 Center     Atomic      Atomic             Coordinates (Angstroms)
 Number     Number       Type             X           Y           Z
 ---------------------------------------------------------------------
      1          7           0       -3.029053   -2.362650   -1.211834
      2          6           0       -2.741107   -1.666306   -0.352890
      3          6           0       -2.377372   -0.760735    0.713739
      4          6           0       -3.384035    0.407793    0.813179
      5          6           0       -2.814972    1.506200   -0.098394
      6          6           0       -1.343539    1.217437   -0.120812
      7          6           0       -0.302974    2.025998   -0.533760
      8          6           0        0.994828    1.538978   -0.476166
      9          6           0        1.227652    0.254843   -0.013739
     10         35           0        3.018321   -0.394207    0.062753
     11          6           0        0.194680   -0.575128    0.399847
     12          6           0       -1.086816   -0.069983    0.344264
     13          1           0       -2.304004   -1.334924    1.642198
     14          1           0       -4.389455    0.104942    0.523515
     15          1           0       -3.412923    0.759782    1.845483
     16          1           0       -3.218023    1.418008   -1.111260
     17          1           0       -3.040907    2.507471    0.267580
     18          1           0       -0.489097    3.025763   -0.895192
     19          1           0        1.822938    2.155755   -0.789072
     20          1           0        0.395535   -1.575587    0.751627
 ---------------------------------------------------------------------
 Rotational constants (GHZ):           1.4748899           0.3575966           0.3072761
 Standard basis: MIDIx (5D, 7F)
 There are   150 symmetry adapted cartesian basis functions of A   symmetry.
 There are   147 symmetry adapted basis functions of A   symmetry.
   147 basis functions,   258 primitive gaussians,   150 cartesian basis functions
    55 alpha electrons       55 beta electrons
       nuclear repulsion energy       876.1895583712 Hartrees.
 NAtoms=   20 NActive=   20 NUniq=   20 SFac= 1.00D+00 NAtFMM=   60 NAOKFM=F Big=F
 Integral buffers will be    131072 words long.
 Raffenetti 2 integral format.
 Two-electron integral symmetry is turned on.
 Nuclear repulsion after empirical dispersion term =      876.1761957084 Hartrees.
 One-electron integrals computed using PRISM.
 NBasis=   147 RedAO= T EigKep=  1.10D-03  NBF=   147
 NBsUse=   147 1.00D-06 EigRej= -1.00D+00 NBFU=   147
 ExpMin= 1.47D-01 ExpMax= 6.10D+03 ExpMxC= 6.10D+03 IAcc=3 IRadAn=         5 AccDes= 0.00D+00
 Harris functional with IExCor= 4639 and IRadAn=       5 diagonalized for initial guess.
 HarFok:  IExCor= 4639 AccDes= 0.00D+00 IRadAn=         5 IDoV= 1 UseB2=F ITyADJ=14
 ICtDFT=  3500011 ScaDFX=  1.000000  1.000000  1.000000  1.000000
 FoFCou: FMM=F IPFlag=           0 FMFlag=      100000 FMFlg1=           0
         NFxFlg=           0 DoJE=T BraDBF=F KetDBF=T FulRan=T
         wScrn=  0.000000 ICntrl=       500 IOpCl=  0 I1Cent=   200000004 NGrid=           0
         NMat0=    1 NMatS0=      1 NMatT0=    0 NMatD0=    1 NMtDS0=    0 NMtDT0=    0
 Petite list used in FoFCou.
 Requested convergence on RMS density matrix=1.00D-08 within 128 cycles.
 Requested convergence on MAX density matrix=1.00D-06.
 Requested convergence on             energy=1.00D-06.
 No special actions if energy rises.
 Integral accuracy reduced to 1.0D-05 until final iterations.
 Initial convergence to 1.0D-05 achieved.  Increase integral accuracy.
 SCF Done:  E(RwB97XD) =  -2999.95985081     A.U. after   16 cycles
            NFock= 16  Conv=0.30D-08     -V/T= 2.0021

 **********************************************************************

            Population analysis using the SCF Density.

 **********************************************************************

 Orbital symmetries:
       Occupied  (A) (A) (A) (A) (A) (A) (A) (A) (A) (A) (A) (A)
                 (A) (A) (A) (A) (A) (A) (A) (A) (A) (A) (A) (A)
                 (A) (A) (A) (A) (A) (A) (A) (A) (A) (A) (A) (A)
                 (A) (A) (A) (A) (A) (A) (A) (A) (A) (A) (A) (A)
                 (A) (A) (A) (A) (A) (A) (A)
       Virtual   (A) (A) (A) (A) (A) (A) (A) (A) (A) (A) (A) (A)
                 (A) (A) (A) (A) (A) (A) (A) (A) (A) (A) (A) (A)
                 (A) (A) (A) (A) (A) (A) (A) (A) (A) (A) (A) (A)
                 (A) (A) (A) (A) (A) (A) (A) (A) (A) (A) (A) (A)
                 (A) (A) (A) (A) (A) (A) (A) (A) (A) (A) (A) (A)
                 (A) (A) (A) (A) (A) (A) (A) (A) (A) (A) (A) (A)
                 (A) (A) (A) (A) (A) (A) (A) (A) (A) (A) (A) (A)
                 (A) (A) (A) (A) (A) (A) (A) (A)
 The electronic state is 1-A.
 Alpha  occ. eigenvalues -- -480.15023 -62.58409 -56.17310 -56.16881 -56.16867
 Alpha  occ. eigenvalues --  -14.35130 -10.30201 -10.29496 -10.26775 -10.26176
 Alpha  occ. eigenvalues --  -10.26117 -10.26101 -10.25968 -10.25732 -10.25589
 Alpha  occ. eigenvalues --  -10.25336  -8.89251  -6.67739  -6.66302  -6.66290
 Alpha  occ. eigenvalues --   -2.78043  -2.77546  -2.77528  -2.76347  -2.76342
 Alpha  occ. eigenvalues --   -1.03115  -1.00872  -0.96749  -0.90962  -0.88454
 Alpha  occ. eigenvalues --   -0.85120  -0.82017  -0.73772  -0.72572  -0.69216
 Alpha  occ. eigenvalues --   -0.63378  -0.62010  -0.58151  -0.56061  -0.55106
 Alpha  occ. eigenvalues --   -0.54038  -0.51855  -0.50020  -0.48377  -0.46750
 Alpha  occ. eigenvalues --   -0.46000  -0.45759  -0.44290  -0.43754  -0.40832
 Alpha  occ. eigenvalues --   -0.40610  -0.39099  -0.36644  -0.35014  -0.31733
 Alpha virt. eigenvalues --    0.04558   0.05113   0.08253   0.12308   0.13908
 Alpha virt. eigenvalues --    0.17162   0.19451   0.19739   0.20819   0.21542
 Alpha virt. eigenvalues --    0.23329   0.24250   0.25370   0.27630   0.28857
 Alpha virt. eigenvalues --    0.29016   0.30850   0.35370   0.36115   0.40667
 Alpha virt. eigenvalues --    0.41366   0.44002   0.44279   0.50888   0.53913
 Alpha virt. eigenvalues --    0.56186   0.58327   0.59610   0.61667   0.64004
 Alpha virt. eigenvalues --    0.64086   0.64750   0.66785   0.67860   0.70660
 Alpha virt. eigenvalues --    0.71535   0.71821   0.75475   0.75647   0.77353
 Alpha virt. eigenvalues --    0.82251   0.82996   0.83223   0.86257   0.87434
 Alpha virt. eigenvalues --    0.88855   0.89929   0.91619   0.93916   0.94780
 Alpha virt. eigenvalues --    0.96072   0.96276   0.97706   0.98394   0.98769
 Alpha virt. eigenvalues --    1.00044   1.00354   1.01039   1.01898   1.03257
 Alpha virt. eigenvalues --    1.04250   1.05263   1.06046   1.06613   1.09174
 Alpha virt. eigenvalues --    1.10728   1.13133   1.13928   1.15802   1.16984
 Alpha virt. eigenvalues --    1.21353   1.22943   1.27505   1.29278   1.34518
 Alpha virt. eigenvalues --    1.39288   1.40558   1.44570   1.51456   1.57593
 Alpha virt. eigenvalues --    1.58966   1.61293   1.64278   1.70110   1.81598
 Alpha virt. eigenvalues --    1.89002   1.92821   1.93036   1.97780   2.11180
 Alpha virt. eigenvalues --    2.17685   3.21581
          Condensed to atoms (all electrons):
               1          2          3          4          5          6
     1  N    6.889438   0.648301  -0.030752  -0.004985   0.000423  -0.000302
     2  C    0.648301   5.218063   0.019192  -0.087251   0.008995  -0.001833
     3  C   -0.030752   0.019192   5.488853   0.323657  -0.121252  -0.046724
     4  C   -0.004985  -0.087251   0.323657   5.237415   0.321641  -0.076644
     5  C    0.000423   0.008995  -0.121252   0.321641   5.174524   0.274271
     6  C   -0.000302  -0.001833  -0.046724  -0.076644   0.274271   5.129451
     7  C   -0.000006  -0.000372   0.001654   0.003065   0.004536   0.465596
     8  C    0.000000  -0.000014   0.000902  -0.000150   0.000044  -0.027906
     9  C    0.000004   0.000160   0.000355  -0.000153   0.000805  -0.055705
    10  Br   0.000000   0.000001  -0.000041   0.000001   0.000002   0.000450
    11  C   -0.000622  -0.007559   0.009135   0.002465   0.000591  -0.014360
    12  C   -0.005792  -0.085831   0.310318  -0.094413  -0.034889   0.476632
    13  H   -0.000218  -0.018183   0.375997  -0.022164   0.004771   0.001090
    14  H    0.000037  -0.003353  -0.025519   0.392679  -0.031010   0.004332
    15  H    0.000164   0.009614  -0.052234   0.397172  -0.030849   0.001794
    16  H    0.000442   0.004561  -0.003487  -0.029974   0.388404  -0.027574
    17  H   -0.000008  -0.000573   0.007939  -0.034003   0.396051  -0.026860
    18  H    0.000000   0.000002  -0.000058   0.000007  -0.004286  -0.021855
    19  H   -0.000000  -0.000000   0.000006   0.000001  -0.000021   0.003037
    20  H    0.000065   0.000996  -0.005367   0.000056  -0.000055   0.002261
               7          8          9         10         11         12
     1  N   -0.000006   0.000000   0.000004   0.000000  -0.000622  -0.005792
     2  C   -0.000372  -0.000014   0.000160   0.000001  -0.007559  -0.085831
     3  C    0.001654   0.000902   0.000355  -0.000041   0.009135   0.310318
     4  C    0.003065  -0.000150  -0.000153   0.000001   0.002465  -0.094413
     5  C    0.004536   0.000044   0.000805   0.000002   0.000591  -0.034889
     6  C    0.465596  -0.027906  -0.055705   0.000450  -0.014360   0.476632
     7  C    4.883483   0.495037  -0.026791   0.001759  -0.024228  -0.026033
     8  C    0.495037   4.953585   0.473933  -0.038465  -0.040751  -0.038062
     9  C   -0.026791   0.473933   5.047423   0.212913   0.483775  -0.020976
    10  Br   0.001759  -0.038465   0.212913  34.925496  -0.040278   0.002320
    11  C   -0.024228  -0.040751   0.483775  -0.040278   4.868535   0.461867
    12  C   -0.026033  -0.038062  -0.020976   0.002320   0.461867   5.112397
    13  H   -0.000039  -0.000008   0.000065  -0.000001  -0.001550  -0.020499
    14  H   -0.000030   0.000002   0.000002  -0.000000  -0.000044   0.004925
    15  H   -0.000241   0.000005   0.000000  -0.000000  -0.000172   0.003624
    16  H   -0.004502   0.000071  -0.000001  -0.000000  -0.000063  -0.001703
    17  H   -0.003762   0.000099   0.000000  -0.000000  -0.000067   0.001367
    18  H    0.398361  -0.020421   0.002832  -0.000056  -0.000027   0.002895
    19  H   -0.017789   0.394295  -0.021254   0.000653   0.002586   0.000071
    20  H   -0.000023   0.002309  -0.016380   0.000741   0.388426  -0.014623
              13         14         15         16         17         18
     1  N   -0.000218   0.000037   0.000164   0.000442  -0.000008   0.000000
     2  C   -0.018183  -0.003353   0.009614   0.004561  -0.000573   0.000002
     3  C    0.375997  -0.025519  -0.052234  -0.003487   0.007939  -0.000058
     4  C   -0.022164   0.392679   0.397172  -0.029974  -0.034003   0.000007
     5  C    0.004771  -0.031010  -0.030849   0.388404   0.396051  -0.004286
     6  C    0.001090   0.004332   0.001794  -0.027574  -0.026860  -0.021855
     7  C   -0.000039  -0.000030  -0.000241  -0.004502  -0.003762   0.398361
     8  C   -0.000008   0.000002   0.000005   0.000071   0.000099  -0.020421
     9  C    0.000065   0.000002   0.000000  -0.000001   0.000000   0.002832
    10  Br  -0.000001  -0.000000  -0.000000  -0.000000  -0.000000  -0.000056
    11  C   -0.001550  -0.000044  -0.000172  -0.000063  -0.000067  -0.000027
    12  C   -0.020499   0.004925   0.003624  -0.001703   0.001367   0.002895
    13  H    0.434247   0.000243  -0.002797  -0.000110  -0.000101   0.000001
    14  H    0.000243   0.459895  -0.022190  -0.004474   0.001202  -0.000001
    15  H   -0.002797  -0.022190   0.480227   0.003447  -0.005773   0.000001
    16  H   -0.000110  -0.004474   0.003447   0.469674  -0.024262   0.000404
    17  H   -0.000101   0.001202  -0.005773  -0.024262   0.473517   0.001427
    18  H    0.000001  -0.000001   0.000001   0.000404   0.001427   0.442654
    19  H   -0.000000  -0.000000  -0.000000   0.000001  -0.000001  -0.003978
    20  H    0.001130  -0.000002   0.000000   0.000002   0.000001   0.000006
              19         20
     1  N   -0.000000   0.000065
     2  C   -0.000000   0.000996
     3  C    0.000006  -0.005367
     4  C    0.000001   0.000056
     5  C   -0.000021  -0.000055
     6  C    0.003037   0.002261
     7  C   -0.017789  -0.000023
     8  C    0.394295   0.002309
     9  C   -0.021254  -0.016380
    10  Br   0.000653   0.000741
    11  C    0.002586   0.388426
    12  C    0.000071  -0.014623
    13  H   -0.000000   0.001130
    14  H   -0.000000  -0.000002
    15  H   -0.000000   0.000000
    16  H    0.000001   0.000002
    17  H   -0.000001   0.000001
    18  H   -0.003978   0.000006
    19  H    0.427904  -0.000055
    20  H   -0.000055   0.423839
 Mulliken charges:
               1
     1  N   -0.496191
     2  C    0.295081
     3  C   -0.252574
     4  C   -0.328423
     5  C   -0.352695
     6  C   -0.059151
     7  C   -0.149676
     8  C   -0.154502
     9  C   -0.081009
    10  Br  -0.065497
    11  C   -0.087659
    12  C   -0.033596
    13  H    0.248125
    14  H    0.223304
    15  H    0.218206
    16  H    0.229144
    17  H    0.213806
    18  H    0.202092
    19  H    0.214544
    20  H    0.216672
 Sum of Mulliken charges =  -0.00000
 Mulliken charges with hydrogens summed into heavy atoms:
               1
     1  N   -0.496191
     2  C    0.295081
     3  C   -0.004449
     4  C    0.113087
     5  C    0.090255
     6  C   -0.059151
     7  C    0.052416
     8  C    0.060042
     9  C   -0.081009
    10  Br  -0.065497
    11  C    0.129013
    12  C   -0.033596
 Electronic spatial extent (au):  <R**2>=           3258.0741
 Charge=              0.0000 electrons
 Dipole moment (field-independent basis, Debye):
    X=             -0.7415    Y=              3.1509    Z=              2.2848  Tot=              3.9621
 Quadrupole moment (field-independent basis, Debye-Ang):
   XX=            -81.8732   YY=            -82.4327   ZZ=            -84.0506
   XY=             -8.8062   XZ=             -7.9950   YZ=             -8.2577
 Traceless Quadrupole moment (field-independent basis, Debye-Ang):
   XX=              0.9123   YY=              0.3528   ZZ=             -1.2651
   XY=             -8.8062   XZ=             -7.9950   YZ=             -8.2577
 Octapole moment (field-independent basis, Debye-Ang**2):
  XXX=            102.6535  YYY=             16.5580  ZZZ=              9.1237  XYY=             53.5885
  XXY=             25.1619  XXZ=             21.5466  XZZ=             34.9650  YZZ=              0.5268
  YYZ=             10.3599  XYZ=             14.7706
 Hexadecapole moment (field-independent basis, Debye-Ang**3):
 XXXX=          -2731.0806 YYYY=           -836.7467 ZZZZ=           -239.8125 XXXY=           -149.4330
 XXXZ=            -58.5061 YYYX=           -108.3718 YYYZ=            -53.5823 ZZZX=            -12.8362
 ZZZY=            -13.3543 XXYY=           -657.9389 XXZZ=           -523.6534 YYZZ=           -191.0508
 XXYZ=            -54.2813 YYXZ=            -43.1710 ZZXY=            -33.2760
 N-N= 8.761761957084D+02 E-N=-8.891023649507D+03  KE= 2.993701267859D+03
 There are a total of      454818 grid points.
 ElSum from          density=      109.9999788440
 ElSum from atomic densities=      109.9998934020
 Hirshfeld populations at iteration   1 (CA, CB, DipXYZ):
               1          2          3          4          5
     1  N    3.604898   3.604898   0.019448   0.043626   0.050689
     2  C    2.972028   2.972028   0.037688   0.099259   0.138733
     3  C    2.990007   2.990007  -0.014997  -0.020344  -0.016541
     4  C    3.014770   3.014770   0.011873   0.001213  -0.012619
     5  C    3.019438   3.019438  -0.006217  -0.005116   0.011003
     6  C    3.001600   3.001600  -0.051914   0.031506  -0.018056
     7  C    3.017135   3.017135  -0.005727   0.048579  -0.021999
     8  C    3.019932   3.019932   0.013835   0.035984  -0.016083
     9  C    2.994485   2.994485   0.044512  -0.017947   0.000948
    10  Br  17.523494  17.523494   0.033388  -0.013628  -0.002882
    11  C    3.020235   3.020235  -0.005298  -0.043979   0.011282
    12  C    3.002209   3.002209  -0.042181  -0.050522   0.015646
    13  H    0.472024   0.472024   0.007601  -0.086027   0.137759
    14  H    0.480116   0.480116  -0.144863  -0.035093  -0.036997
    15  H    0.481807   0.481807  -0.008143   0.049798   0.142552
    16  H    0.480292   0.480292  -0.061202  -0.005891  -0.139449
    17  H    0.480505   0.480505  -0.036054   0.139678   0.048920
    18  H    0.475416   0.475416  -0.024742   0.151101  -0.055489
    19  H    0.475569   0.475569   0.113044   0.108331  -0.052277
    20  H    0.474030   0.474030   0.016754  -0.154500   0.055394
       Tot  54.999989  54.999989  -0.103195   0.276026   0.240534

 Dip from Atomic Chgs             -0.188611   0.963658   0.658335
         Total Dipole             -0.291807   1.239684   0.898870

 Hirshfeld charges, spin densities, dipoles, and CM5 charges using IRadAn=      5:
              Q-H        S-H        Dx         Dy         Dz        Q-CM5   
     1  N   -0.209796   0.000000   0.019448   0.043626   0.050689  -0.338261
     2  C    0.055943   0.000000   0.037688   0.099259   0.138733   0.171764
     3  C    0.019987   0.000000  -0.014997  -0.020344  -0.016541  -0.031560
     4  C   -0.029540   0.000000   0.011873   0.001213  -0.012619  -0.133987
     5  C   -0.038875   0.000000  -0.006217  -0.005116   0.011003  -0.141088
     6  C   -0.003199   0.000000  -0.051914   0.031506  -0.018056  -0.014935
     7  C   -0.034269   0.000000  -0.005727   0.048579  -0.021999  -0.087926
     8  C   -0.039865   0.000000   0.013835   0.035984  -0.016083  -0.094042
     9  C    0.011031   0.000000   0.044512  -0.017947   0.000948  -0.009963
    10  Br  -0.046989   0.000000   0.033388  -0.013628  -0.002882  -0.032431
    11  C   -0.040469   0.000000  -0.005298  -0.043979   0.011282  -0.091583
    12  C   -0.004417   0.000000  -0.042181  -0.050522   0.015646  -0.012299
    13  H    0.055951   0.000000   0.007601  -0.086027   0.137759   0.115643
    14  H    0.039768   0.000000  -0.144863  -0.035093  -0.036997   0.096041
    15  H    0.036386   0.000000  -0.008143   0.049798   0.142552   0.092152
    16  H    0.039415   0.000000  -0.061202  -0.005891  -0.139449   0.095419
    17  H    0.038990   0.000000  -0.036054   0.139678   0.048920   0.094242
    18  H    0.049167   0.000000  -0.024742   0.151101  -0.055489   0.106254
    19  H    0.048863   0.000000   0.113044   0.108331  -0.052277   0.106463
    20  H    0.051940   0.000000   0.016754  -0.154500   0.055394   0.110119
       Tot   0.000021   0.000000  -0.103195   0.276026   0.240534   0.000021
 Hirshfeld charges with hydrogens summed into heavy atoms:
              Q-H       Q-CM5   
     1  N   -0.209796  -0.338261
     2  C    0.055943   0.171764
     3  C    0.075938   0.084083
     4  C    0.046613   0.054206
     5  C    0.039530   0.048573
     6  C   -0.003199  -0.014935
     7  C    0.014898   0.018328
     8  C    0.008998   0.012421
     9  C    0.011031  -0.009963
    10  Br  -0.046989  -0.032431
    11  C    0.011471   0.018536
    12  C   -0.004417  -0.012299
 
 EQQ= 0.000000000000E+00 EQD= 0.000000000000E+00 EDD= 0.438145503132E-02
 EQQ+QD+DD= 0.438145503132E-02
 
 Running external command "gaunbo6 R"
         input file       "/home/rpaton/opt/xtb/Gau-1516969.EIn"
         output file      "/home/rpaton/opt/xtb/Gau-1516969.EOu"
         message file     "/home/rpaton/opt/xtb/Gau-1516969.EMs"
         fchk file        "/home/rpaton/opt/xtb/Gau-1516969.EFC"
         mat. el file     "/home/rpaton/opt/xtb/Gau-1516969.EUF"

 Writing WrtUnf unformatted file "/home/rpaton/opt/xtb/Gau-1516969.EUF"
 Gaussian matrix elements                                         Version   2 NLab=11 Len12L=8 Len4L=8
 Write SHELL TO ATOM MAP                   from file      0 offset           0 length                  83 to matrix element file.
 Write SHELL TYPES                         from file      0 offset           0 length                  83 to matrix element file.
 Write NUMBER OF PRIMITIVES PER SHELL      from file      0 offset           0 length                  83 to matrix element file.
 Write PRIMITIVE EXPONENTS                 from file      0 offset           0 length                 149 to matrix element file.
 Write CONTRACTION COEFFICIENTS            from file      0 offset           0 length                 149 to matrix element file.
 Write P(S=P) CONTRACTION COEFFICIENTS     from file      0 offset           0 length                 149 to matrix element file.
 Write COORDINATES OF EACH SHELL           from file      0 offset           0 length                 249 to matrix element file.
 Write BONDS PER ATOM                      from file      0 offset           0 length                  20 to matrix element file.
 Write BONDED ATOMS                        from file      0 offset           0 length                  42 to matrix element file.
 Write BOND TYPES                          from file      0 offset           0 length                  42 to matrix element file.
 Write ONIOM CHARGE/MULT                   from file      0 offset           0 length                  32 to matrix element file.
 Write ONIOM ATOM LAYERS                   from file      0 offset           0 length                  20 to matrix element file.
 Write ONIOM ATOM MODIFIERS                from file      0 offset           0 length                  20 to matrix element file.
 Write ONIOM ATOM TYPES                    from file      0 offset           0 length                  20 to matrix element file.
 Write ONIOM LINK ATOMS                    from file      0 offset           0 length                  20 to matrix element file.
 Write ONIOM LINK CHARGES                  from file      0 offset           0 length                  20 to matrix element file.
 Write ONIOM LINK DISTANCES                from file      0 offset           0 length                  80 to matrix element file.
 Write SYMINF INTS                         from file      0 offset           0 length                  26 to matrix element file.
 Write ROTTR TO SO                         from file      0 offset           0 length                  12 to matrix element file.
 Write GAUSSIAN SCALARS                    from file    501 offset           0 to matrix element file.
 Write OPTIMIZATION FLAGS                  from file      0 offset           0 length                  20 to matrix element file.
 Write INTEGER ISO                         from file      0 offset           0 length                  20 to matrix element file.
 Write INTEGER SPIN                        from file      0 offset           0 length                  20 to matrix element file.
 Write REAL ZEFFECTIVE                     from file      0 offset           0 length                  20 to matrix element file.
 Write REAL QUADRUPOLEMOMENT               from file      0 offset           0 length                  20 to matrix element file.
 Write REAL GFACTOR                        from file      0 offset           0 length                  20 to matrix element file.
 Write REAL ZNUCLEAR                       from file      0 offset           0 length                  20 to matrix element file.
 Write MULLIKEN CHARGES                    from file      0 offset           0 length                  20 to matrix element file.
 Write TYPE 6 CHARGES                      from file      0 offset           0 length                  20 to matrix element file.
 Write TYPE 7 CHARGES                      from file      0 offset           0 length                  20 to matrix element file.
 Write NUCLEAR GRADIENT                    from file  10584 offset           0 length                  60 to matrix element file.
 Array NUCLEAR FORCE CONSTANTS              on  file  10585 does not exist.
 Write ELECTRIC DIPOLE MOMENT              from file      0 offset           0 length                   3 to matrix element file.
 Write NON-ADIABATIC COUPLING              from file  10810 offset           0 length                  60 to matrix element file.
 Write FINITE EM FIELD                     from file  10521 offset           0 length                  35 to matrix element file.
 Write OVERLAP                             from file  10514 offset           0 length               10878 to matrix element file.
 Write CORE HAMILTONIAN ALPHA              from file  10515 offset           0 length               10878 to matrix element file.
 Write CORE HAMILTONIAN BETA               from file  10515 offset       10878 length               10878 to matrix element file.
 Write KINETIC ENERGY                      from file  10516 offset           0 length               10878 to matrix element file.
 Write ORTHOGONAL BASIS                    from file  10685 offset           0 length               21609 to matrix element file.
 Write DIPOLE INTEGRALS                    from file  10518 offset           0 length               32634 to matrix element file.
 Array DIP VEL INTEGRALS                    on  file  10572 does not exist.
 Array R X DEL INTEGRALS                    on  file  10572 does not exist.
 Write ALPHA ORBITAL ENERGIES              from file      0 offset           0 length                 147 to matrix element file.
 Write ALPHA MO COEFFICIENTS               from file  10524 offset           0 length               21609 to matrix element file.
 Write ALPHA DENSITY MATRIX                from file      0 offset           0 length               10878 to matrix element file.
 Write ALPHA FOCK MATRIX                   from file  10536 offset           0 length               10878 to matrix element file.
 Write ENERGY-WEIGHTED DENSITY             from file  10571 offset           0 length               10878 to matrix element file.
 Write ALPHA SCF DENSITY MATRIX            from file      0 offset           0 length               10878 to matrix element file.
 Write INTEGER PARAMETERS                  from file      0 offset           0 length                   2 to matrix element file.
 No 2e integrals to process.
 Perform NBO analysis...

 *********************************** NBO 7.0 ***********************************
             N A T U R A L   A T O M I C   O R B I T A L   A N D
          N A T U R A L   B O N D   O R B I T A L   A N A L Y S I S
 **************************** Robert Paton (I101709) ***************************
  (c) Copyright 1996-2019 Board of Regents of the University of Wisconsin System
      on behalf of the Theoretical Chemistry Institute.  All rights reserved.

          Cite this program [NBO 7.0.5 (4-Jun-2019)] as:

          NBO 7.0.  E. D. Glendening, J. K. Badenhoop, A. E. Reed,
          J. E. Carpenter, J. A. Bohmann, C. M. Morales, P. Karafiloglou,
          C. R. Landis, and F. Weinhold, Theoretical Chemistry Institute,
          University of Wisconsin, Madison, WI (2018)

       /AONBO  / : Checkpoint the AO to NBO transformation
                   NBOs sorted by occupancy
       /BNDIDX / : Print bond indices based on the NAO density matrix

 Filename set to /home/rpaton/opt/xtb/Gau-1516969

 Job title:  energy: -32.469090060500 gnorm: 0.000424945565 xtb: 6.7.0 (08769fc)


 NATURAL POPULATIONS:  Natural atomic orbital occupancies

  NAO Atom No lang   Type(AO)    Occupancy      Energy
 -------------------------------------------------------
   1    N  1  s      Cor( 1s)     1.99991     -14.33411
   2    N  1  s      Val( 2s)     1.58418      -0.42533
   3    N  1  s      Ryd( 3s)     0.00885       1.29334
   4    N  1  px     Val( 2p)     1.10296      -0.14524
   5    N  1  px     Ryd( 3p)     0.00017       1.37575
   6    N  1  py     Val( 2p)     1.24771      -0.16177
   7    N  1  py     Ryd( 3p)     0.00053       1.44898
   8    N  1  pz     Val( 2p)     1.33998      -0.17192
   9    N  1  pz     Ryd( 3p)     0.00099       1.49656
  10    N  1  dxy    Ryd( 3d)     0.00187       2.04304
  11    N  1  dxz    Ryd( 3d)     0.00269       2.10215
  12    N  1  dyz    Ryd( 3d)     0.00382       2.57844
  13    N  1  dx2y2  Ryd( 3d)     0.00186       2.04721
  14    N  1  dz2    Ryd( 3d)     0.00385       2.15837

  15    C  2  s      Cor( 1s)     1.99987     -10.25860
  16    C  2  s      Val( 2s)     0.82327      -0.03505
  17    C  2  s      Ryd( 3s)     0.00841       0.77002
  18    C  2  px     Val( 2p)     0.94096      -0.07924
  19    C  2  px     Ryd( 3p)     0.00348       0.97486
  20    C  2  py     Val( 2p)     0.95371      -0.00440
  21    C  2  py     Ryd( 3p)     0.01009       1.06272
  22    C  2  pz     Val( 2p)     0.96229       0.04266
  23    C  2  pz     Ryd( 3p)     0.01281       1.10701

  24    C  3  s      Cor( 1s)     1.99974     -10.29110
  25    C  3  s      Val( 2s)     0.96693      -0.12997
  26    C  3  s      Ryd( 3s)     0.00096       1.25128
  27    C  3  px     Val( 2p)     1.07742      -0.11549
  28    C  3  px     Ryd( 3p)     0.00158       1.02292
  29    C  3  py     Val( 2p)     1.13368      -0.11967
  30    C  3  py     Ryd( 3p)     0.00371       1.10219
  31    C  3  pz     Val( 2p)     1.20647      -0.13855
  32    C  3  pz     Ryd( 3p)     0.00270       1.13838

  33    C  4  s      Cor( 1s)     1.99976     -10.25638
  34    C  4  s      Val( 2s)     1.03436      -0.18674
  35    C  4  s      Ryd( 3s)     0.00066       1.21518
  36    C  4  px     Val( 2p)     1.18222      -0.11601
  37    C  4  px     Ryd( 3p)     0.00236       1.05353
  38    C  4  py     Val( 2p)     1.03116      -0.09307
  39    C  4  py     Ryd( 3p)     0.00169       0.97422
  40    C  4  pz     Val( 2p)     1.21622      -0.12461
  41    C  4  pz     Ryd( 3p)     0.00209       1.06770

  42    C  5  s      Cor( 1s)     1.99976     -10.24967
  43    C  5  s      Val( 2s)     1.02596      -0.16638
  44    C  5  s      Ryd( 3s)     0.00064       1.21339
  45    C  5  px     Val( 2p)     1.06418      -0.08379
  46    C  5  px     Ryd( 3p)     0.00190       0.92959
  47    C  5  py     Val( 2p)     1.19780      -0.11409
  48    C  5  py     Ryd( 3p)     0.00289       1.05778
  49    C  5  pz     Val( 2p)     1.21491      -0.11969
  50    C  5  pz     Ryd( 3p)     0.00115       1.04224

  51    C  6  s      Cor( 1s)     1.99991     -10.25807
  52    C  6  s      Val( 2s)     0.84584      -0.03348
  53    C  6  s      Ryd( 3s)     0.00129       0.73804
  54    C  6  px     Val( 2p)     1.08706      -0.04655
  55    C  6  px     Ryd( 3p)     0.00476       1.54121
  56    C  6  py     Val( 2p)     1.07799      -0.04927
  57    C  6  py     Ryd( 3p)     0.00375       1.24483
  58    C  6  pz     Val( 2p)     1.00215      -0.11092
  59    C  6  pz     Ryd( 3p)     0.00163       1.04412

  60    C  7  s      Cor( 1s)     1.99984     -10.25250
  61    C  7  s      Val( 2s)     0.93393      -0.06886
  62    C  7  s      Ryd( 3s)     0.00079       0.73163
  63    C  7  px     Val( 2p)     1.06992      -0.02469
  64    C  7  px     Ryd( 3p)     0.00506       1.01674
  65    C  7  py     Val( 2p)     1.18663      -0.08348
  66    C  7  py     Ryd( 3p)     0.00496       1.32241
  67    C  7  pz     Val( 2p)     1.02239      -0.11928
  68    C  7  pz     Ryd( 3p)     0.00098       0.98219

  69    C  8  s      Cor( 1s)     1.99986     -10.25409
  70    C  8  s      Val( 2s)     0.94340      -0.08419
  71    C  8  s      Ryd( 3s)     0.00091       0.72712
  72    C  8  px     Val( 2p)     1.16261      -0.06139
  73    C  8  px     Ryd( 3p)     0.00636       1.21230
  74    C  8  py     Val( 2p)     1.10913      -0.06579
  75    C  8  py     Ryd( 3p)     0.00454       1.11362
  76    C  8  pz     Val( 2p)     1.01799      -0.12226
  77    C  8  pz     Ryd( 3p)     0.00106       0.96599

  78    C  9  s      Cor( 1s)     1.99989     -10.30021
  79    C  9  s      Val( 2s)     0.93199      -0.14425
  80    C  9  s      Ryd( 3s)     0.00058       0.71462
  81    C  9  px     Val( 2p)     1.00630      -0.12350
  82    C  9  px     Ryd( 3p)     0.00687       1.32331
  83    C  9  py     Val( 2p)     1.09557      -0.08481
  84    C  9  py     Ryd( 3p)     0.00687       1.10970
  85    C  9  pz     Val( 2p)     1.07368      -0.14993
  86    C  9  pz     Ryd( 3p)     0.00171       0.96282

  87   Br 10  s      Cor( 3s)     2.00000     -19.43204
  88   Br 10  s      Cor( 1s)     2.00000    -452.33728
  89   Br 10  s      Cor( 2s)     1.99999     -79.85676
  90   Br 10  s      Val( 4s)     1.87287      -0.77298
  91   Br 10  s      Ryd( 5s)     0.00282       0.84927
  92   Br 10  px     Cor( 3p)     2.00000      -7.18554
  93   Br 10  px     Cor( 2p)     1.99999     -55.66223
  94   Br 10  px     Val( 4p)     1.21485      -0.24949
  95   Br 10  px     Ryd( 5p)     0.00323       0.73754
  96   Br 10  py     Cor( 3p)     2.00000      -7.17419
  97   Br 10  py     Cor( 2p)     1.99999     -55.65941
  98   Br 10  py     Val( 4p)     1.87604      -0.34869
  99   Br 10  py     Ryd( 5p)     0.00147       0.75621
 100   Br 10  pz     Cor( 3p)     2.00000      -7.17260
 101   Br 10  pz     Cor( 2p)     2.00000     -55.65898
 102   Br 10  pz     Val( 4p)     1.94898      -0.35993
 103   Br 10  pz     Ryd( 5p)     0.00081       0.73273
 104   Br 10  dxy    Cor( 3d)     1.99960      -2.77495
 105   Br 10  dxy    Ryd( 4d)     0.00255       0.92804
 106   Br 10  dxz    Cor( 3d)     1.99986      -2.77367
 107   Br 10  dxz    Ryd( 4d)     0.00176       0.73242
 108   Br 10  dyz    Cor( 3d)     1.99996      -2.76478
 109   Br 10  dyz    Ryd( 4d)     0.00025       0.66975
 110   Br 10  dx2y2  Cor( 3d)     1.99955      -2.77499
 111   Br 10  dx2y2  Ryd( 4d)     0.00321       0.95028
 112   Br 10  dz2    Cor( 3d)     1.99981      -2.76740
 113   Br 10  dz2    Ryd( 4d)     0.00159       0.75535

 114    C 11  s      Cor( 1s)     1.99984     -10.25770
 115    C 11  s      Val( 2s)     0.93076      -0.06957
 116    C 11  s      Ryd( 3s)     0.00106       0.71335
 117    C 11  px     Val( 2p)     1.06973      -0.03320
 118    C 11  px     Ryd( 3p)     0.00587       0.98650
 119    C 11  py     Val( 2p)     1.19604      -0.09487
 120    C 11  py     Ryd( 3p)     0.00553       1.30715
 121    C 11  pz     Val( 2p)     1.02035      -0.12479
 122    C 11  pz     Ryd( 3p)     0.00109       0.97570

 123    C 12  s      Cor( 1s)     1.99988     -10.26469
 124    C 12  s      Val( 2s)     0.83654      -0.03461
 125    C 12  s      Ryd( 3s)     0.00157       0.79407
 126    C 12  px     Val( 2p)     1.07635      -0.04552
 127    C 12  px     Ryd( 3p)     0.00484       1.48589
 128    C 12  py     Val( 2p)     1.06711      -0.06005
 129    C 12  py     Ryd( 3p)     0.00384       1.28036
 130    C 12  pz     Val( 2p)     1.02801      -0.12179
 131    C 12  pz     Ryd( 3p)     0.00163       1.06326

 132    H 13  s      Val( 1s)     0.68957       0.12880
 133    H 13  s      Ryd( 2s)     0.00128       0.59606

 134    H 14  s      Val( 1s)     0.72621       0.12864
 135    H 14  s      Ryd( 2s)     0.00095       0.61095

 136    H 15  s      Val( 1s)     0.73266       0.12089
 137    H 15  s      Ryd( 2s)     0.00154       0.60546

 138    H 16  s      Val( 1s)     0.72469       0.12443
 139    H 16  s      Ryd( 2s)     0.00137       0.61623

 140    H 17  s      Val( 1s)     0.72901       0.12555
 141    H 17  s      Ryd( 2s)     0.00104       0.60347

 142    H 18  s      Val( 1s)     0.74242       0.13709
 143    H 18  s      Ryd( 2s)     0.00077       0.60506

 144    H 19  s      Val( 1s)     0.73180       0.14424
 145    H 19  s      Ryd( 2s)     0.00119       0.60575

 146    H 20  s      Val( 1s)     0.72971       0.13959
 147    H 20  s      Ryd( 2s)     0.00121       0.61152


 Summary of Natural Population Analysis:

                                     Natural Population
             Natural    ---------------------------------------------
  Atom No    Charge        Core      Valence    Rydberg      Total
 --------------------------------------------------------------------
    N  1   -0.29937      1.99991     5.27482    0.02464     7.29937
    C  2    0.28512      1.99987     3.68023    0.03478     5.71488
    C  3   -0.39320      1.99974     4.38451    0.00895     6.39320
    C  4   -0.47052      1.99976     4.46396    0.00680     6.47052
    C  5   -0.50920      1.99976     4.50286    0.00658     6.50920
    C  6   -0.02439      1.99991     4.01304    0.01143     6.02439
    C  7   -0.22449      1.99984     4.21286    0.01179     6.22449
    C  8   -0.24587      1.99986     4.23313    0.01288     6.24587
    C  9   -0.12346      1.99989     4.10754    0.01602     6.12346
   Br 10    0.07081     27.99876     6.91273    0.01769    34.92919
    C 11   -0.23026      1.99984     4.21687    0.01355     6.23026
    C 12   -0.01977      1.99988     4.00802    0.01187     6.01977
    H 13    0.30915      0.00000     0.68957    0.00128     0.69085
    H 14    0.27284      0.00000     0.72621    0.00095     0.72716
    H 15    0.26580      0.00000     0.73266    0.00154     0.73420
    H 16    0.27394      0.00000     0.72469    0.00137     0.72606
    H 17    0.26995      0.00000     0.72901    0.00104     0.73005
    H 18    0.25681      0.00000     0.74242    0.00077     0.74319
    H 19    0.26700      0.00000     0.73180    0.00119     0.73300
    H 20    0.26909      0.00000     0.72971    0.00121     0.73091
 ====================================================================
 * Total *  0.00000     49.99704    59.81662    0.18634   110.00000

                                 Natural Population
 ---------------------------------------------------------
   Core                      49.99704 ( 99.9941% of   50)
   Valence                   59.81662 ( 99.6944% of   60)
   Natural Minimal Basis    109.81366 ( 99.8306% of  110)
   Natural Rydberg Basis      0.18634 (  0.1694% of  110)
 ---------------------------------------------------------

    Atom No         Natural Electron Configuration
 ----------------------------------------------------------------------------
      N  1      [core]2s( 1.58)2p( 3.69)3s( 0.01)3d( 0.01)
      C  2      [core]2s( 0.82)2p( 2.86)3s( 0.01)3p( 0.03)
      C  3      [core]2s( 0.97)2p( 3.42)3p( 0.01)
      C  4      [core]2s( 1.03)2p( 3.43)3p( 0.01)
      C  5      [core]2s( 1.03)2p( 3.48)3p( 0.01)
      C  6      [core]2s( 0.85)2p( 3.17)3p( 0.01)
      C  7      [core]2s( 0.93)2p( 3.28)3p( 0.01)
      C  8      [core]2s( 0.94)2p( 3.29)3p( 0.01)
      C  9      [core]2s( 0.93)2p( 3.18)3p( 0.02)
     Br 10      [core]4s( 1.87)4p( 5.04)4d( 0.01)5p( 0.01)
      C 11      [core]2s( 0.93)2p( 3.29)3p( 0.01)
      C 12      [core]2s( 0.84)2p( 3.17)3p( 0.01)
      H 13            1s( 0.69)
      H 14            1s( 0.73)
      H 15            1s( 0.73)
      H 16            1s( 0.72)
      H 17            1s( 0.73)
      H 18            1s( 0.74)
      H 19            1s( 0.73)
      H 20            1s( 0.73)


 Wiberg bond index matrix in the NAO basis:

     Atom    1       2       3       4       5       6       7       8       9
     ---- ------  ------  ------  ------  ------  ------  ------  ------  ------
   1.  N  0.0000  2.9136  0.0309  0.0231  0.0010  0.0031  0.0005  0.0018  0.0005
   2.  C  2.9136  0.0000  1.0266  0.0134  0.0009  0.0075  0.0003  0.0030  0.0003
   3.  C  0.0309  1.0266  0.0000  0.9672  0.0062  0.0117  0.0056  0.0005  0.0061
   4.  C  0.0231  0.0134  0.9672  0.0000  1.0010  0.0076  0.0049  0.0005  0.0005
   5.  C  0.0010  0.0009  0.0062  1.0010  0.0000  1.0046  0.0135  0.0065  0.0011
   6.  C  0.0031  0.0075  0.0117  0.0076  1.0046  0.0000  1.4073  0.0123  0.1009
   7.  C  0.0005  0.0003  0.0056  0.0049  0.0135  1.4073  0.0000  1.4231  0.0141
   8.  C  0.0018  0.0030  0.0005  0.0005  0.0065  0.0123  1.4231  0.0000  1.4100
   9.  C  0.0005  0.0003  0.0061  0.0005  0.0011  0.1009  0.0141  1.4100  0.0000
  10. Br  0.0002  0.0000  0.0011  0.0004  0.0004  0.0125  0.0121  0.0354  1.0317
  11.  C  0.0027  0.0063  0.0114  0.0045  0.0058  0.0147  0.1093  0.0145  1.3996
  12.  C  0.0191  0.0159  0.9671  0.0094  0.0126  1.3619  0.0141  0.1049  0.0147
  13.  H  0.0201  0.0039  0.8565  0.0034  0.0045  0.0065  0.0001  0.0018  0.0002
  14.  H  0.0002  0.0017  0.0011  0.9083  0.0021  0.0049  0.0001  0.0003  0.0003
  15.  H  0.0019  0.0054  0.0020  0.9076  0.0028  0.0002  0.0001  0.0000  0.0000
  16.  H  0.0001  0.0006  0.0001  0.0030  0.8904  0.0025  0.0077  0.0001  0.0041
  17.  H  0.0002  0.0004  0.0049  0.0021  0.9024  0.0023  0.0034  0.0001  0.0019
  18.  H  0.0001  0.0000  0.0003  0.0001  0.0024  0.0046  0.9065  0.0045  0.0058
  19.  H  0.0000  0.0000  0.0002  0.0002  0.0002  0.0057  0.0049  0.9010  0.0044
  20.  H  0.0003  0.0001  0.0024  0.0001  0.0003  0.0067  0.0002  0.0057  0.0046

     Atom   10      11      12      13      14      15      16      17      18
     ---- ------  ------  ------  ------  ------  ------  ------  ------  ------
   1.  N  0.0002  0.0027  0.0191  0.0201  0.0002  0.0019  0.0001  0.0002  0.0001
   2.  C  0.0000  0.0063  0.0159  0.0039  0.0017  0.0054  0.0006  0.0004  0.0000
   3.  C  0.0011  0.0114  0.9671  0.8565  0.0011  0.0020  0.0001  0.0049  0.0003
   4.  C  0.0004  0.0045  0.0094  0.0034  0.9083  0.9076  0.0030  0.0021  0.0001
   5.  C  0.0004  0.0058  0.0126  0.0045  0.0021  0.0028  0.8904  0.9024  0.0024
   6.  C  0.0125  0.0147  1.3619  0.0065  0.0049  0.0002  0.0025  0.0023  0.0046
   7.  C  0.0121  0.1093  0.0141  0.0001  0.0001  0.0001  0.0077  0.0034  0.9065
   8.  C  0.0354  0.0145  0.1049  0.0018  0.0003  0.0000  0.0001  0.0001  0.0045
   9.  C  1.0317  1.3996  0.0147  0.0002  0.0003  0.0000  0.0041  0.0019  0.0058
  10. Br  0.0000  0.0348  0.0112  0.0000  0.0001  0.0000  0.0006  0.0003  0.0009
  11.  C  0.0348  0.0000  1.4114  0.0030  0.0002  0.0001  0.0001  0.0001  0.0001
  12.  C  0.0112  1.4114  0.0000  0.0034  0.0047  0.0001  0.0091  0.0072  0.0069
  13.  H  0.0000  0.0030  0.0034  0.0000  0.0001  0.0022  0.0002  0.0000  0.0001
  14.  H  0.0001  0.0002  0.0047  0.0001  0.0000  0.0009  0.0018  0.0000  0.0000
  15.  H  0.0000  0.0001  0.0001  0.0022  0.0009  0.0000  0.0060  0.0023  0.0000
  16.  H  0.0006  0.0001  0.0091  0.0002  0.0018  0.0060  0.0000  0.0007  0.0000
  17.  H  0.0003  0.0001  0.0072  0.0000  0.0000  0.0023  0.0007  0.0000  0.0002
  18.  H  0.0009  0.0001  0.0069  0.0001  0.0000  0.0000  0.0000  0.0002  0.0000
  19.  H  0.0051  0.0058  0.0002  0.0000  0.0000  0.0000  0.0000  0.0000  0.0023
  20.  H  0.0049  0.8979  0.0053  0.0001  0.0000  0.0000  0.0000  0.0001  0.0003

     Atom   19      20
     ---- ------  ------
   1.  N  0.0000  0.0003
   2.  C  0.0000  0.0001
   3.  C  0.0002  0.0024
   4.  C  0.0002  0.0001
   5.  C  0.0002  0.0003
   6.  C  0.0057  0.0067
   7.  C  0.0049  0.0002
   8.  C  0.9010  0.0057
   9.  C  0.0044  0.0046
  10. Br  0.0051  0.0049
  11.  C  0.0058  0.8979
  12.  C  0.0002  0.0053
  13.  H  0.0000  0.0001
  14.  H  0.0000  0.0000
  15.  H  0.0000  0.0000
  16.  H  0.0000  0.0000
  17.  H  0.0000  0.0001
  18.  H  0.0023  0.0003
  19.  H  0.0000  0.0003
  20.  H  0.0003  0.0000


 Wiberg bond index, Totals by atom:

     Atom    1
     ---- ------
   1.  N  3.0195
   2.  C  3.9999
   3.  C  3.9019
   4.  C  3.8574
   5.  C  3.8588
   6.  C  3.9776
   7.  C  3.9280
   8.  C  3.9260
   9.  C  4.0009
  10. Br  1.1517
  11.  C  3.9221
  12.  C  3.9792
  13.  H  0.9062
  14.  H  0.9269
  15.  H  0.9316
  16.  H  0.9269
  17.  H  0.9286
  18.  H  0.9352
  19.  H  0.9305
  20.  H  0.9294


 NBI: Natural Binding Index (NCU strength parameters)

     Atom    1       2       3       4       5       6       7       8       9
     ---- ------  ------  ------  ------  ------  ------  ------  ------  ------
   1.  N  0.0000  1.7069  0.1759  0.1521  0.0316  0.0561  0.0234  0.0427  0.0216
   2.  C  1.7069  0.0000  1.0132  0.1159  0.0300  0.0867  0.0177  0.0543  0.0179
   3.  C  0.1759  1.0132  0.0000  0.9835  0.0789  0.1081  0.0751  0.0217  0.0783
   4.  C  0.1521  0.1159  0.9835  0.0000  1.0005  0.0869  0.0702  0.0225  0.0227
   5.  C  0.0316  0.0300  0.0789  1.0005  0.0000  1.0023  0.1162  0.0806  0.0338
   6.  C  0.0561  0.0867  0.1081  0.0869  1.0023  0.0000  1.1863  0.1107  0.3176
   7.  C  0.0234  0.0177  0.0751  0.0702  0.1162  1.1863  0.0000  1.1929  0.1188
   8.  C  0.0427  0.0543  0.0217  0.0225  0.0806  0.1107  1.1929  0.0000  1.1874
   9.  C  0.0216  0.0179  0.0783  0.0227  0.0338  0.3176  0.1188  1.1874  0.0000
  10. Br  0.0128  0.0056  0.0330  0.0206  0.0210  0.1116  0.1100  0.1881  1.0157
  11.  C  0.0517  0.0794  0.1068  0.0674  0.0761  0.1211  0.3306  0.1205  1.1830
  12.  C  0.1384  0.1259  0.9834  0.0968  0.1121  1.1670  0.1189  0.3239  0.1212
  13.  H  0.1417  0.0627  0.9255  0.0586  0.0669  0.0808  0.0107  0.0426  0.0131
  14.  H  0.0135  0.0413  0.0334  0.9531  0.0460  0.0702  0.0112  0.0185  0.0168
  15.  H  0.0440  0.0732  0.0444  0.9527  0.0530  0.0137  0.0091  0.0045  0.0038
  16.  H  0.0115  0.0240  0.0089  0.0547  0.9436  0.0496  0.0878  0.0082  0.0637
  17.  H  0.0136  0.0202  0.0699  0.0456  0.9499  0.0484  0.0587  0.0097  0.0439
  18.  H  0.0092  0.0055  0.0175  0.0095  0.0491  0.0678  0.9521  0.0672  0.0761
  19.  H  0.0028  0.0029  0.0142  0.0134  0.0156  0.0758  0.0699  0.9492  0.0665
  20.  H  0.0180  0.0080  0.0488  0.0092  0.0171  0.0821  0.0123  0.0752  0.0681

     Atom   10      11      12      13      14      15      16      17      18
     ---- ------  ------  ------  ------  ------  ------  ------  ------  ------
   1.  N  0.0128  0.0517  0.1384  0.1417  0.0135  0.0440  0.0115  0.0136  0.0092
   2.  C  0.0056  0.0794  0.1259  0.0627  0.0413  0.0732  0.0240  0.0202  0.0055
   3.  C  0.0330  0.1068  0.9834  0.9255  0.0334  0.0444  0.0089  0.0699  0.0175
   4.  C  0.0206  0.0674  0.0968  0.0586  0.9531  0.9527  0.0547  0.0456  0.0095
   5.  C  0.0210  0.0761  0.1121  0.0669  0.0460  0.0530  0.9436  0.9499  0.0491
   6.  C  0.1116  0.1211  1.1670  0.0808  0.0702  0.0137  0.0496  0.0484  0.0678
   7.  C  0.1100  0.3306  0.1189  0.0107  0.0112  0.0091  0.0878  0.0587  0.9521
   8.  C  0.1881  0.1205  0.3239  0.0426  0.0185  0.0045  0.0082  0.0097  0.0672
   9.  C  1.0157  1.1830  0.1212  0.0131  0.0168  0.0038  0.0637  0.0439  0.0761
  10. Br  0.0000  0.1865  0.1059  0.0065  0.0095  0.0022  0.0236  0.0163  0.0306
  11.  C  0.1865  0.0000  1.1880  0.0545  0.0125  0.0077  0.0090  0.0104  0.0106
  12.  C  0.1059  1.1880  0.0000  0.0584  0.0687  0.0098  0.0952  0.0846  0.0830
  13.  H  0.0065  0.0545  0.0584  0.0000  0.0071  0.0474  0.0143  0.0027  0.0106
  14.  H  0.0095  0.0125  0.0687  0.0071  0.0000  0.0299  0.0424  0.0053  0.0056
  15.  H  0.0022  0.0077  0.0098  0.0474  0.0299  0.0000  0.0775  0.0479  0.0008
  16.  H  0.0236  0.0090  0.0952  0.0143  0.0424  0.0775  0.0000  0.0272  0.0065
  17.  H  0.0163  0.0104  0.0846  0.0027  0.0053  0.0479  0.0272  0.0000  0.0125
  18.  H  0.0306  0.0106  0.0830  0.0106  0.0056  0.0008  0.0065  0.0125  0.0000
  19.  H  0.0713  0.0763  0.0144  0.0011  0.0045  0.0015  0.0012  0.0028  0.0477
  20.  H  0.0703  0.9476  0.0728  0.0111  0.0059  0.0006  0.0052  0.0114  0.0167

     Atom   19      20
     ---- ------  ------
   1.  N  0.0028  0.0180
   2.  C  0.0029  0.0080
   3.  C  0.0142  0.0488
   4.  C  0.0134  0.0092
   5.  C  0.0156  0.0171
   6.  C  0.0758  0.0821
   7.  C  0.0699  0.0123
   8.  C  0.9492  0.0752
   9.  C  0.0665  0.0681
  10. Br  0.0713  0.0703
  11.  C  0.0763  0.9476
  12.  C  0.0144  0.0728
  13.  H  0.0011  0.0111
  14.  H  0.0045  0.0059
  15.  H  0.0015  0.0006
  16.  H  0.0012  0.0052
  17.  H  0.0028  0.0114
  18.  H  0.0477  0.0167
  19.  H  0.0000  0.0173
  20.  H  0.0173  0.0000


 NATURAL BOND ORBITAL ANALYSIS:

                            Occupancies       Lewis Structure    Low   High
         Max    Occ     -------------------  -----------------   occ   occ
  Cycle  Ctr   Thresh    Lewis   non-Lewis     CR  BD  nC  LP    (L)   (NL)
 ============================================================================
    1     2     1.90   106.48362   3.51638     25  23   0   7     3      3
    2     2     1.68   107.09847   2.90153     25  24   0   6     2      3
    3     2     1.67   107.75060   2.24940     25  25   0   5     1      3
    4     2     1.66   107.75060   2.24940     25  25   0   5     1      3
    5     2     1.64   108.40303   1.59697     25  26   0   4     0      3
 ----------------------------------------------------------------------------

 Structure accepted: No low occupancy Lewis orbitals

 -------------------------------------------------------
   Core                     49.99704 ( 99.994% of  50)
   Valence Lewis            58.40599 ( 97.343% of  60)
  ==================      =============================
   Total Lewis             108.40303 ( 98.548% of 110)
  -----------------------------------------------------
   Valence non-Lewis         1.47827 (  1.344% of 110)
   Rydberg non-Lewis         0.11870 (  0.108% of 110)
  ==================      =============================
   Total non-Lewis           1.59697 (  1.452% of 110)
 -------------------------------------------------------


     (Occupancy)   Bond orbital / Coefficients / Hybrids
 ------------------ Lewis ------------------------------------------------------
   1. (1.99991) CR ( 1) N  1            s(100.00%)
                                         1.0000  0.0000  0.0000  0.0000  0.0000
                                         0.0000  0.0000  0.0000  0.0000  0.0000
                                         0.0000  0.0000  0.0000  0.0000
   2. (1.99987) CR ( 1) C  2            s(100.00%)
                                         1.0000  0.0000  0.0000  0.0000  0.0000
                                         0.0000  0.0000  0.0000  0.0000
   3. (1.99974) CR ( 1) C  3            s(100.00%)
                                         1.0000  0.0000  0.0000  0.0000  0.0000
                                         0.0000  0.0000  0.0000  0.0000
   4. (1.99976) CR ( 1) C  4            s(100.00%)
                                         1.0000  0.0000  0.0000  0.0000  0.0000
                                         0.0000  0.0000  0.0000  0.0000
   5. (1.99976) CR ( 1) C  5            s(100.00%)
                                         1.0000  0.0000  0.0000  0.0000  0.0000
                                         0.0000  0.0000  0.0000  0.0000
   6. (1.99991) CR ( 1) C  6            s(100.00%)
                                         1.0000  0.0000  0.0000  0.0000  0.0000
                                         0.0000  0.0000  0.0000  0.0000
   7. (1.99984) CR ( 1) C  7            s(100.00%)
                                         1.0000  0.0000  0.0000  0.0000  0.0000
                                         0.0000  0.0000  0.0000  0.0000
   8. (1.99986) CR ( 1) C  8            s(100.00%)
                                         1.0000  0.0000  0.0000  0.0000  0.0000
                                         0.0000  0.0000  0.0000  0.0000
   9. (1.99989) CR ( 1) C  9            s(100.00%)
                                         1.0000  0.0000  0.0000  0.0000  0.0000
                                         0.0000  0.0000  0.0000  0.0000
  10. (2.00000) CR ( 1)Br 10            s(100.00%)
                                         1.0000  0.0000  0.0000  0.0000  0.0000
                                         0.0000  0.0000  0.0000  0.0000  0.0000
                                         0.0000  0.0000  0.0000  0.0000  0.0000
                                         0.0000  0.0000  0.0000  0.0000  0.0000
                                         0.0000  0.0000  0.0000  0.0000  0.0000
                                         0.0000  0.0000
  11. (2.00000) CR ( 2)Br 10            s(100.00%)
                                         0.0000  1.0000  0.0000  0.0000  0.0000
                                         0.0000  0.0000  0.0000  0.0000  0.0000
                                         0.0000  0.0000  0.0000  0.0000  0.0000
                                         0.0000  0.0000  0.0000  0.0000  0.0000
                                         0.0000  0.0000  0.0000  0.0000  0.0000
                                         0.0000  0.0000
  12. (1.99999) CR ( 3)Br 10            s(100.00%)
                                         0.0000  0.0000  1.0000  0.0000  0.0000
                                         0.0000  0.0000  0.0000  0.0000  0.0000
                                         0.0000  0.0000  0.0000  0.0000  0.0000
                                         0.0000  0.0000  0.0000  0.0000  0.0000
                                         0.0000  0.0000  0.0000  0.0000  0.0000
                                         0.0000  0.0000
  13. (2.00000) CR ( 4)Br 10            s(  0.00%)p 1.00(100.00%)
                                         0.0000  0.0000  0.0000  0.0000  0.0000
                                         1.0000  0.0000  0.0000  0.0000  0.0000
                                         0.0000  0.0000  0.0000  0.0000  0.0000
                                         0.0000  0.0000  0.0000  0.0000  0.0000
                                         0.0000  0.0000  0.0000  0.0000  0.0000
                                         0.0000  0.0000
  14. (1.99999) CR ( 5)Br 10            s(  0.00%)p 1.00(100.00%)
                                         0.0000  0.0000  0.0000  0.0000  0.0000
                                         0.0000  1.0000  0.0000  0.0000  0.0000
                                         0.0000  0.0000  0.0000  0.0000  0.0000
                                         0.0000  0.0000  0.0000  0.0000  0.0000
                                         0.0000  0.0000  0.0000  0.0000  0.0000
                                         0.0000  0.0000
  15. (2.00000) CR ( 6)Br 10            s(  0.00%)p 1.00(100.00%)
                                         0.0000  0.0000  0.0000  0.0000  0.0000
                                         0.0000  0.0000  0.0000  0.0000  1.0000
                                         0.0000  0.0000  0.0000  0.0000  0.0000
                                         0.0000  0.0000  0.0000  0.0000  0.0000
                                         0.0000  0.0000  0.0000  0.0000  0.0000
                                         0.0000  0.0000
  16. (1.99999) CR ( 7)Br 10            s(  0.00%)p 1.00(100.00%)
                                         0.0000  0.0000  0.0000  0.0000  0.0000
                                         0.0000  0.0000  0.0000  0.0000  0.0000
                                         1.0000  0.0000  0.0000  0.0000  0.0000
                                         0.0000  0.0000  0.0000  0.0000  0.0000
                                         0.0000  0.0000  0.0000  0.0000  0.0000
                                         0.0000  0.0000
  17. (2.00000) CR ( 8)Br 10            s(  0.00%)p 1.00(100.00%)
                                         0.0000  0.0000  0.0000  0.0000  0.0000
                                         0.0000  0.0000  0.0000  0.0000  0.0000
                                         0.0000  0.0000  0.0000  1.0000  0.0000
                                         0.0000  0.0000  0.0000  0.0000  0.0000
                                         0.0000  0.0000  0.0000  0.0000  0.0000
                                         0.0000  0.0000
  18. (2.00000) CR ( 9)Br 10            s(  0.00%)p 1.00(100.00%)
                                         0.0000  0.0000  0.0000  0.0000  0.0000
                                         0.0000  0.0000  0.0000  0.0000  0.0000
                                         0.0000  0.0000  0.0000  0.0000  1.0000
                                         0.0000  0.0000  0.0000  0.0000  0.0000
                                         0.0000  0.0000  0.0000  0.0000  0.0000
                                         0.0000  0.0000
  19. (1.99960) CR (10)Br 10            s(  0.00%)p 0.00(  0.00%)d 1.00(100.00%)
                                         0.0000  0.0000  0.0000  0.0000  0.0000
                                         0.0000  0.0000  0.0000  0.0000  0.0000
                                         0.0000  0.0000  0.0000  0.0000  0.0000
                                         0.0000  0.0000  1.0000  0.0000  0.0000
                                         0.0000  0.0000  0.0000  0.0000  0.0000
                                         0.0000  0.0000
  20. (1.99986) CR (11)Br 10            s(  0.00%)p 0.00(  0.00%)d 1.00(100.00%)
                                         0.0000  0.0000  0.0000  0.0000  0.0000
                                         0.0000  0.0000  0.0000  0.0000  0.0000
                                         0.0000  0.0000  0.0000  0.0000  0.0000
                                         0.0000  0.0000  0.0000  0.0000  1.0000
                                         0.0000  0.0000  0.0000  0.0000  0.0000
                                         0.0000  0.0000
  21. (1.99996) CR (12)Br 10            s(  0.00%)p 0.00(  0.00%)d 1.00(100.00%)
                                         0.0000  0.0000  0.0000  0.0000  0.0000
                                         0.0000  0.0000  0.0000  0.0000  0.0000
                                         0.0000  0.0000  0.0000  0.0000  0.0000
                                         0.0000  0.0000  0.0000  0.0000  0.0000
                                         0.0000  1.0000  0.0000  0.0000  0.0000
                                         0.0000  0.0000
  22. (1.99955) CR (13)Br 10            s(  0.00%)p 0.00(  0.00%)d 1.00(100.00%)
                                         0.0000  0.0000  0.0000  0.0000  0.0000
                                         0.0000  0.0000  0.0000  0.0000  0.0000
                                         0.0000  0.0000  0.0000  0.0000  0.0000
                                         0.0000  0.0000  0.0000  0.0000  0.0000
                                         0.0000  0.0000  0.0000  1.0000  0.0000
                                         0.0000  0.0000
  23. (1.99981) CR (14)Br 10            s(  0.00%)p 0.00(  0.00%)d 1.00(100.00%)
                                         0.0000  0.0000  0.0000  0.0000  0.0000
                                         0.0000  0.0000  0.0000  0.0000  0.0000
                                         0.0000  0.0000  0.0000  0.0000  0.0000
                                         0.0000  0.0000  0.0000  0.0000  0.0000
                                         0.0000  0.0000  0.0000  0.0000  0.0000
                                         1.0000  0.0000
  24. (1.99984) CR ( 1) C 11            s(100.00%)
                                         1.0000  0.0000  0.0000  0.0000  0.0000
                                         0.0000  0.0000  0.0000  0.0000
  25. (1.99988) CR ( 1) C 12            s(100.00%)
                                         1.0000  0.0000  0.0000  0.0000  0.0000
                                         0.0000  0.0000  0.0000  0.0000
  26. (1.97424) LP ( 1) N  1            s( 51.78%)p 0.93( 48.15%)d 0.00(  0.07%)
                                         0.0000  0.7189 -0.0312 -0.1758  0.0046
                                        -0.4233  0.0107 -0.5207  0.0128 -0.0071
                                        -0.0086 -0.0211  0.0071 -0.0092
  27. (1.99732) LP ( 1)Br 10            s( 87.60%)p 0.14( 12.40%)d 0.00(  0.00%)
                                         0.0000  0.0000  0.0000  0.9359 -0.0094
                                         0.0000  0.0000  0.3309  0.0127  0.0000
                                         0.0000 -0.1188 -0.0047  0.0000  0.0000
                                         0.0152  0.0004  0.0000  0.0024  0.0000
                                        -0.0005  0.0000 -0.0007  0.0000 -0.0027
                                         0.0000  0.0011
  28. (1.98236) LP ( 2)Br 10            s(  0.00%)p 1.00( 99.98%)d 0.00(  0.02%)
                                         0.0000  0.0000  0.0000  0.0007 -0.0001
                                         0.0000  0.0000 -0.3315  0.0054  0.0000
                                         0.0000 -0.8715  0.0139  0.0000  0.0000
                                         0.3607 -0.0058  0.0000  0.0104  0.0000
                                        -0.0049  0.0000  0.0021  0.0000  0.0091
                                         0.0000 -0.0003
  29. (1.94659) LP ( 3)Br 10            s(  0.00%)p 1.00( 99.97%)d 0.00(  0.03%)
                                         0.0000  0.0000  0.0000  0.0013  0.0003
                                         0.0000  0.0000 -0.0873  0.0012  0.0000
                                         0.0000 -0.3524  0.0049  0.0000  0.0000
                                        -0.9315  0.0129  0.0000  0.0049  0.0000
                                         0.0142  0.0000 -0.0051  0.0000  0.0033
                                         0.0000  0.0008
  30. (1.99520) BD ( 1) N  1- C  2
               ( 58.40%)   0.7642* N  1 s( 48.48%)p 1.06( 51.18%)d 0.01(  0.34%)
                                         0.0000  0.6939  0.0577  0.2098  0.0032
                                         0.4410  0.0069  0.5226  0.0088  0.0167
                                         0.0204  0.0460 -0.0154  0.0190
               ( 41.60%)   0.6450* C  2 s( 46.63%)p 1.14( 53.37%)
                                         0.0000  0.6808 -0.0526 -0.1528 -0.0222
                                        -0.4372 -0.0530 -0.5582 -0.0654
  31. (1.98959) BD ( 2) N  1- C  2
               ( 53.35%)   0.7304* N  1 s(  0.01%)p 1.00( 99.59%)d 0.00(  0.41%)
                                         0.0000  0.0070  0.0017  0.0789  0.0005
                                        -0.7802 -0.0057  0.6171  0.0042 -0.0094
                                         0.0137 -0.0133  0.0318  0.0512
               ( 46.65%)   0.6830* C  2 s(  0.01%)p99.99( 99.99%)
                                         0.0000  0.0096 -0.0043  0.0758 -0.0018
                                        -0.7891  0.0187  0.6090 -0.0118
  32. (1.98780) BD ( 3) N  1- C  2
               ( 53.51%)   0.7315* N  1 s(  0.05%)p99.99( 99.55%)d 8.96(  0.41%)
                                         0.0000  0.0213  0.0020 -0.9563 -0.0068
                                         0.1107  0.0009  0.2620  0.0019 -0.0356
                                        -0.0419  0.0157 -0.0196  0.0209
               ( 46.49%)   0.6819* C  2 s(  0.04%)p99.99( 99.96%)
                                         0.0000  0.0206 -0.0007 -0.9701  0.0210
                                         0.0820 -0.0035  0.2266 -0.0055
  33. (1.97832) BD ( 1) C  2- C  3
               ( 48.40%)   0.6957* C  2 s( 53.15%)p 0.88( 46.85%)
                                         0.0000  0.7279  0.0403  0.1706 -0.0072
                                         0.4200 -0.0223  0.5122 -0.0117
               ( 51.60%)   0.7183* C  3 s( 24.53%)p 3.08( 75.47%)
                                         0.0000  0.4953  0.0063 -0.2280 -0.0105
                                        -0.5482 -0.0273 -0.6335 -0.0060
  34. (1.96477) BD ( 1) C  3- C  4
               ( 52.67%)   0.7257* C  3 s( 25.40%)p 2.94( 74.60%)
                                         0.0000  0.5039 -0.0078 -0.5988 -0.0050
                                         0.6170 -0.0171  0.0760  0.0248
               ( 47.33%)   0.6880* C  4 s( 24.90%)p 3.02( 75.10%)
                                         0.0000  0.4990  0.0032  0.5333 -0.0056
                                        -0.6811 -0.0218 -0.0456  0.0119
  35. (1.95866) BD ( 1) C  3- C 12
               ( 51.23%)   0.7158* C  3 s( 25.68%)p 2.89( 74.32%)
                                         0.0000  0.5068 -0.0010  0.7655  0.0152
                                         0.3510 -0.0054 -0.1832  0.0160
               ( 48.77%)   0.6983* C 12 s( 29.98%)p 2.34( 70.02%)
                                         0.0000  0.5475 -0.0091 -0.6716  0.0278
                                        -0.4433 -0.0085  0.2274  0.0065
  36. (1.96299) BD ( 1) C  3- H 13
               ( 65.46%)   0.8091* C  3 s( 24.36%)p 3.11( 75.64%)
                                         0.0000  0.4935  0.0040  0.0548 -0.0039
                                        -0.4410  0.0143  0.7473 -0.0149
               ( 34.54%)   0.5877* H 13 s(100.00%)
                                         1.0000  0.0027
  37. (1.98410) BD ( 1) C  4- C  5
               ( 50.02%)   0.7072* C  4 s( 26.07%)p 2.84( 73.93%)
                                         0.0000  0.5106  0.0010  0.2822 -0.0190
                                         0.6289  0.0174 -0.5133 -0.0043
               ( 49.98%)   0.7070* C  5 s( 25.59%)p 2.91( 74.41%)
                                         0.0000  0.5059  0.0012 -0.3655 -0.0217
                                        -0.5944  0.0103  0.5066  0.0055
  38. (1.98832) BD ( 1) C  4- H 14
               ( 63.70%)   0.7981* C  4 s( 25.16%)p 2.97( 74.84%)
                                         0.0000  0.5016  0.0015 -0.7970  0.0054
                                        -0.2409  0.0088 -0.2343  0.0140
               ( 36.30%)   0.6025* H 14 s(100.00%)
                                         1.0000  0.0009
  39. (1.98457) BD ( 1) C  4- H 15
               ( 63.35%)   0.7959* C  4 s( 23.83%)p 3.20( 76.17%)
                                         0.0000  0.4882 -0.0042 -0.0217 -0.0169
                                         0.2856 -0.0035  0.8242 -0.0071
               ( 36.65%)   0.6054* H 15 s(100.00%)
                                         1.0000  0.0014
  40. (1.97683) BD ( 1) C  5- C  6
               ( 49.20%)   0.7014* C  5 s( 26.25%)p 2.81( 73.75%)
                                         0.0000  0.5123  0.0086  0.8504  0.0209
                                        -0.1129  0.0108 -0.0297 -0.0062
               ( 50.80%)   0.7128* C  6 s( 31.15%)p 2.21( 68.85%)
                                         0.0000  0.5580 -0.0085 -0.7965  0.0224
                                         0.2301  0.0202 -0.0140 -0.0124
  41. (1.97431) BD ( 1) C  5- H 16
               ( 63.71%)   0.7982* C  5 s( 23.41%)p 3.27( 76.59%)
                                         0.0000  0.4838 -0.0064 -0.3293 -0.0032
                                        -0.0734  0.0136 -0.8073  0.0095
               ( 36.29%)   0.6024* H 16 s(100.00%)
                                         1.0000  0.0022
  42. (1.98239) BD ( 1) C  5- H 17
               ( 63.53%)   0.7971* C  5 s( 24.74%)p 3.04( 75.26%)
                                         0.0000  0.4974  0.0000 -0.1838 -0.0045
                                         0.7925 -0.0102  0.3007 -0.0111
               ( 36.47%)   0.6039* H 17 s(100.00%)
                                         1.0000  0.0013
  43. (1.97473) BD ( 1) C  6- C  7
               ( 51.20%)   0.7155* C  6 s( 36.49%)p 1.74( 63.51%)
                                         0.0000  0.6039  0.0123  0.5710 -0.0101
                                         0.4960  0.0199 -0.2502 -0.0064
               ( 48.80%)   0.6986* C  7 s( 35.43%)p 1.82( 64.57%)
                                         0.0000  0.5951  0.0115 -0.6256 -0.0332
                                        -0.4476  0.0060  0.2298  0.0011
  44. (1.64955) BD ( 2) C  6- C  7
               ( 49.62%)   0.7044* C  6 s(  0.00%)p 1.00(100.00%)
                                         0.0000  0.0056 -0.0039  0.0910  0.0004
                                         0.3575  0.0001  0.9294 -0.0013
               ( 50.38%)   0.7098* C  7 s(  0.00%)p 1.00(100.00%)
                                         0.0000  0.0021 -0.0008  0.0908 -0.0013
                                         0.3539 -0.0021  0.9309 -0.0070
  45. (1.96615) BD ( 1) C  6- C 12
               ( 49.72%)   0.7051* C  6 s( 32.34%)p 2.09( 67.66%)
                                         0.0000  0.5686 -0.0022  0.1749  0.0036
                                        -0.7568 -0.0084  0.2706  0.0027
               ( 50.28%)   0.7091* C 12 s( 33.21%)p 2.01( 66.79%)
                                         0.0000  0.5763 -0.0021 -0.1247  0.0021
                                         0.7593  0.0095 -0.2751 -0.0030
  46. (1.97257) BD ( 1) C  7- C  8
               ( 49.88%)   0.7063* C  7 s( 35.11%)p 1.85( 64.89%)
                                         0.0000  0.5925  0.0064  0.7600  0.0277
                                        -0.2635  0.0203  0.0247 -0.0106
               ( 50.12%)   0.7079* C  8 s( 35.58%)p 1.81( 64.42%)
                                         0.0000  0.5964  0.0055 -0.7439 -0.0077
                                         0.2965  0.0329 -0.0403 -0.0117
  47. (1.98239) BD ( 1) C  7- H 18
               ( 62.92%)   0.7932* C  7 s( 29.49%)p 2.39( 70.51%)
                                         0.0000  0.5429 -0.0126 -0.1441  0.0063
                                         0.7771 -0.0204 -0.2826  0.0069
               ( 37.08%)   0.6089* H 18 s(100.00%)
                                         1.0000  0.0021
  48. (1.98035) BD ( 1) C  8- C  9
               ( 49.09%)   0.7007* C  8 s( 34.89%)p 1.87( 65.11%)
[...]
                                                     138(v),60(g),65(v),99(v)
                                                     62(g)
   34. BD ( 1) C  3- C  4       1.96477    -0.62946  58(v),56(v),79(v),57(v)
                                                     59(g),61(g),92(v),62(g)
                                                     68(v),66(v),137(v),93(v)
                                                     71(v),63(g),104(v),64(g)
   35. BD ( 1) C  3- C 12       1.95866    -0.64859  58(v),79(g),56(v),69(v)
                                                     71(g),59(g),132(v),107(v)
                                                     93(v),62(g),78(v),60(g)
                                                     64(v),57(v),92(v),63(v)
                                                     66(v)
   36. BD ( 1) C  3- H 13       1.96299    -0.58887  57(v),56(v),80(v),63(v)
                                                     71(v),59(g),61(g),94(v)
                                                     60(g),91(v)
   37. BD ( 1) C  4- C  5       1.98410    -0.62626  69(v),62(v),61(v),66(g)
                                                     64(g),67(g),68(g),108(v)
                                                     71(v),65(g),60(g),97(v)
   38. BD ( 1) C  4- H 14       1.98832    -0.57953  66(v),61(v),59(v),105(v)
   39. BD ( 1) C  4- H 15       1.98457    -0.57501  59(v),67(v),103(v)
   40. BD ( 1) C  5- C  6       1.97683    -0.64295  69(g),79(v),71(g),111(v)
                                                     136(v),72(v),64(v),60(v)
                                                     68(g),63(g),67(g),61(v)
   41. BD ( 1) C  5- H 16       1.97431    -0.56730  70(v),65(v),66(g),99(v)
                                                     109(v)
   42. BD ( 1) C  5- H 17       1.98239    -0.57463  70(v),60(v),71(v),66(g)
                                                     65(v)
   43. BD ( 1) C  6- C  7       1.97473    -0.70940  71(g),72(g),66(g),116(v)
                                                     73(g),61(v),76(v),136(v)
                                                     137(v),103(v),115(v)
   44. BD ( 2) C  6- C  7       1.64955    -0.32215  75(v),80(v),67(v),68(v)
                                                     118(v),138(v)
   45. BD ( 1) C  6- C 12       1.96615    -0.69445  79(g),69(g),61(g),66(g)
                                                     73(v),133(v),81(v),112(v)
                                                     111(v),103(v),63(v),60(v)
                                                     62(v),96(v),68(v),95(v)
   46. BD ( 1) C  7- C  8       1.97257    -0.70450  77(v),66(v),69(g),74(g)
                                                     108(v),119(v),76(g),73(g)
                                                     120(v)
   47. BD ( 1) C  7- H 18       1.98239    -0.58846  71(v),74(v),107(v),115(v)
                                                     69(g),72(g),66(v)
   48. BD ( 1) C  8- C  9       1.98035    -0.73140  78(g),72(g),76(g),81(v)
                                                     112(v),73(v),132(v),111(v)
                                                     133(v)
   49. BD ( 2) C  8- C  9       1.68334    -0.33886  80(v),70(v),123(v),135(v)
                                                     114(v)
   50. BD ( 1) C  8- H 19       1.98155    -0.58771  78(v),69(v),120(v),111(v)
                                                     72(g),74(g),77(v)
   51. BD ( 1) C  9-Br 10       1.98708    -0.63050  115(v),132(v),72(v),79(v)
   52. BD ( 1) C  9- C 11       1.97824    -0.72798  74(g),61(v),79(g),137(v)
                                                     81(g),76(v),115(v),116(v)
                                                     136(v)
   53. BD ( 1) C 11- C 12       1.96910    -0.71457  71(g),77(v),78(g),61(g)
                                                     81(g),119(v),107(v),66(v)
                                                     95(v),120(v),108(v)
   54. BD ( 2) C 11- C 12       1.67176    -0.32972  75(v),70(v),59(v),58(r)
                                                     62(v),121(v),109(v)
   55. BD ( 1) C 11- H 20       1.98082    -0.59149  71(v),74(v),136(v),120(v)
                                                     79(g),78(g),77(v),61(v)
 ------ non-Lewis ----------------------------------
   56. BD*( 1) N  1- C  2       0.01038     1.02152
   57. BD*( 2) N  1- C  2       0.02740     0.18301
   58. BD*( 3) N  1- C  2       0.02904     0.18608
   59. BD*( 1) C  2- C  3       0.02908     0.56052
   60. BD*( 1) C  3- C  4       0.01853     0.41730
   61. BD*( 1) C  3- C 12       0.02953     0.47537
   62. BD*( 1) C  3- H 13       0.01763     0.52679
   63. BD*( 1) C  4- C  5       0.00911     0.43774
   64. BD*( 1) C  4- H 14       0.00696     0.54079
   65. BD*( 1) C  4- H 15       0.00831     0.53240
   66. BD*( 1) C  5- C  6       0.02054     0.50492
   67. BD*( 1) C  5- H 16       0.01281     0.53011
   68. BD*( 1) C  5- H 17       0.00957     0.53902
   69. BD*( 1) C  6- C  7       0.02232     0.68899
   70. BD*( 2) C  6- C  7       0.33475     0.07103
   71. BD*( 1) C  6- C 12       0.02753     0.65858
   72. BD*( 1) C  7- C  8       0.01602     0.67089
   73. BD*( 1) C  7- H 18       0.01161     0.57776
   74. BD*( 1) C  8- C  9       0.02176     0.65677
   75. BD*( 2) C  8- C  9       0.38078     0.04568
   76. BD*( 1) C  8- H 19       0.01114     0.58171
   77. BD*( 1) C  9-Br 10       0.02465     0.17259
   78. BD*( 1) C  9- C 11       0.02163     0.65046
   79. BD*( 1) C 11- C 12       0.02347     0.68765
   80. BD*( 2) C 11- C 12       0.34136     0.06570
   81. BD*( 1) C 11- H 20       0.01236     0.57487
   82. RY ( 1) N  1             0.00427     1.60352
   83. RY ( 2) N  1             0.00006     1.73034
   84. RY ( 3) N  1             0.00003     1.93764
   85. RY ( 4) N  1             0.00002     1.49131
   86. RY ( 5) N  1             0.00002     1.91104
   87. RY ( 6) N  1             0.00002     2.47905
   88. RY ( 7) N  1             0.00001     1.53068
   89. RY ( 8) N  1             0.00000     1.92813
   90. RY ( 9) N  1             0.00000     1.92448
   91. RY ( 1) C  2             0.01660     0.95537
   92. RY ( 2) C  2             0.00393     1.04826
   93. RY ( 3) C  2             0.00200     0.96220
   94. RY ( 4) C  2             0.00133     0.95017
   95. RY ( 1) C  3             0.00265     1.12029
   96. RY ( 2) C  3             0.00183     1.12241
   97. RY ( 3) C  3             0.00113     1.08090
   98. RY ( 4) C  3             0.00041     1.19013
   99. RY ( 1) C  4             0.00270     1.18082
  100. RY ( 2) C  4             0.00101     0.98307
  101. RY ( 3) C  4             0.00063     1.14485
  102. RY ( 4) C  4             0.00048     0.99798
  103. RY ( 1) C  5             0.00239     1.08596
  104. RY ( 2) C  5             0.00117     0.99545
  105. RY ( 3) C  5             0.00098     1.02025
  106. RY ( 4) C  5             0.00021     1.13560
  107. RY ( 1) C  6             0.00425     1.53676
  108. RY ( 2) C  6             0.00339     1.26184
  109. RY ( 3) C  6             0.00129     0.93771
  110. RY ( 4) C  6             0.00073     0.83176
  111. RY ( 1) C  7             0.00477     1.39829
  112. RY ( 2) C  7             0.00348     0.98360
  113. RY ( 3) C  7             0.00037     0.73070
  114. RY ( 4) C  7             0.00020     0.92961
  115. RY ( 1) C  8             0.00534     1.34701
  116. RY ( 2) C  8             0.00344     1.01712
  117. RY ( 3) C  8             0.00043     0.71962
  118. RY ( 4) C  8             0.00033     0.92490
  119. RY ( 1) C  9             0.00654     1.09291
  120. RY ( 2) C  9             0.00518     1.35810
  121. RY ( 3) C  9             0.00081     0.94134
  122. RY ( 4) C  9             0.00036     0.71241
  123. RY ( 1)Br 10             0.00197     0.67945
  124. RY ( 2)Br 10             0.00091     0.74338
  125. RY ( 3)Br 10             0.00059     1.12237
  126. RY ( 4)Br 10             0.00024     0.81550
  127. RY ( 5)Br 10             0.00010     0.93318
  128. RY ( 6)Br 10             0.00004     0.64568
  129. RY ( 7)Br 10             0.00003     0.67362
  130. RY ( 8)Br 10             0.00002     0.76488
  131. RY ( 9)Br 10             0.00001     0.71645
  132. RY ( 1) C 11             0.00540     1.34336
  133. RY ( 2) C 11             0.00388     0.98667
  134. RY ( 3) C 11             0.00053     0.71389
  135. RY ( 4) C 11             0.00032     0.92727
  136. RY ( 1) C 12             0.00436     1.47221
  137. RY ( 2) C 12             0.00372     1.28028
  138. RY ( 3) C 12             0.00129     1.02789
  139. RY ( 4) C 12             0.00109     0.84348
  140. RY ( 1) H 13             0.00129     0.59459
  141. RY ( 1) H 14             0.00095     0.61049
  142. RY ( 1) H 15             0.00154     0.60471
  143. RY ( 1) H 16             0.00137     0.61504
  144. RY ( 1) H 17             0.00104     0.60278
  145. RY ( 1) H 18             0.00078     0.60394
  146. RY ( 1) H 19             0.00120     0.60434
  147. RY ( 1) H 20             0.00121     0.60998
          -------------------------------
                 Total Lewis  108.40303  ( 98.5482%)
           Valence non-Lewis    1.47827  (  1.3439%)
           Rydberg non-Lewis    0.11870  (  0.1079%)
          -------------------------------
               Total unit  1  110.00000  (100.0000%)
              Charge unit  1    0.00000

 $CHOOSE
   LONE 1 1 10 3 END
   BOND T 1 2 S 2 3 S 3 4 S 3 12 S 3 13 S 4 5 S 4 14 S 4 15 S 5 6 S 5 16 S 5 17
        D 6 7 S 6 12 S 7 8 S 7 18 D 8 9 S 8 19 S 9 10 S 9 11 D 11 12 S 11 20
        END
 $END


 Checkpoint NBOs sorted by occupancy:

  Sort    Occ       Energy   Orig   Label
 -----------------------------------------------------------
    1.  2.00000   -19.43204   10.   CR ( 1)Br 10
    2.  2.00000  -452.33728   11.   CR ( 2)Br 10
    3.  2.00000    -7.18554   13.   CR ( 4)Br 10
    4.  2.00000    -7.17419   15.   CR ( 6)Br 10
    5.  2.00000    -7.17260   17.   CR ( 8)Br 10
    6.  2.00000   -55.65898   18.   CR ( 9)Br 10
    7.  1.99999   -55.65941   16.   CR ( 7)Br 10
    8.  1.99999   -79.85676   12.   CR ( 3)Br 10
    9.  1.99999   -55.66223   14.   CR ( 5)Br 10
   10.  1.99996    -2.76478   21.   CR (12)Br 10
   11.  1.99991   -14.33411    1.   CR ( 1) N  1
   12.  1.99991   -10.25807    6.   CR ( 1) C  6
   13.  1.99989   -10.30021    9.   CR ( 1) C  9
   14.  1.99988   -10.26469   25.   CR ( 1) C 12
   15.  1.99987   -10.25860    2.   CR ( 1) C  2
   16.  1.99986    -2.77367   20.   CR (11)Br 10
   17.  1.99986   -10.25409    8.   CR ( 1) C  8
   18.  1.99984   -10.25250    7.   CR ( 1) C  7
   19.  1.99984   -10.25770   24.   CR ( 1) C 11
   20.  1.99981    -2.76740   23.   CR (14)Br 10
   21.  1.99976   -10.25638    4.   CR ( 1) C  4
   22.  1.99976   -10.24967    5.   CR ( 1) C  5
   23.  1.99974   -10.29110    3.   CR ( 1) C  3
   24.  1.99960    -2.77495   19.   CR (10)Br 10
   25.  1.99955    -2.77499   22.   CR (13)Br 10
   26.  1.99732    -0.76189   27.   LP ( 1)Br 10
   27.  1.99520    -0.96368   30.   BD ( 1) N  1- C  2
   28.  1.98959    -0.42574   31.   BD ( 2) N  1- C  2
   29.  1.98832    -0.57953   38.   BD ( 1) C  4- H 14
   30.  1.98780    -0.42554   32.   BD ( 3) N  1- C  2
   31.  1.98708    -0.63050   51.   BD ( 1) C  9-Br 10
   32.  1.98457    -0.57501   39.   BD ( 1) C  4- H 15
   33.  1.98410    -0.62626   37.   BD ( 1) C  4- C  5
   34.  1.98239    -0.58846   47.   BD ( 1) C  7- H 18
   35.  1.98239    -0.57463   42.   BD ( 1) C  5- H 17
   36.  1.98236    -0.36456   28.   LP ( 2)Br 10
   37.  1.98155    -0.58771   50.   BD ( 1) C  8- H 19
   38.  1.98082    -0.59149   55.   BD ( 1) C 11- H 20
   39.  1.98035    -0.73140   48.   BD ( 1) C  8- C  9
   40.  1.97832    -0.71862   33.   BD ( 1) C  2- C  3
   41.  1.97824    -0.72798   52.   BD ( 1) C  9- C 11
   42.  1.97683    -0.64295   40.   BD ( 1) C  5- C  6
   43.  1.97473    -0.70940   43.   BD ( 1) C  6- C  7
   44.  1.97431    -0.56730   41.   BD ( 1) C  5- H 16
   45.  1.97424    -0.48106   26.   LP ( 1) N  1
   46.  1.97257    -0.70450   46.   BD ( 1) C  7- C  8
   47.  1.96910    -0.71457   53.   BD ( 1) C 11- C 12
   48.  1.96615    -0.69445   45.   BD ( 1) C  6- C 12
   49.  1.96477    -0.62946   34.   BD ( 1) C  3- C  4
   50.  1.96299    -0.58887   36.   BD ( 1) C  3- H 13
   51.  1.95866    -0.64859   35.   BD ( 1) C  3- C 12
   52.  1.94659    -0.35976   29.   LP ( 3)Br 10
   53.  1.68334    -0.33886   49.   BD ( 2) C  8- C  9
   54.  1.67176    -0.32972   54.   BD ( 2) C 11- C 12
   55.  1.64955    -0.32215   44.   BD ( 2) C  6- C  7
   56.  0.38078     0.04568   75.   BD*( 2) C  8- C  9
   57.  0.34136     0.06570   80.   BD*( 2) C 11- C 12
   58.  0.33475     0.07103   70.   BD*( 2) C  6- C  7
   59.  0.02953     0.47537   61.   BD*( 1) C  3- C 12
   60.  0.02908     0.56052   59.   BD*( 1) C  2- C  3
   61.  0.02904     0.18608   58.   BD*( 3) N  1- C  2
   62.  0.02753     0.65858   71.   BD*( 1) C  6- C 12
   63.  0.02740     0.18301   57.   BD*( 2) N  1- C  2
   64.  0.02465     0.17259   77.   BD*( 1) C  9-Br 10
   65.  0.02347     0.68765   79.   BD*( 1) C 11- C 12
   66.  0.02232     0.68899   69.   BD*( 1) C  6- C  7
   67.  0.02176     0.65677   74.   BD*( 1) C  8- C  9
   68.  0.02163     0.65046   78.   BD*( 1) C  9- C 11
   69.  0.02054     0.50492   66.   BD*( 1) C  5- C  6
   70.  0.01853     0.41730   60.   BD*( 1) C  3- C  4
   71.  0.01763     0.52679   62.   BD*( 1) C  3- H 13
   72.  0.01660     0.95537   91.   RY ( 1) C  2
   73.  0.01602     0.67089   72.   BD*( 1) C  7- C  8
   74.  0.01281     0.53011   67.   BD*( 1) C  5- H 16
   75.  0.01236     0.57487   81.   BD*( 1) C 11- H 20
   76.  0.01161     0.57776   73.   BD*( 1) C  7- H 18
   77.  0.01114     0.58171   76.   BD*( 1) C  8- H 19
   78.  0.01038     1.02152   56.   BD*( 1) N  1- C  2
   79.  0.00957     0.53902   68.   BD*( 1) C  5- H 17
   80.  0.00911     0.43774   63.   BD*( 1) C  4- C  5
   81.  0.00831     0.53240   65.   BD*( 1) C  4- H 15
   82.  0.00696     0.54079   64.   BD*( 1) C  4- H 14
   83.  0.00654     1.09291  119.   RY ( 1) C  9
   84.  0.00540     1.34336  132.   RY ( 1) C 11
   85.  0.00534     1.34701  115.   RY ( 1) C  8
   86.  0.00518     1.35810  120.   RY ( 2) C  9
   87.  0.00477     1.39829  111.   RY ( 1) C  7
   88.  0.00436     1.47221  136.   RY ( 1) C 12
   89.  0.00427     1.60352   82.   RY ( 1) N  1
   90.  0.00425     1.53676  107.   RY ( 1) C  6
   91.  0.00393     1.04826   92.   RY ( 2) C  2
   92.  0.00388     0.98667  133.   RY ( 2) C 11
   93.  0.00372     1.28028  137.   RY ( 2) C 12
   94.  0.00348     0.98360  112.   RY ( 2) C  7
   95.  0.00344     1.01712  116.   RY ( 2) C  8
   96.  0.00339     1.26184  108.   RY ( 2) C  6
   97.  0.00270     1.18082   99.   RY ( 1) C  4
   98.  0.00265     1.12029   95.   RY ( 1) C  3
   99.  0.00239     1.08596  103.   RY ( 1) C  5
  100.  0.00200     0.96220   93.   RY ( 3) C  2
  101.  0.00197     0.67945  123.   RY ( 1)Br 10
  102.  0.00183     1.12241   96.   RY ( 2) C  3
  103.  0.00154     0.60471  142.   RY ( 1) H 15
  104.  0.00137     0.61504  143.   RY ( 1) H 16
  105.  0.00133     0.95017   94.   RY ( 4) C  2
  106.  0.00129     1.02789  138.   RY ( 3) C 12
  107.  0.00129     0.59459  140.   RY ( 1) H 13
  108.  0.00129     0.93771  109.   RY ( 3) C  6
  109.  0.00121     0.60998  147.   RY ( 1) H 20
  110.  0.00120     0.60434  146.   RY ( 1) H 19
  111.  0.00117     0.99545  104.   RY ( 2) C  5
  112.  0.00113     1.08090   97.   RY ( 3) C  3
  113.  0.00109     0.84348  139.   RY ( 4) C 12
  114.  0.00104     0.60278  144.   RY ( 1) H 17
  115.  0.00101     0.98307  100.   RY ( 2) C  4
  116.  0.00098     1.02025  105.   RY ( 3) C  5
  117.  0.00095     0.61049  141.   RY ( 1) H 14
  118.  0.00091     0.74338  124.   RY ( 2)Br 10
  119.  0.00081     0.94134  121.   RY ( 3) C  9
  120.  0.00078     0.60394  145.   RY ( 1) H 18
  121.  0.00073     0.83176  110.   RY ( 4) C  6
  122.  0.00063     1.14485  101.   RY ( 3) C  4
  123.  0.00059     1.12237  125.   RY ( 3)Br 10
  124.  0.00053     0.71389  134.   RY ( 3) C 11
  125.  0.00048     0.99798  102.   RY ( 4) C  4
  126.  0.00043     0.71962  117.   RY ( 3) C  8
  127.  0.00041     1.19013   98.   RY ( 4) C  3
  128.  0.00037     0.73070  113.   RY ( 3) C  7
  129.  0.00036     0.71241  122.   RY ( 4) C  9
  130.  0.00033     0.92490  118.   RY ( 4) C  8
  131.  0.00032     0.92727  135.   RY ( 4) C 11
  132.  0.00024     0.81550  126.   RY ( 4)Br 10
  133.  0.00021     1.13560  106.   RY ( 4) C  5
  134.  0.00020     0.92961  114.   RY ( 4) C  7
  135.  0.00010     0.93318  127.   RY ( 5)Br 10
  136.  0.00006     1.73034   83.   RY ( 2) N  1
  137.  0.00004     0.64568  128.   RY ( 6)Br 10
  138.  0.00003     1.93764   84.   RY ( 3) N  1
  139.  0.00003     0.67362  129.   RY ( 7)Br 10
  140.  0.00002     1.49131   85.   RY ( 4) N  1
  141.  0.00002     0.76488  130.   RY ( 8)Br 10
  142.  0.00002     1.91104   86.   RY ( 5) N  1
  143.  0.00002     2.47905   87.   RY ( 6) N  1
  144.  0.00001     1.53068   88.   RY ( 7) N  1
  145.  0.00001     0.71645  131.   RY ( 9)Br 10
  146.  0.00000     1.92813   89.   RY ( 8) N  1
  147.  0.00000     1.92448   90.   RY ( 9) N  1

 NBO analysis completed in 0.38 CPU seconds (0 wall seconds)
 Maximum scratch memory used by NBO was 640950 words (4.89 MB)
 Maximum scratch memory used by G16NBO was 41786 words (0.32 MB)

 Opening RunExU unformatted file "/home/rpaton/opt/xtb/Gau-1516969.EUF"
 Read unf file /home/rpaton/opt/xtb/Gau-1516969.EUF:
 Label Gaussian matrix elements                                         IVers= 2 NLab= 2 Version=ES64L-G16RevC.01
 Title energy: -32.469090060500 gnorm: 0.000424945565 xtb: 6.7.0 (08769
 NAtoms=    20 NBasis=   147 NBsUse=   147 ICharg=     0 Multip=     1 NE=   110 Len12L=8 Len4L=8 IOpCl= 0 ICGU=111
 GAUSSIAN SCALARS                    NI= 1 NR= 1 NTot=       1 LenBuf=    2 NRI=1 N=    1000
 ALPHA ORBITAL ENERGIES              NI= 0 NR= 1 NTot=     147 LenBuf= 2048 NRI=1 N=     147
 ALPHA MO COEFFICIENTS               NI= 0 NR= 1 NTot=   21609 LenBuf= 2048 NRI=1 N=     147     147
 Store file  10524 Len=   21609.
 NPA CHARGES                         NI= 0 NR= 1 NTot=      20 LenBuf= 2048 NRI=1 N=      20
 Recovered energy= -2999.95985081     dipole=     -0.291735563526      1.239667186940      0.898890215105
 Unable to Open any file for archive entry.
 1\1\GINC-DYNAMO\SP\RwB97XD\MIDIx\C10H8Br1N1\RPATON\26-Sep-2024\0\\# wb
 97xd midix pop(nbo6read,savenbos,hirshfeld)\\energy: -32.469090060500 
 gnorm: 0.000424945565 xtb: 6.7.0 (08769fc)\\0,1\N,0,-3.07938,-2.31462,
 -1.17037\C,0,-2.77038,-1.61756,-0.31936\C,0,-2.37976,-0.71122,0.73706\
 C,0,-3.36403,0.47612,0.83781\C,0,-2.78417,1.55749,-0.08723\C,0,-1.3185
 1,1.24183,-0.12189\C,0,-0.26758,2.02836,-0.55083\C,0,1.02168,1.51821,-
 0.50235\C,0,1.23573,0.23336,-0.03289\Br,0,3.015,-0.44763,0.03086\C,0,0
 .19201,-0.57471,0.39677\C,0,-1.0806,-0.04672,0.35001\H,0,-2.30765,-1.2
 8005,1.66891\H,0,-4.37759,0.18958,0.56017\H,0,-3.37633,0.83589,1.86776
 \H,0,-3.19874,1.46947,-1.09545\H,0,-2.98828,2.56528,0.27364\H,0,-0.439
 1,3.02876,-0.91769\H,0,1.85771,2.11757,-0.82779\H,0,0.37815,-1.57614,0
 .75384\\Version=ES64L-G16RevC.01\State=1-A\HF=-2999.9598508\RMSD=3.032
 e-09\Dipole=-0.2603078,1.2511181,0.8926541\Quadrupole=0.3209114,0.4152
 303,-0.7361417,-6.6525684,-6.0198713,-5.9743551\PG=C01 [X(C10H8Br1N1)]
 \\@
 The archive entry for this job was punched.


 ONE THORN OF EXPERIENCE IS WORTH A WHOLE WILDERNESS OF
 WARNING....  LOWELL - AMONG MY BOOKS
 Job cpu time:       0 days  0 hours  3 minutes 39.0 seconds.
 Elapsed time:       0 days  0 hours  0 minutes  9.4 seconds.
 File lengths (MBytes):  RWF=     16 Int=      0 D2E=      0 Chk=      2 Scr=      1
 Normal termination of Gaussian 16 at Thu Sep 26 14:43:26 2024.
