 Entering Gaussian System, Link 0=/usr/local/Gaussian/G16C/g16/g16
 Input=popn/arbr39_xtbopt_popn.com
 Output=popn/arbr39_xtbopt_popn.log
 Initial command:
 /usr/local/Gaussian/G16C/g16/l1.exe "/home/rpaton/opt/xtb/Gau-1516708.inp" -scrdir="/home/rpaton/opt/xtb/"
 Entering Link 1 = /usr/local/Gaussian/G16C/g16/l1.exe PID=   1516709.
  
 Copyright (c) 1988-2019, Gaussian, Inc.  All Rights Reserved.
  
 This is part of the Gaussian(R) 16 program.  It is based on
 the Gaussian(R) 09 system (copyright 2009, Gaussian, Inc.),
 the Gaussian(R) 03 system (copyright 2003, Gaussian, Inc.),
 the Gaussian(R) 98 system (copyright 1998, Gaussian, Inc.),
 the Gaussian(R) 94 system (copyright 1995, Gaussian, Inc.),
 the Gaussian 92(TM) system (copyright 1992, Gaussian, Inc.),
 the Gaussian 90(TM) system (copyright 1990, Gaussian, Inc.),
 the Gaussian 88(TM) system (copyright 1988, Gaussian, Inc.),
 the Gaussian 86(TM) system (copyright 1986, Carnegie Mellon
 University), and the Gaussian 82(TM) system (copyright 1983,
 Carnegie Mellon University). Gaussian is a federally registered
 trademark of Gaussian, Inc.
  
 This software contains proprietary and confidential information,
 including trade secrets, belonging to Gaussian, Inc.
  
 This software is provided under written license and may be
 used, copied, transmitted, or stored only in accord with that
 written license.
  
 The following legend is applicable only to US Government
 contracts under FAR:
  
                    RESTRICTED RIGHTS LEGEND
  
 Use, reproduction and disclosure by the US Government is
 subject to restrictions as set forth in subparagraphs (a)
 and (c) of the Commercial Computer Software - Restricted
 Rights clause in FAR 52.227-19.
  
 Gaussian, Inc.
 340 Quinnipiac St., Bldg. 40, Wallingford CT 06492
  
  
 ---------------------------------------------------------------
 Warning -- This program may not be used in any manner that
 competes with the business of Gaussian, Inc. or will provide
 assistance to any competitor of Gaussian, Inc.  The licensee
 of this program is prohibited from giving any competitor of
 Gaussian, Inc. access to this program.  By using this program,
 the user acknowledges that Gaussian, Inc. is engaged in the
 business of creating and licensing software in the field of
 computational chemistry and represents and warrants to the
 licensee that it is not a competitor of Gaussian, Inc. and that
 it will not use this program in any manner prohibited above.
 ---------------------------------------------------------------
  

 Cite this work as:
 Gaussian 16, Revision C.01,
 M. J. Frisch, G. W. Trucks, H. B. Schlegel, G. E. Scuseria, 
 M. A. Robb, J. R. Cheeseman, G. Scalmani, V. Barone, 
 G. A. Petersson, H. Nakatsuji, X. Li, M. Caricato, A. V. Marenich, 
 J. Bloino, B. G. Janesko, R. Gomperts, B. Mennucci, H. P. Hratchian, 
 J. V. Ortiz, A. F. Izmaylov, J. L. Sonnenberg, D. Williams-Young, 
 F. Ding, F. Lipparini, F. Egidi, J. Goings, B. Peng, A. Petrone, 
 T. Henderson, D. Ranasinghe, V. G. Zakrzewski, J. Gao, N. Rega, 
 G. Zheng, W. Liang, M. Hada, M. Ehara, K. Toyota, R. Fukuda, 
 J. Hasegawa, M. Ishida, T. Nakajima, Y. Honda, O. Kitao, H. Nakai, 
 T. Vreven, K. Throssell, J. A. Montgomery, Jr., J. E. Peralta, 
 F. Ogliaro, M. J. Bearpark, J. J. Heyd, E. N. Brothers, K. N. Kudin, 
 V. N. Staroverov, T. A. Keith, R. Kobayashi, J. Normand, 
 K. Raghavachari, A. P. Rendell, J. C. Burant, S. S. Iyengar, 
 J. Tomasi, M. Cossi, J. M. Millam, M. Klene, C. Adamo, R. Cammi, 
 J. W. Ochterski, R. L. Martin, K. Morokuma, O. Farkas, 
 J. B. Foresman, and D. J. Fox, Gaussian, Inc., Wallingford CT, 2019.
 
 ******************************************
 Gaussian 16:  ES64L-G16RevC.01  3-Jul-2019
                26-Sep-2024 
 ******************************************
 %nprocshared=24
 Will use up to   24 processors via shared memory.
 -----------------------------------------------
 # wb97xd midix pop(nbo6read,savenbos,hirshfeld)
 -----------------------------------------------
 1/38=1,163=2,172=1/1;
 2/12=2,17=6,18=5,40=1/2;
 3/5=20,11=2,25=1,30=1,74=-58/1,2,3;
 4//1;
 5/5=2,38=5/2;
 6/7=2,8=2,9=2,10=2,28=1,40=2,73=1,79=1,113=1,114=1,124=2103,126=1/1,12;
 99/5=1,9=1/99;
 -------------------------------------------------------------------
 energy: -39.449151330410 gnorm: 0.000222488892 xtb: 6.7.0 (08769fc)
 -------------------------------------------------------------------
 Symbolic Z-matrix:
 Charge =  0 Multiplicity = 1
 O                     1.80646  -2.16681   0.00003 
 C                     1.66232  -0.96881   0.00009 
 C                     0.39264  -0.22246   0. 
 C                    -0.8986   -0.72816  -0.00005 
 C                    -1.93697   0.18521  -0.00003 
 Br                   -3.73627  -0.44384   0.00002 
 C                    -1.70685   1.55551  -0.00001 
 C                    -0.41025   2.04486   0.00001 
 C                     0.64429   1.1496    0.00002 
 C                     2.11396   1.4321    0. 
 C                     2.78652   0.05376  -0.00001 
 C                     3.87342  -0.187     1.07518 
 C                     4.96299  -0.10283  -0.00001 
 C                     3.87342  -0.18698  -1.07521 
 H                    -1.07281  -1.79289   0. 
 H                    -2.54476   2.23601  -0.00002 
 H                    -0.2359    3.11032  -0.00002 
 H                     2.39247   2.01675   0.87982 
 H                     2.39246   2.01675  -0.87982 
 H                     3.91588   0.55249   1.87236 
 H                     3.78647  -1.18128   1.50926 
 H                     5.69426  -0.90681   0. 
 H                     5.48406   0.85231   0. 
 H                     3.91588   0.55251  -1.87239 
 H                     3.78648  -1.18126  -1.50928 
 
                          Input orientation:                          
 ---------------------------------------------------------------------
 Center     Atomic      Atomic             Coordinates (Angstroms)
 Number     Number       Type             X           Y           Z
 ---------------------------------------------------------------------
      1          8           0        1.806460   -2.166810    0.000030
      2          6           0        1.662320   -0.968810    0.000090
      3          6           0        0.392640   -0.222460    0.000000
      4          6           0       -0.898600   -0.728160   -0.000050
      5          6           0       -1.936970    0.185210   -0.000030
      6         35           0       -3.736270   -0.443840    0.000020
      7          6           0       -1.706850    1.555510   -0.000010
      8          6           0       -0.410250    2.044860    0.000010
      9          6           0        0.644290    1.149600    0.000020
     10          6           0        2.113960    1.432100    0.000000
     11          6           0        2.786520    0.053760   -0.000010
     12          6           0        3.873420   -0.187000    1.075180
     13          6           0        4.962990   -0.102830   -0.000010
     14          6           0        3.873420   -0.186980   -1.075210
     15          1           0       -1.072810   -1.792890    0.000000
     16          1           0       -2.544760    2.236010   -0.000020
     17          1           0       -0.235900    3.110320   -0.000020
     18          1           0        2.392470    2.016750    0.879820
     19          1           0        2.392460    2.016750   -0.879820
     20          1           0        3.915880    0.552490    1.872360
     21          1           0        3.786470   -1.181280    1.509260
     22          1           0        5.694260   -0.906810    0.000000
     23          1           0        5.484060    0.852310    0.000000
     24          1           0        3.915880    0.552510   -1.872390
     25          1           0        3.786480   -1.181260   -1.509280
 ---------------------------------------------------------------------
                    Distance matrix (angstroms):
                    1          2          3          4          5
     1  O    0.000000
     2  C    1.206640   0.000000
     3  C    2.404035   1.472795   0.000000
     4  C    3.063831   2.572202   1.386735   0.000000
     5  C    4.421003   3.779769   2.365011   1.382916   0.000000
     6  Br   5.804350   5.424055   4.134841   2.851878   1.906091
     7  C    5.118497   4.209928   2.751188   2.422482   1.389488
     8  C    4.759408   3.657561   2.405280   2.815693   2.406070
     9  C    3.514145   2.350329   1.394947   2.430328   2.755531
    10  C    3.612023   2.443020   2.387574   3.707053   4.238487
    11  C    2.427231   1.519696   2.409763   3.767162   4.725319
    12  C    3.057437   2.579924   3.643226   4.921499   5.920747
    13  C    3.771431   3.412381   4.571915   5.894852   6.905970
    14  C    3.057481   2.580018   3.643235   4.921486   5.920741
    15  H    2.903448   2.856579   2.147974   1.078888   2.158623
    16  H    6.190149   5.288704   3.830456   3.390597   2.138969
    17  H    5.658563   4.499171   3.391531   3.895266   3.383771
    18  H    4.315045   3.196969   3.128492   4.374911   4.782544
    19  H    4.315056   3.197017   3.128486   4.374883   4.782524
    20  H    3.917890   3.301255   4.064419   5.322143   6.156021
    21  H    2.677589   2.614336   3.836051   4.942997   6.074785
    22  H    4.086880   4.032417   5.345607   6.595280   7.708967
    23  H    4.758133   4.233459   5.203623   6.575427   7.450954
    24  H    3.917947   3.301383   4.064436   5.322123   6.156013
    25  H    2.677649   2.614458   3.836062   4.942980   6.074780
                    6          7          8          9         10
     6  Br   0.000000
     7  C    2.848850   0.000000
     8  C    4.154039   1.385870   0.000000
     9  C    4.661369   2.385922   1.383309   0.000000
    10  C    6.143642   3.822803   2.597520   1.496575   0.000000
    11  C    6.541743   4.737682   3.766141   2.406245   1.533675
    12  C    7.689559   5.944055   4.948436   3.656467   2.621678
    13  C    8.705941   6.872907   5.786560   4.496638   3.236199
    14  C    7.689569   5.944051   4.948438   3.656480   2.621678
    15  H    2.985625   3.407901   3.894523   3.406858   4.533880
    16  H    2.932796   1.079432   2.143052   3.369025   4.727573
    17  H    4.988451   2.140357   1.079631   2.149223   2.887605
    18  H    6.662582   4.217970   2.937702   2.140591   1.092459
    19  H    6.662579   4.217956   2.937699   2.140599   1.092456
    20  H    7.940638   6.010567   4.944519   3.816477   2.743421
    21  H    7.707998   6.320165   5.504387   4.193340   3.450349
    22  H    9.441887   7.799965   6.780664   5.452616   4.276570
    23  H    9.310988   7.225211   6.013740   4.848892   3.419610
    24  H    7.940657   6.010566   4.944531   3.816508   2.743436
    25  H    7.708018   6.320165   5.504394   4.193358   3.450348
                   11         12         13         14         15
    11  C    0.000000
    12  C    1.547692   0.000000
    13  C    2.182096   1.533063   0.000000
    14  C    1.547696   2.150390   1.533069   0.000000
    15  H    4.278381   5.310375   6.267949   5.310387   0.000000
    16  H    5.760622   6.944067   7.863618   6.944059   4.289367
    17  H    4.298556   5.377256   6.111693   5.377242   4.974122
    18  H    2.186940   2.662310   3.445910   3.297238   5.224520
    19  H    2.186934   3.297238   3.445912   2.662301   5.224513
    20  H    2.242756   1.088184   2.243135   3.039208   5.821818
    21  H    2.191602   1.088383   2.196622   2.770501   5.124894
    22  H    3.062294   2.233741   1.086802   2.233761   6.824835
    23  H    2.813255   2.197803   1.088029   2.197808   7.070334
    24  H    2.242769   3.039218   2.243149   1.088184   5.821836
    25  H    2.191595   2.770477   2.196607   1.088379   5.124911
                   16         17         18         19         20
    16  H    0.000000
    17  H    2.468857   0.000000
    18  H    5.019804   2.979655   0.000000
    19  H    5.019787   2.979634   1.759640   0.000000
    20  H    6.933968   5.223560   2.334517   3.469778   0.000000
    21  H    7.351209   6.072497   3.544972   4.228281   1.776104
    22  H    8.818093   7.162690   4.497011   4.497018   2.966129
    23  H    8.147182   6.149516   3.418762   3.418771   2.460653
    24  H    6.933961   5.223547   3.469789   2.334524   3.744750
    25  H    7.351204   6.072484   4.228278   3.544965   3.802384
                   21         22         23         24         25
    21  H    0.000000
    22  H    2.448032   0.000000
    23  H    3.048797   1.771634   0.000000
    24  H    3.802411   2.966158   2.460673   0.000000
    25  H    3.018540   2.448035   3.048788   1.776106   0.000000
 Stoichiometry    C12H11BrO
 Framework group  C1[X(C12H11BrO)]
 Deg. of freedom    69
 Full point group                 C1      NOp   1
 Largest Abelian subgroup         C1      NOp   1
 Largest concise Abelian subgroup C1      NOp   1
                         Standard orientation:                         
 ---------------------------------------------------------------------
 Center     Atomic      Atomic             Coordinates (Angstroms)
 Number     Number       Type             X           Y           Z
 ---------------------------------------------------------------------
      1          8           0       -1.759661   -2.164075   -0.000024
      2          6           0       -1.626812   -0.964770   -0.000084
      3          6           0       -0.364219   -0.206494    0.000006
      4          6           0        0.931727   -0.700009    0.000056
      5          6           0        1.961448    0.223102    0.000036
      6         35           0        3.766593   -0.388972   -0.000014
      7          6           0        1.718431    1.591173    0.000016
      8          6           0        0.417279    2.068288   -0.000004
      9          6           0       -0.628781    1.163135   -0.000014
     10          6           0       -2.101047    1.431779    0.000006
     11          6           0       -2.760594    0.047165    0.000016
     12          6           0       -3.845178   -0.203822   -1.075174
     13          6           0       -4.935493   -0.129918    0.000016
     14          6           0       -3.845178   -0.203802    1.075216
     15          1           0        1.115959   -1.763050    0.000006
     16          1           0        2.549894    2.279535    0.000026
     17          1           0        0.232901    3.132059    0.000026
     18          1           0       -2.385052    2.013780   -0.879814
     19          1           0       -2.385042    2.013780    0.879826
     20          1           0       -3.894602    0.535236   -1.872354
     21          1           0       -3.748867   -1.197239   -1.509254
     22          1           0       -5.659157   -0.940751    0.000006
     23          1           0       -5.465536    0.820271    0.000006
     24          1           0       -3.894602    0.535256    1.872396
     25          1           0       -3.748877   -1.197219    1.509286
 ---------------------------------------------------------------------
 Rotational constants (GHZ):           1.6802535           0.2236325           0.2038877
 Standard basis: MIDIx (5D, 7F)
 There are   174 symmetry adapted cartesian basis functions of A   symmetry.
 There are   171 symmetry adapted basis functions of A   symmetry.
   171 basis functions,   297 primitive gaussians,   174 cartesian basis functions
    63 alpha electrons       63 beta electrons
       nuclear repulsion energy      1116.6305797454 Hartrees.
 NAtoms=   25 NActive=   25 NUniq=   25 SFac= 1.00D+00 NAtFMM=   60 NAOKFM=F Big=F
 Integral buffers will be    131072 words long.
 Raffenetti 2 integral format.
 Two-electron integral symmetry is turned on.
 Nuclear repulsion after empirical dispersion term =     1116.6124888995 Hartrees.
 One-electron integrals computed using PRISM.
 NBasis=   171 RedAO= T EigKep=  9.34D-04  NBF=   171
 NBsUse=   171 1.00D-06 EigRej= -1.00D+00 NBFU=   171
 ExpMin= 1.47D-01 ExpMax= 6.10D+03 ExpMxC= 6.10D+03 IAcc=3 IRadAn=         5 AccDes= 0.00D+00
 Harris functional with IExCor= 4639 and IRadAn=       5 diagonalized for initial guess.
 HarFok:  IExCor= 4639 AccDes= 0.00D+00 IRadAn=         5 IDoV= 1 UseB2=F ITyADJ=14
 ICtDFT=  3500011 ScaDFX=  1.000000  1.000000  1.000000  1.000000
 FoFCou: FMM=F IPFlag=           0 FMFlag=      100000 FMFlg1=           0
         NFxFlg=           0 DoJE=T BraDBF=F KetDBF=T FulRan=T
         wScrn=  0.000000 ICntrl=       500 IOpCl=  0 I1Cent=   200000004 NGrid=           0
         NMat0=    1 NMatS0=      1 NMatT0=    0 NMatD0=    1 NMtDS0=    0 NMtDT0=    0
 Petite list used in FoFCou.
 Requested convergence on RMS density matrix=1.00D-08 within 128 cycles.
 Requested convergence on MAX density matrix=1.00D-06.
 Requested convergence on             energy=1.00D-06.
 No special actions if energy rises.
 Integral accuracy reduced to 1.0D-05 until final iterations.
 Initial convergence to 1.0D-05 achieved.  Increase integral accuracy.
 SCF Done:  E(RwB97XD) =  -3097.83734527     A.U. after   16 cycles
            NFock= 16  Conv=0.37D-08     -V/T= 2.0025

 **********************************************************************

            Population analysis using the SCF Density.

 **********************************************************************

 Orbital symmetries:
       Occupied  (A) (A) (A) (A) (A) (A) (A) (A) (A) (A) (A) (A)
                 (A) (A) (A) (A) (A) (A) (A) (A) (A) (A) (A) (A)
                 (A) (A) (A) (A) (A) (A) (A) (A) (A) (A) (A) (A)
                 (A) (A) (A) (A) (A) (A) (A) (A) (A) (A) (A) (A)
                 (A) (A) (A) (A) (A) (A) (A) (A) (A) (A) (A) (A)
                 (A) (A) (A)
       Virtual   (A) (A) (A) (A) (A) (A) (A) (A) (A) (A) (A) (A)
                 (A) (A) (A) (A) (A) (A) (A) (A) (A) (A) (A) (A)
                 (A) (A) (A) (A) (A) (A) (A) (A) (A) (A) (A) (A)
                 (A) (A) (A) (A) (A) (A) (A) (A) (A) (A) (A) (A)
                 (A) (A) (A) (A) (A) (A) (A) (A) (A) (A) (A) (A)
                 (A) (A) (A) (A) (A) (A) (A) (A) (A) (A) (A) (A)
                 (A) (A) (A) (A) (A) (A) (A) (A) (A) (A) (A) (A)
                 (A) (A) (A) (A) (A) (A) (A) (A) (A) (A) (A) (A)
                 (A) (A) (A) (A) (A) (A) (A) (A) (A) (A) (A) (A)
 The electronic state is 1-A.
 Alpha  occ. eigenvalues -- -480.14914 -62.58301 -56.17201 -56.16772 -56.16759
 Alpha  occ. eigenvalues --  -19.14404 -10.31930 -10.30144 -10.26418 -10.26200
 Alpha  occ. eigenvalues --  -10.26118 -10.25607 -10.25116 -10.25104 -10.24853
 Alpha  occ. eigenvalues --  -10.23387 -10.23351 -10.22830  -8.89143  -6.67630
 Alpha  occ. eigenvalues --   -6.66194  -6.66181  -2.77935  -2.77438  -2.77419
 Alpha  occ. eigenvalues --   -2.76238  -2.76234  -1.15268  -1.01467  -0.98278
 Alpha  occ. eigenvalues --   -0.93671  -0.89209  -0.87158  -0.80821  -0.78894
 Alpha  occ. eigenvalues --   -0.77313  -0.73532  -0.70003  -0.66756  -0.62491
 Alpha  occ. eigenvalues --   -0.59456  -0.58869  -0.58483  -0.55683  -0.55327
 Alpha  occ. eigenvalues --   -0.54445  -0.53078  -0.50574  -0.49941  -0.48364
 Alpha  occ. eigenvalues --   -0.48276  -0.46412  -0.46208  -0.43824  -0.43300
 Alpha  occ. eigenvalues --   -0.41413  -0.39723  -0.39589  -0.38493  -0.36597
 Alpha  occ. eigenvalues --   -0.35014  -0.32121  -0.31777
 Alpha virt. eigenvalues --    0.01015   0.05155   0.08534   0.12031   0.16009
 Alpha virt. eigenvalues --    0.18384   0.19581   0.19774   0.21081   0.23527
 Alpha virt. eigenvalues --    0.23528   0.24962   0.26208   0.26535   0.26666
 Alpha virt. eigenvalues --    0.28467   0.29258   0.30918   0.31340   0.34550
 Alpha virt. eigenvalues --    0.35575   0.37088   0.37324   0.38430   0.41677
 Alpha virt. eigenvalues --    0.44578   0.47240   0.50102   0.51407   0.54667
 Alpha virt. eigenvalues --    0.55831   0.59064   0.59564   0.61364   0.64106
 Alpha virt. eigenvalues --    0.64175   0.64728   0.66363   0.67463   0.69156
 Alpha virt. eigenvalues --    0.71481   0.71605   0.74119   0.76305   0.77146
 Alpha virt. eigenvalues --    0.78670   0.80427   0.80760   0.84247   0.84769
 Alpha virt. eigenvalues --    0.84924   0.85196   0.87564   0.89213   0.89408
 Alpha virt. eigenvalues --    0.92042   0.92796   0.94908   0.95916   0.96580
 Alpha virt. eigenvalues --    0.96844   0.97248   0.98569   0.99842   1.00362
 Alpha virt. eigenvalues --    1.00559   1.01583   1.02394   1.03871   1.04803
 Alpha virt. eigenvalues --    1.05264   1.06175   1.06967   1.07383   1.09137
 Alpha virt. eigenvalues --    1.09232   1.11877   1.12276   1.12558   1.15319
 Alpha virt. eigenvalues --    1.17931   1.19680   1.22063   1.23773   1.28702
 Alpha virt. eigenvalues --    1.29767   1.32806   1.36829   1.39017   1.41537
 Alpha virt. eigenvalues --    1.44634   1.50134   1.59032   1.63808   1.65566
 Alpha virt. eigenvalues --    1.67912   1.70303   1.75549   1.78818   1.82843
 Alpha virt. eigenvalues --    1.90264   1.93091   1.99411   1.99475   2.06252
 Alpha virt. eigenvalues --    2.17845   2.39093   3.12285
          Condensed to atoms (all electrons):
               1          2          3          4          5          6
     1  O    8.138212   0.567865  -0.083856  -0.004049   0.000220   0.000000
     2  C    0.567865   4.449846   0.240945  -0.000404   0.002203  -0.000018
     3  C   -0.083856   0.240945   5.509323   0.429192  -0.017967   0.002455
     4  C   -0.004049  -0.000404   0.429192   4.909436   0.460901  -0.040608
     5  C    0.000220   0.002203  -0.017967   0.460901   5.077154   0.212918
     6  Br   0.000000  -0.000018   0.002455  -0.040608   0.212918  34.926327
     7  C   -0.000008   0.000431  -0.041333  -0.032564   0.460465  -0.039912
     8  C    0.000001   0.000840  -0.025430  -0.024462  -0.026434   0.001862
     9  C    0.002210  -0.012518   0.400457  -0.019620  -0.052533   0.000407
    10  C    0.002792  -0.042365  -0.012664   0.000541   0.000557   0.000002
    11  C   -0.092426   0.222870  -0.237510   0.001264   0.000214   0.000001
    12  C    0.002917  -0.036147   0.008461   0.000004  -0.000000  -0.000000
    13  C   -0.001338   0.016226  -0.001503  -0.000003   0.000000   0.000000
    14  C    0.002915  -0.036126   0.008458   0.000004  -0.000000  -0.000000
    15  H    0.006106  -0.001206  -0.018892   0.377473  -0.013645   0.000813
    16  H    0.000000   0.000002   0.000049   0.002565  -0.021816   0.001026
    17  H    0.000000  -0.000058   0.002935  -0.000134   0.002929  -0.000054
    18  H   -0.000031   0.001665  -0.000100  -0.000058   0.000010  -0.000000
    19  H   -0.000031   0.001666  -0.000102  -0.000058   0.000010  -0.000000
    20  H    0.000039   0.001968  -0.000126  -0.000000  -0.000000   0.000000
    21  H    0.008178  -0.002471   0.002285   0.000021  -0.000001  -0.000000
    22  H    0.000079  -0.000589   0.000022   0.000000  -0.000000  -0.000000
    23  H   -0.000004  -0.000417   0.000023  -0.000000   0.000000  -0.000000
    24  H    0.000039   0.001967  -0.000126  -0.000000  -0.000000   0.000000
    25  H    0.008178  -0.002473   0.002285   0.000021  -0.000001  -0.000000
               7          8          9         10         11         12
     1  O   -0.000008   0.000001   0.002210   0.002792  -0.092426   0.002917
     2  C    0.000431   0.000840  -0.012518  -0.042365   0.222870  -0.036147
     3  C   -0.041333  -0.025430   0.400457  -0.012664  -0.237510   0.008461
     4  C   -0.032564  -0.024462  -0.019620   0.000541   0.001264   0.000004
     5  C    0.460465  -0.026434  -0.052533   0.000557   0.000214  -0.000000
     6  Br  -0.039912   0.001862   0.000407   0.000002   0.000001  -0.000000
     7  C    4.959235   0.495301  -0.026207   0.000533  -0.000353   0.000003
     8  C    0.495301   4.885647   0.463865   0.002444   0.002810  -0.000019
     9  C   -0.026207   0.463865   5.138530   0.290381  -0.048697   0.002388
    10  C    0.000533   0.002444   0.290381   5.169774   0.165035  -0.029099
    11  C   -0.000353   0.002810  -0.048697   0.165035   6.398924   0.182688
    12  C    0.000003  -0.000019   0.002388  -0.029099   0.182688   5.294555
    13  C   -0.000000   0.000003  -0.000329   0.010700  -0.216688   0.322285
    14  C    0.000003  -0.000019   0.002387  -0.029096   0.182680  -0.209652
    15  H    0.001789   0.000075   0.002732  -0.000173   0.000751  -0.000009
    16  H    0.393826  -0.017919   0.003061  -0.000020   0.000001  -0.000000
    17  H   -0.021655   0.399726  -0.022996  -0.004731   0.000185  -0.000003
    18  H    0.000043  -0.004685  -0.026525   0.383374  -0.024071  -0.006056
    19  H    0.000043  -0.004685  -0.026522   0.383379  -0.024075   0.002471
    20  H   -0.000000  -0.000012   0.000375  -0.008311  -0.023405   0.378153
    21  H    0.000000  -0.000001  -0.000495   0.004478  -0.044692   0.389078
    22  H    0.000000  -0.000000   0.000004  -0.000398   0.013638  -0.028585
    23  H    0.000000  -0.000000   0.000011   0.000494   0.006821  -0.031661
    24  H   -0.000000  -0.000012   0.000375  -0.008310  -0.023403   0.011238
    25  H    0.000000  -0.000001  -0.000495   0.004478  -0.044687   0.011565
              13         14         15         16         17         18
     1  O   -0.001338   0.002915   0.006106   0.000000   0.000000  -0.000031
     2  C    0.016226  -0.036126  -0.001206   0.000002  -0.000058   0.001665
     3  C   -0.001503   0.008458  -0.018892   0.000049   0.002935  -0.000100
     4  C   -0.000003   0.000004   0.377473   0.002565  -0.000134  -0.000058
     5  C    0.000000  -0.000000  -0.013645  -0.021816   0.002929   0.000010
     6  Br   0.000000  -0.000000   0.000813   0.001026  -0.000054  -0.000000
     7  C   -0.000000   0.000003   0.001789   0.393826  -0.021655   0.000043
     8  C    0.000003  -0.000019   0.000075  -0.017919   0.399726  -0.004685
     9  C   -0.000329   0.002387   0.002732   0.003061  -0.022996  -0.026525
    10  C    0.010700  -0.029096  -0.000173  -0.000020  -0.004731   0.383374
    11  C   -0.216688   0.182680   0.000751   0.000001   0.000185  -0.024071
    12  C    0.322285  -0.209652  -0.000009  -0.000000  -0.000003  -0.006056
    13  C    5.281715   0.322291   0.000001   0.000000   0.000000  -0.000135
    14  C    0.322291   5.294537  -0.000009  -0.000000  -0.000003   0.002471
    15  H    0.000001  -0.000009   0.416056  -0.000047   0.000008   0.000004
    16  H    0.000000  -0.000000  -0.000047   0.426834  -0.003967  -0.000000
    17  H    0.000000  -0.000003   0.000008  -0.003967   0.444831   0.001045
    18  H   -0.000135   0.002471   0.000004  -0.000000   0.001045   0.479153
    19  H   -0.000135  -0.006055   0.000004  -0.000000   0.001045  -0.023554
    20  H   -0.026802   0.011239   0.000000  -0.000000   0.000001   0.005887
    21  H   -0.036455   0.011565  -0.000008   0.000000  -0.000000   0.000091
    22  H    0.386787  -0.028583  -0.000000  -0.000000  -0.000000   0.000011
    23  H    0.388572  -0.031662  -0.000000  -0.000000   0.000000  -0.000061
    24  H   -0.026801   0.378155   0.000000  -0.000000   0.000001   0.000064
    25  H   -0.036456   0.389071  -0.000008   0.000000  -0.000000  -0.000159
              19         20         21         22         23         24
     1  O   -0.000031   0.000039   0.008178   0.000079  -0.000004   0.000039
     2  C    0.001666   0.001968  -0.002471  -0.000589  -0.000417   0.001967
     3  C   -0.000102  -0.000126   0.002285   0.000022   0.000023  -0.000126
     4  C   -0.000058  -0.000000   0.000021   0.000000  -0.000000  -0.000000
     5  C    0.000010  -0.000000  -0.000001  -0.000000   0.000000  -0.000000
     6  Br  -0.000000   0.000000  -0.000000  -0.000000  -0.000000   0.000000
     7  C    0.000043  -0.000000   0.000000   0.000000   0.000000  -0.000000
     8  C   -0.004685  -0.000012  -0.000001  -0.000000  -0.000000  -0.000012
     9  C   -0.026522   0.000375  -0.000495   0.000004   0.000011   0.000375
    10  C    0.383379  -0.008311   0.004478  -0.000398   0.000494  -0.008310
    11  C   -0.024075  -0.023405  -0.044692   0.013638   0.006821  -0.023403
    12  C    0.002471   0.378153   0.389078  -0.028585  -0.031661   0.011238
    13  C   -0.000135  -0.026802  -0.036455   0.386787   0.388572  -0.026801
    14  C   -0.006055   0.011239   0.011565  -0.028583  -0.031662   0.378155
    15  H    0.000004   0.000000  -0.000008  -0.000000  -0.000000   0.000000
    16  H   -0.000000  -0.000000   0.000000  -0.000000  -0.000000  -0.000000
    17  H    0.001045   0.000001  -0.000000  -0.000000   0.000000   0.000001
    18  H   -0.023554   0.005887   0.000091   0.000011  -0.000061   0.000064
    19  H    0.479147   0.000064  -0.000159   0.000011  -0.000061   0.005887
    20  H    0.000064   0.495874  -0.019716   0.001667  -0.006283  -0.000500
    21  H   -0.000159  -0.019716   0.477185  -0.004925   0.002991  -0.000431
    22  H    0.000011   0.001667  -0.004925   0.488196  -0.022331   0.001667
    23  H   -0.000061  -0.006283   0.002991  -0.022331   0.499783  -0.006282
    24  H    0.005887  -0.000500  -0.000431   0.001667  -0.006282   0.495866
    25  H    0.000091  -0.000432   0.000637  -0.004925   0.002991  -0.019715
              25
     1  O    0.008178
     2  C   -0.002473
     3  C    0.002285
     4  C    0.000021
     5  C   -0.000001
     6  Br  -0.000000
     7  C    0.000000
     8  C   -0.000001
     9  C   -0.000495
    10  C    0.004478
    11  C   -0.044687
    12  C    0.011565
    13  C   -0.036456
    14  C    0.389071
    15  H   -0.000008
    16  H    0.000000
    17  H   -0.000000
    18  H   -0.000159
    19  H    0.000091
    20  H   -0.000432
    21  H    0.000637
    22  H   -0.004925
    23  H    0.002991
    24  H   -0.019715
    25  H    0.477189
 Mulliken charges:
               1
     1  O   -0.558009
     2  C    0.626299
     3  C   -0.167282
     4  C   -0.059463
     5  C   -0.085185
     6  Br  -0.065218
     7  C   -0.149638
     8  C   -0.148895
     9  C   -0.070244
    10  C   -0.283794
    11  C   -0.397875
    12  C   -0.264575
    13  C   -0.381938
    14  C   -0.264571
    15  H    0.228185
    16  H    0.216407
    17  H    0.200896
    18  H    0.211616
    19  H    0.211619
    20  H    0.190320
    21  H    0.212844
    22  H    0.198255
    23  H    0.197076
    24  H    0.190324
    25  H    0.212845
 Sum of Mulliken charges =  -0.00000
 Mulliken charges with hydrogens summed into heavy atoms:
               1
     1  O   -0.558009
     2  C    0.626299
     3  C   -0.167282
     4  C    0.168722
     5  C   -0.085185
     6  Br  -0.065218
     7  C    0.066769
     8  C    0.052002
     9  C   -0.070244
    10  C    0.139441
    11  C   -0.397875
    12  C    0.138589
    13  C    0.013394
    14  C    0.138598
 Electronic spatial extent (au):  <R**2>=           4830.5324
 Charge=             -0.0000 electrons
 Dipole moment (field-independent basis, Debye):
    X=             -1.2969    Y=              3.1750    Z=             -0.0000  Tot=              3.4297
 Quadrupole moment (field-independent basis, Debye-Ang):
   XX=            -91.1319   YY=            -92.2646   ZZ=            -95.2346
   XY=             -3.8109   XZ=             -0.0001   YZ=              0.0003
 Traceless Quadrupole moment (field-independent basis, Debye-Ang):
   XX=              1.7452   YY=              0.6124   ZZ=             -2.3576
   XY=             -3.8109   XZ=             -0.0001   YZ=              0.0003
 Octapole moment (field-independent basis, Debye-Ang**2):
  XXX=            105.0456  YYY=              5.0122  ZZZ=             -0.0006  XYY=             49.8662
  XXY=              1.1189  XXZ=             -0.0002  XZZ=             32.2993  YZZ=             -9.1827
  YYZ=              0.0003  XYZ=             -0.0000
 Hexadecapole moment (field-independent basis, Debye-Ang**3):
 XXXX=          -4603.4531 YYYY=           -726.2338 ZZZZ=           -223.7810 XXXY=            -50.1468
 XXXZ=             -0.0017 YYYX=            -51.9589 YYYZ=             -0.0014 ZZZX=              0.0018
 ZZZY=             -0.0020 XXYY=           -883.5394 XXZZ=           -829.3289 YYZZ=           -161.0172
 XXYZ=              0.0012 YYXZ=              0.0006 ZZXY=            -15.6752
 N-N= 1.116612488900D+03 E-N=-9.600354407274D+03  KE= 3.090175753321D+03
 There are a total of      571444 grid points.
 ElSum from          density=      125.9999870859
 ElSum from atomic densities=      126.0000370432
 Hirshfeld populations at iteration   1 (CA, CB, DipXYZ):
               1          2          3          4          5
     1  O    4.117390   4.117390   0.004823   0.055966   0.000006
     2  C    2.924907   2.924907   0.004394   0.017651  -0.000041
     3  C    3.013785   3.013785  -0.030992  -0.045058  -0.000001
     4  C    3.012202   3.012202  -0.008072  -0.051786   0.000006
     5  C    2.995083   2.995083   0.044815  -0.012367  -0.000000
     6  Br  17.524104  17.524104   0.033212  -0.015058  -0.000004
     7  C    3.015412   3.015412   0.017060   0.036585   0.000001
     8  C    3.018445   3.018445  -0.007817   0.051006   0.000001
     9  C    2.996476   2.996476  -0.052280   0.036919  -0.000001
    10  C    3.022631   3.022631   0.009778  -0.002757   0.000002
    11  C    2.996783   2.996783   0.007626   0.003311   0.000004
    12  C    3.022020   3.022020  -0.017131   0.000304   0.013222
    13  C    3.023659   3.023659   0.018858  -0.008930   0.000001
    14  C    3.022017   3.022017  -0.017130   0.000310  -0.013221
    15  H    0.470989   0.470989   0.016422  -0.165153  -0.000010
    16  H    0.475103   0.475103   0.112866   0.119711   0.000002
    17  H    0.475879   0.475879  -0.024677   0.160420   0.000006
    18  H    0.481464   0.481464  -0.037777   0.086349  -0.113539
    19  H    0.481464   0.481464  -0.037777   0.086349   0.113540
    20  H    0.485981   0.485981  -0.012246   0.093402  -0.110188
    21  H    0.483185   0.483185   0.001231  -0.129930  -0.066871
    22  H    0.485337   0.485337  -0.097736  -0.112578  -0.000003
    23  H    0.486512   0.486512  -0.072793   0.126772  -0.000002
    24  H    0.485979   0.485979  -0.012246   0.093403   0.110189
    25  H    0.483185   0.483185   0.001232  -0.129932   0.066868
       Tot  62.999994  62.999994  -0.156357   0.294909  -0.000032

 Dip from Atomic Chgs             -0.353906   0.954311   0.000017
         Total Dipole             -0.510263   1.249220  -0.000015

 Hirshfeld charges, spin densities, dipoles, and CM5 charges using IRadAn=      5:
              Q-H        S-H        Dx         Dy         Dz        Q-CM5   
     1  O   -0.234779   0.000000   0.004823   0.055966   0.000006  -0.283275
     2  C    0.150186   0.000000   0.004394   0.017651  -0.000041   0.183224
     3  C   -0.027571   0.000000  -0.030992  -0.045058  -0.000001  -0.030212
     4  C   -0.024404   0.000000  -0.008072  -0.051786   0.000006  -0.074711
     5  C    0.009833   0.000000   0.044815  -0.012367  -0.000000  -0.011057
     6  Br  -0.048209   0.000000   0.033212  -0.015058  -0.000004  -0.033610
     7  C   -0.030825   0.000000   0.017060   0.036585   0.000001  -0.084951
     8  C   -0.036890   0.000000  -0.007817   0.051006   0.000001  -0.090529
     9  C    0.007048   0.000000  -0.052280   0.036919  -0.000001  -0.003912
    10  C   -0.045262   0.000000   0.009778  -0.002757   0.000002  -0.142760
    11  C    0.006433   0.000000   0.007626   0.003311   0.000004  -0.010951
    12  C   -0.044039   0.000000  -0.017131   0.000304   0.013222  -0.147839
    13  C   -0.047318   0.000000   0.018858  -0.008930   0.000001  -0.155396
    14  C   -0.044034   0.000000  -0.017130   0.000310  -0.013221  -0.147834
    15  H    0.058023   0.000000   0.016422  -0.165153  -0.000010   0.117281
    16  H    0.049794   0.000000   0.112866   0.119711   0.000002   0.107365
    17  H    0.048241   0.000000  -0.024677   0.160420   0.000006   0.105258
    18  H    0.037071   0.000000  -0.037777   0.086349  -0.113539   0.093741
    19  H    0.037073   0.000000  -0.037777   0.086349   0.113540   0.093743
    20  H    0.028038   0.000000  -0.012246   0.093402  -0.110188   0.083132
    21  H    0.033630   0.000000   0.001231  -0.129930  -0.066871   0.092272
    22  H    0.029326   0.000000  -0.097736  -0.112578  -0.000003   0.083612
    23  H    0.026976   0.000000  -0.072793   0.126772  -0.000002   0.082015
    24  H    0.028042   0.000000  -0.012246   0.093403   0.110189   0.083135
    25  H    0.033630   0.000000   0.001232  -0.129932   0.066868   0.092272
       Tot   0.000013   0.000000  -0.156357   0.294909  -0.000032   0.000013
 Hirshfeld charges with hydrogens summed into heavy atoms:
              Q-H       Q-CM5   
     1  O   -0.234779  -0.283275
     2  C    0.150186   0.183224
     3  C   -0.027571  -0.030212
     4  C    0.033619   0.042570
     5  C    0.009833  -0.011057
     6  Br  -0.048209  -0.033610
     7  C    0.018969   0.022414
     8  C    0.011352   0.014729
     9  C    0.007048  -0.003912
    10  C    0.028882   0.044724
    11  C    0.006433  -0.010951
    12  C    0.017629   0.027565
    13  C    0.008983   0.010230
    14  C    0.017638   0.027573
 
 EQQ= 0.000000000000E+00 EQD= 0.000000000000E+00 EDD= 0.279988018750E-02
 EQQ+QD+DD= 0.279988018750E-02
 
 Running external command "gaunbo6 R"
         input file       "/home/rpaton/opt/xtb/Gau-1516709.EIn"
         output file      "/home/rpaton/opt/xtb/Gau-1516709.EOu"
         message file     "/home/rpaton/opt/xtb/Gau-1516709.EMs"
         fchk file        "/home/rpaton/opt/xtb/Gau-1516709.EFC"
         mat. el file     "/home/rpaton/opt/xtb/Gau-1516709.EUF"

 Writing WrtUnf unformatted file "/home/rpaton/opt/xtb/Gau-1516709.EUF"
 Gaussian matrix elements                                         Version   2 NLab=11 Len12L=8 Len4L=8
 Write SHELL TO ATOM MAP                   from file      0 offset           0 length                  99 to matrix element file.
 Write SHELL TYPES                         from file      0 offset           0 length                  99 to matrix element file.
 Write NUMBER OF PRIMITIVES PER SHELL      from file      0 offset           0 length                  99 to matrix element file.
 Write PRIMITIVE EXPONENTS                 from file      0 offset           0 length                 176 to matrix element file.
 Write CONTRACTION COEFFICIENTS            from file      0 offset           0 length                 176 to matrix element file.
 Write P(S=P) CONTRACTION COEFFICIENTS     from file      0 offset           0 length                 176 to matrix element file.
 Write COORDINATES OF EACH SHELL           from file      0 offset           0 length                 297 to matrix element file.
 Write BONDS PER ATOM                      from file      0 offset           0 length                  25 to matrix element file.
 Write BONDED ATOMS                        from file      0 offset           0 length                  54 to matrix element file.
 Write BOND TYPES                          from file      0 offset           0 length                  54 to matrix element file.
 Write ONIOM CHARGE/MULT                   from file      0 offset           0 length                  32 to matrix element file.
 Write ONIOM ATOM LAYERS                   from file      0 offset           0 length                  25 to matrix element file.
 Write ONIOM ATOM MODIFIERS                from file      0 offset           0 length                  25 to matrix element file.
 Write ONIOM ATOM TYPES                    from file      0 offset           0 length                  25 to matrix element file.
 Write ONIOM LINK ATOMS                    from file      0 offset           0 length                  25 to matrix element file.
 Write ONIOM LINK CHARGES                  from file      0 offset           0 length                  25 to matrix element file.
 Write ONIOM LINK DISTANCES                from file      0 offset           0 length                 100 to matrix element file.
 Write SYMINF INTS                         from file      0 offset           0 length                  26 to matrix element file.
 Write ROTTR TO SO                         from file      0 offset           0 length                  12 to matrix element file.
 Write GAUSSIAN SCALARS                    from file    501 offset           0 to matrix element file.
 Write OPTIMIZATION FLAGS                  from file      0 offset           0 length                  25 to matrix element file.
 Write INTEGER ISO                         from file      0 offset           0 length                  25 to matrix element file.
 Write INTEGER SPIN                        from file      0 offset           0 length                  25 to matrix element file.
 Write REAL ZEFFECTIVE                     from file      0 offset           0 length                  25 to matrix element file.
 Write REAL QUADRUPOLEMOMENT               from file      0 offset           0 length                  25 to matrix element file.
 Write REAL GFACTOR                        from file      0 offset           0 length                  25 to matrix element file.
 Write REAL ZNUCLEAR                       from file      0 offset           0 length                  25 to matrix element file.
 Write MULLIKEN CHARGES                    from file      0 offset           0 length                  25 to matrix element file.
 Write TYPE 6 CHARGES                      from file      0 offset           0 length                  25 to matrix element file.
 Write TYPE 7 CHARGES                      from file      0 offset           0 length                  25 to matrix element file.
 Write NUCLEAR GRADIENT                    from file  10584 offset           0 length                  75 to matrix element file.
 Array NUCLEAR FORCE CONSTANTS              on  file  10585 does not exist.
 Write ELECTRIC DIPOLE MOMENT              from file      0 offset           0 length                   3 to matrix element file.
 Write NON-ADIABATIC COUPLING              from file  10810 offset           0 length                  75 to matrix element file.
 Write FINITE EM FIELD                     from file  10521 offset           0 length                  35 to matrix element file.
 Write OVERLAP                             from file  10514 offset           0 length               14706 to matrix element file.
 Write CORE HAMILTONIAN ALPHA              from file  10515 offset           0 length               14706 to matrix element file.
 Write CORE HAMILTONIAN BETA               from file  10515 offset       14706 length               14706 to matrix element file.
 Write KINETIC ENERGY                      from file  10516 offset           0 length               14706 to matrix element file.
 Write ORTHOGONAL BASIS                    from file  10685 offset           0 length               29241 to matrix element file.
 Write DIPOLE INTEGRALS                    from file  10518 offset           0 length               44118 to matrix element file.
 Array DIP VEL INTEGRALS                    on  file  10572 does not exist.
 Array R X DEL INTEGRALS                    on  file  10572 does not exist.
 Write ALPHA ORBITAL ENERGIES              from file      0 offset           0 length                 171 to matrix element file.
 Write ALPHA MO COEFFICIENTS               from file  10524 offset           0 length               29241 to matrix element file.
 Write ALPHA DENSITY MATRIX                from file      0 offset           0 length               14706 to matrix element file.
 Write ALPHA FOCK MATRIX                   from file  10536 offset           0 length               14706 to matrix element file.
 Write ENERGY-WEIGHTED DENSITY             from file  10571 offset           0 length               14706 to matrix element file.
 Write ALPHA SCF DENSITY MATRIX            from file      0 offset           0 length               14706 to matrix element file.
 Write INTEGER PARAMETERS                  from file      0 offset           0 length                   2 to matrix element file.
 No 2e integrals to process.
 Perform NBO analysis...

 *********************************** NBO 7.0 ***********************************
             N A T U R A L   A T O M I C   O R B I T A L   A N D
          N A T U R A L   B O N D   O R B I T A L   A N A L Y S I S
 **************************** Robert Paton (I101709) ***************************
  (c) Copyright 1996-2019 Board of Regents of the University of Wisconsin System
      on behalf of the Theoretical Chemistry Institute.  All rights reserved.

          Cite this program [NBO 7.0.5 (4-Jun-2019)] as:

          NBO 7.0.  E. D. Glendening, J. K. Badenhoop, A. E. Reed,
          J. E. Carpenter, J. A. Bohmann, C. M. Morales, P. Karafiloglou,
          C. R. Landis, and F. Weinhold, Theoretical Chemistry Institute,
          University of Wisconsin, Madison, WI (2018)

       /AONBO  / : Checkpoint the AO to NBO transformation
                   NBOs sorted by occupancy
       /BNDIDX / : Print bond indices based on the NAO density matrix

 Filename set to /home/rpaton/opt/xtb/Gau-1516709

 Job title:  energy: -39.449151330410 gnorm: 0.000222488892 xtb: 6.7.0 (08769fc)


 NATURAL POPULATIONS:  Natural atomic orbital occupancies

  NAO Atom No lang   Type(AO)    Occupancy      Energy
 -------------------------------------------------------
   1    O  1  s      Cor( 1s)     1.99989     -19.13803
   2    O  1  s      Val( 2s)     1.68696      -0.73268
   3    O  1  s      Ryd( 3s)     0.00069       1.81183
   4    O  1  px     Val( 2p)     1.86247      -0.32319
   5    O  1  px     Ryd( 3p)     0.00179       1.86001
   6    O  1  py     Val( 2p)     1.60433      -0.33252
   7    O  1  py     Ryd( 3p)     0.00015       2.00319
   8    O  1  pz     Val( 2p)     1.31877      -0.25985
   9    O  1  pz     Ryd( 3p)     0.00027       1.69081
  10    O  1  dxy    Ryd( 3d)     0.00362       2.14591
  11    O  1  dxz    Ryd( 3d)     0.00005       1.89364
  12    O  1  dyz    Ryd( 3d)     0.00420       1.94207
  13    O  1  dx2y2  Ryd( 3d)     0.00483       2.46448
  14    O  1  dz2    Ryd( 3d)     0.00164       2.11031

  15    C  2  s      Cor( 1s)     1.99985     -10.31573
  16    C  2  s      Val( 2s)     0.80661      -0.05643
  17    C  2  s      Ryd( 3s)     0.00427       0.81453
  18    C  2  px     Val( 2p)     0.99429      -0.01871
  19    C  2  px     Ryd( 3p)     0.00645       1.21014
  20    C  2  py     Val( 2p)     0.81516       0.07617
  21    C  2  py     Ryd( 3p)     0.02341       1.14966
  22    C  2  pz     Val( 2p)     0.77913      -0.10304
  23    C  2  pz     Ryd( 3p)     0.00245       0.94596

  24    C  3  s      Cor( 1s)     1.99989     -10.24774
  25    C  3  s      Val( 2s)     0.87014      -0.03463
  26    C  3  s      Ryd( 3s)     0.00180       0.74289
  27    C  3  px     Val( 2p)     1.12857      -0.04923
  28    C  3  px     Ryd( 3p)     0.00465       1.53600
  29    C  3  py     Val( 2p)     1.09652      -0.04625
  30    C  3  py     Ryd( 3p)     0.00477       1.42997
  31    C  3  pz     Val( 2p)     1.03691      -0.12842
  32    C  3  pz     Ryd( 3p)     0.00029       1.00472

  33    C  4  s      Cor( 1s)     1.99982     -10.25755
  34    C  4  s      Val( 2s)     0.93694      -0.06917
  35    C  4  s      Ryd( 3s)     0.00115       0.71497
  36    C  4  px     Val( 2p)     1.06367      -0.02551
  37    C  4  px     Ryd( 3p)     0.00632       0.98257
  38    C  4  py     Val( 2p)     1.22637      -0.08475
  39    C  4  py     Ryd( 3p)     0.00693       1.36757
  40    C  4  pz     Val( 2p)     0.95197      -0.12258
  41    C  4  pz     Ryd( 3p)     0.00036       0.92554

  42    C  5  s      Cor( 1s)     1.99989     -10.29963
  43    C  5  s      Val( 2s)     0.93399      -0.14518
  44    C  5  s      Ryd( 3s)     0.00057       0.71341
  45    C  5  px     Val( 2p)     1.00843      -0.12391
  46    C  5  px     Ryd( 3p)     0.00695       1.32823
  47    C  5  py     Val( 2p)     1.10189      -0.07296
  48    C  5  py     Ryd( 3p)     0.00756       1.12548
  49    C  5  pz     Val( 2p)     1.07536      -0.16420
  50    C  5  pz     Ryd( 3p)     0.00077       0.94180

  51   Br  6  s      Cor( 3s)     2.00000     -19.31535
  52   Br  6  s      Cor( 1s)     2.00000    -452.41339
  53   Br  6  s      Cor( 2s)     1.99999     -79.89407
  54   Br  6  s      Val( 4s)     1.87289      -0.77192
  55   Br  6  s      Ryd( 5s)     0.00283       0.85037
  56   Br  6  px     Cor( 3p)     2.00000      -7.18790
  57   Br  6  px     Cor( 2p)     1.99999     -55.65797
  58   Br  6  px     Val( 4p)     1.20229      -0.24655
  59   Br  6  px     Ryd( 5p)     0.00328       0.73800
  60   Br  6  py     Cor( 3p)     2.00000      -7.17612
  61   Br  6  py     Cor( 2p)     1.99999     -55.65505
  62   Br  6  py     Val( 4p)     1.89215      -0.35000
  63   Br  6  py     Ryd( 5p)     0.00151       0.76261
  64   Br  6  pz     Cor( 3p)     2.00000      -7.17473
  65   Br  6  pz     Cor( 2p)     2.00000     -55.65466
  66   Br  6  pz     Val( 4p)     1.94616      -0.35850
  67   Br  6  pz     Ryd( 5p)     0.00075       0.72882
  68   Br  6  dxy    Cor( 3d)     1.99960      -2.77386
  69   Br  6  dxy    Ryd( 4d)     0.00225       0.94675
  70   Br  6  dxz    Cor( 3d)     1.99989      -2.77275
  71   Br  6  dxz    Ryd( 4d)     0.00190       0.71065
  72   Br  6  dyz    Cor( 3d)     1.99998      -2.76352
  73   Br  6  dyz    Ryd( 4d)     0.00026       0.65338
  74   Br  6  dx2y2  Cor( 3d)     1.99952      -2.77392
  75   Br  6  dx2y2  Ryd( 4d)     0.00334       0.96845
  76   Br  6  dz2    Cor( 3d)     1.99980      -2.76630
  77   Br  6  dz2    Ryd( 4d)     0.00157       0.76305

  78    C  7  s      Cor( 1s)     1.99986     -10.25878
  79    C  7  s      Val( 2s)     0.94640      -0.08954
  80    C  7  s      Ryd( 3s)     0.00092       0.72772
  81    C  7  px     Val( 2p)     1.16440      -0.06321
  82    C  7  px     Ryd( 3p)     0.00643       1.21207
  83    C  7  py     Val( 2p)     1.12935      -0.06094
  84    C  7  py     Ryd( 3p)     0.00507       1.15242
  85    C  7  pz     Val( 2p)     0.97370      -0.13052
  86    C  7  pz     Ryd( 3p)     0.00038       0.92159

  87    C  8  s      Cor( 1s)     1.99984     -10.25266
  88    C  8  s      Val( 2s)     0.93528      -0.07125
  89    C  8  s      Ryd( 3s)     0.00082       0.73121
  90    C  8  px     Val( 2p)     1.07091      -0.02601
  91    C  8  px     Ryd( 3p)     0.00515       1.01614
  92    C  8  py     Val( 2p)     1.21202      -0.07768
  93    C  8  py     Ryd( 3p)     0.00557       1.37493
  94    C  8  pz     Val( 2p)     1.00634      -0.13000
  95    C  8  pz     Ryd( 3p)     0.00032       0.92827

  96    C  9  s      Cor( 1s)     1.99990     -10.26118
  97    C  9  s      Val( 2s)     0.84751      -0.03482
  98    C  9  s      Ryd( 3s)     0.00109       0.73961
  99    C  9  px     Val( 2p)     1.08841      -0.04402
 100    C  9  px     Ryd( 3p)     0.00465       1.56282
 101    C  9  py     Val( 2p)     1.09240      -0.03713
 102    C  9  py     Ryd( 3p)     0.00420       1.28359
 103    C  9  pz     Val( 2p)     0.95226      -0.11919
 104    C  9  pz     Ryd( 3p)     0.00112       0.99758

 105    C 10  s      Cor( 1s)     1.99975     -10.24478
 106    C 10  s      Val( 2s)     1.00992      -0.14529
 107    C 10  s      Ryd( 3s)     0.00080       1.26960
 108    C 10  px     Val( 2p)     1.05866      -0.07639
 109    C 10  px     Ryd( 3p)     0.00287       0.95471
 110    C 10  py     Val( 2p)     1.14148      -0.09460
 111    C 10  py     Ryd( 3p)     0.00208       0.97903
 112    C 10  pz     Val( 2p)     1.27373      -0.12721
 113    C 10  pz     Ryd( 3p)     0.00208       1.13206

 114    C 11  s      Cor( 1s)     1.99976     -10.24833
 115    C 11  s      Val( 2s)     0.91033      -0.10875
 116    C 11  s      Ryd( 3s)     0.00140       1.49614
 117    C 11  px     Val( 2p)     1.09534      -0.08561
 118    C 11  px     Ryd( 3p)     0.00365       1.34586
 119    C 11  py     Val( 2p)     1.07334      -0.08067
 120    C 11  py     Ryd( 3p)     0.00252       1.41718
 121    C 11  pz     Val( 2p)     1.09225      -0.09909
 122    C 11  pz     Ryd( 3p)     0.00156       1.17664

 123    C 12  s      Cor( 1s)     1.99977     -10.23050
 124    C 12  s      Val( 2s)     1.03544      -0.15866
 125    C 12  s      Ryd( 3s)     0.00078       1.23375
 126    C 12  px     Val( 2p)     1.01474      -0.07644
 127    C 12  px     Ryd( 3p)     0.00141       0.94981
 128    C 12  py     Val( 2p)     1.27627      -0.10966
 129    C 12  py     Ryd( 3p)     0.00366       1.20217
 130    C 12  pz     Val( 2p)     1.12532      -0.07357
 131    C 12  pz     Ryd( 3p)     0.00162       0.96422

 132    C 13  s      Cor( 1s)     1.99978     -10.22520
 133    C 13  s      Val( 2s)     1.04223      -0.16350
 134    C 13  s      Ryd( 3s)     0.00046       1.21359
 135    C 13  px     Val( 2p)     1.14024      -0.07209
 136    C 13  px     Ryd( 3p)     0.00158       0.95908
 137    C 13  py     Val( 2p)     1.27200      -0.10353
 138    C 13  py     Ryd( 3p)     0.00289       1.20886
 139    C 13  pz     Val( 2p)     1.03696      -0.07753
 140    C 13  pz     Ryd( 3p)     0.00103       0.93687

 141    C 14  s      Cor( 1s)     1.99977     -10.23051
 142    C 14  s      Val( 2s)     1.03544      -0.15866
 143    C 14  s      Ryd( 3s)     0.00078       1.23375
 144    C 14  px     Val( 2p)     1.01473      -0.07644
 145    C 14  px     Ryd( 3p)     0.00141       0.94980
 146    C 14  py     Val( 2p)     1.27628      -0.10967
 147    C 14  py     Ryd( 3p)     0.00366       1.20218
 148    C 14  pz     Val( 2p)     1.12532      -0.07357
 149    C 14  pz     Ryd( 3p)     0.00162       0.96422

 150    H 15  s      Val( 1s)     0.72330       0.15215
 151    H 15  s      Ryd( 2s)     0.00278       0.61804

 152    H 16  s      Val( 1s)     0.73185       0.14147
 153    H 16  s      Ryd( 2s)     0.00122       0.60380

 154    H 17  s      Val( 1s)     0.74331       0.13557
 155    H 17  s      Ryd( 2s)     0.00083       0.60476

 156    H 18  s      Val( 1s)     0.72908       0.12136
 157    H 18  s      Ryd( 2s)     0.00127       0.63387

 158    H 19  s      Val( 1s)     0.72908       0.12136
 159    H 19  s      Ryd( 2s)     0.00127       0.63387

 160    H 20  s      Val( 1s)     0.74993       0.13596
 161    H 20  s      Ryd( 2s)     0.00127       0.62930

 162    H 21  s      Val( 1s)     0.73401       0.14529
 163    H 21  s      Ryd( 2s)     0.00334       0.63952

 164    H 22  s      Val( 1s)     0.74423       0.14961
 165    H 22  s      Ryd( 2s)     0.00118       0.60977

 166    H 23  s      Val( 1s)     0.74747       0.13862
 167    H 23  s      Ryd( 2s)     0.00129       0.61521

 168    H 24  s      Val( 1s)     0.74993       0.13596
 169    H 24  s      Ryd( 2s)     0.00127       0.62930

 170    H 25  s      Val( 1s)     0.73401       0.14530
 171    H 25  s      Ryd( 2s)     0.00334       0.63952


 Summary of Natural Population Analysis:

                                     Natural Population
             Natural    ---------------------------------------------
  Atom No    Charge        Core      Valence    Rydberg      Total
 --------------------------------------------------------------------
    O  1   -0.48967      1.99989     6.47253    0.01725     8.48967
    C  2    0.56838      1.99985     3.39518    0.03658     5.43162
    C  3   -0.14355      1.99989     4.13214    0.01151     6.14355
    C  4   -0.19353      1.99982     4.17895    0.01476     6.19353
    C  5   -0.13541      1.99989     4.11967    0.01585     6.13541
   Br  6    0.07006     27.99876     6.91349    0.01769    34.92994
    C  7   -0.22650      1.99986     4.21385    0.01279     6.22650
    C  8   -0.23625      1.99984     4.22454    0.01187     6.23625
    C  9    0.00847      1.99990     3.98057    0.01105     5.99153
    C 10   -0.49138      1.99975     4.48380    0.00783     6.49138
    C 11   -0.18017      1.99976     4.17127    0.00914     6.18017
    C 12   -0.45901      1.99977     4.45177    0.00748     6.45901
    C 13   -0.49716      1.99978     4.49142    0.00596     6.49716
    C 14   -0.45901      1.99977     4.45177    0.00748     6.45901
    H 15    0.27392      0.00000     0.72330    0.00278     0.72608
    H 16    0.26692      0.00000     0.73185    0.00122     0.73308
    H 17    0.25586      0.00000     0.74331    0.00083     0.74414
    H 18    0.26965      0.00000     0.72908    0.00127     0.73035
    H 19    0.26965      0.00000     0.72908    0.00127     0.73035
    H 20    0.24880      0.00000     0.74993    0.00127     0.75120
    H 21    0.26264      0.00000     0.73401    0.00334     0.73736
    H 22    0.25459      0.00000     0.74423    0.00118     0.74541
    H 23    0.25124      0.00000     0.74747    0.00129     0.74876
    H 24    0.24880      0.00000     0.74993    0.00127     0.75120
    H 25    0.26264      0.00000     0.73401    0.00334     0.73736
 ====================================================================
 * Total *  0.00000     53.99654    71.79716    0.20630   126.00000

                                 Natural Population
 ---------------------------------------------------------
   Core                      53.99654 ( 99.9936% of   54)
   Valence                   71.79716 ( 99.7183% of   72)
   Natural Minimal Basis    125.79370 ( 99.8363% of  126)
   Natural Rydberg Basis      0.20630 (  0.1637% of  126)
 ---------------------------------------------------------

    Atom No         Natural Electron Configuration
 ----------------------------------------------------------------------------
      O  1      [core]2s( 1.69)2p( 4.79)3d( 0.01)
      C  2      [core]2s( 0.81)2p( 2.59)3p( 0.03)
      C  3      [core]2s( 0.87)2p( 3.26)3p( 0.01)
      C  4      [core]2s( 0.94)2p( 3.24)3p( 0.01)
      C  5      [core]2s( 0.93)2p( 3.19)3p( 0.02)
     Br  6      [core]4s( 1.87)4p( 5.04)4d( 0.01)5p( 0.01)
      C  7      [core]2s( 0.95)2p( 3.27)3p( 0.01)
      C  8      [core]2s( 0.94)2p( 3.29)3p( 0.01)
      C  9      [core]2s( 0.85)2p( 3.13)3p( 0.01)
      C 10      [core]2s( 1.01)2p( 3.47)3p( 0.01)
      C 11      [core]2s( 0.91)2p( 3.26)3p( 0.01)
      C 12      [core]2s( 1.04)2p( 3.42)3p( 0.01)
      C 13      [core]2s( 1.04)2p( 3.45)3p( 0.01)
      C 14      [core]2s( 1.04)2p( 3.42)3p( 0.01)
      H 15            1s( 0.72)
      H 16            1s( 0.73)
      H 17            1s( 0.74)
      H 18            1s( 0.73)
      H 19            1s( 0.73)
      H 20            1s( 0.75)
      H 21            1s( 0.73)
      H 22            1s( 0.74)
      H 23            1s( 0.75)
      H 24            1s( 0.75)
      H 25            1s( 0.73)


 Wiberg bond index matrix in the NAO basis:

     Atom    1       2       3       4       5       6       7       8       9
     ---- ------  ------  ------  ------  ------  ------  ------  ------  ------
   1.  O  0.0000  1.8238  0.0563  0.0272  0.0011  0.0006  0.0167  0.0008  0.0354
   2.  C  1.8238  0.0000  1.0156  0.0155  0.0072  0.0010  0.0051  0.0050  0.0219
   3.  C  0.0563  1.0156  0.0000  1.3607  0.0138  0.0121  0.0961  0.0135  1.3459
   4.  C  0.0272  0.0155  1.3607  0.0000  1.4299  0.0371  0.0148  0.1085  0.0154
   5.  C  0.0011  0.0072  0.0138  1.4299  0.0000  1.0297  1.3860  0.0140  0.0947
   6. Br  0.0006  0.0010  0.0121  0.0371  1.0297  0.0000  0.0339  0.0117  0.0118
   7.  C  0.0167  0.0051  0.0961  0.0148  1.3860  0.0339  0.0000  1.4392  0.0134
   8.  C  0.0008  0.0050  0.0135  0.1085  0.0140  0.0117  1.4392  0.0000  1.3950
   9.  C  0.0354  0.0219  1.3459  0.0154  0.0947  0.0118  0.0134  1.3950  0.0000
  10.  C  0.0064  0.0097  0.0105  0.0057  0.0012  0.0005  0.0068  0.0132  1.0059
  11.  C  0.0596  0.9524  0.0072  0.0045  0.0004  0.0008  0.0003  0.0041  0.0060
  12.  C  0.0151  0.0123  0.0029  0.0009  0.0002  0.0001  0.0011  0.0002  0.0038
  13.  C  0.0012  0.0034  0.0004  0.0001  0.0000  0.0000  0.0000  0.0000  0.0003
  14.  C  0.0151  0.0123  0.0029  0.0009  0.0002  0.0001  0.0011  0.0002  0.0038
  15.  H  0.0052  0.0020  0.0056  0.8924  0.0045  0.0046  0.0057  0.0001  0.0067
  16.  H  0.0001  0.0002  0.0002  0.0056  0.0042  0.0051  0.9016  0.0048  0.0058
  17.  H  0.0006  0.0003  0.0071  0.0001  0.0059  0.0009  0.0045  0.9066  0.0046
  18.  H  0.0020  0.0025  0.0090  0.0001  0.0031  0.0004  0.0000  0.0055  0.0026
  19.  H  0.0020  0.0025  0.0090  0.0001  0.0031  0.0004  0.0000  0.0055  0.0026
  20.  H  0.0008  0.0016  0.0001  0.0001  0.0000  0.0000  0.0000  0.0000  0.0000
  21.  H  0.0071  0.0025  0.0014  0.0001  0.0000  0.0000  0.0000  0.0001  0.0001
  22.  H  0.0005  0.0003  0.0003  0.0000  0.0000  0.0000  0.0000  0.0000  0.0000
  23.  H  0.0001  0.0001  0.0000  0.0000  0.0000  0.0000  0.0000  0.0000  0.0000
  24.  H  0.0008  0.0016  0.0001  0.0001  0.0000  0.0000  0.0000  0.0000  0.0000
  25.  H  0.0071  0.0025  0.0014  0.0001  0.0000  0.0000  0.0000  0.0001  0.0001

     Atom   10      11      12      13      14      15      16      17      18
     ---- ------  ------  ------  ------  ------  ------  ------  ------  ------
   1.  O  0.0064  0.0596  0.0151  0.0012  0.0151  0.0052  0.0001  0.0006  0.0020
   2.  C  0.0097  0.9524  0.0123  0.0034  0.0123  0.0020  0.0002  0.0003  0.0025
   3.  C  0.0105  0.0072  0.0029  0.0004  0.0029  0.0056  0.0002  0.0071  0.0090
   4.  C  0.0057  0.0045  0.0009  0.0001  0.0009  0.8924  0.0056  0.0001  0.0001
   5.  C  0.0012  0.0004  0.0002  0.0000  0.0002  0.0045  0.0042  0.0059  0.0031
   6. Br  0.0005  0.0008  0.0001  0.0000  0.0001  0.0046  0.0051  0.0009  0.0004
   7.  C  0.0068  0.0003  0.0011  0.0000  0.0011  0.0057  0.9016  0.0045  0.0000
   8.  C  0.0132  0.0041  0.0002  0.0000  0.0002  0.0001  0.0048  0.9066  0.0055
   9.  C  1.0059  0.0060  0.0038  0.0003  0.0038  0.0067  0.0058  0.0046  0.0026
  10.  C  0.0000  0.9842  0.0080  0.0008  0.0080  0.0002  0.0002  0.0022  0.8938
  11.  C  0.9842  0.0000  0.9644  0.0092  0.9644  0.0009  0.0002  0.0000  0.0027
  12.  C  0.0080  0.9644  0.0000  1.0026  0.0121  0.0000  0.0000  0.0000  0.0032
  13.  C  0.0008  0.0092  1.0026  0.0000  1.0026  0.0000  0.0000  0.0000  0.0000
  14.  C  0.0080  0.9644  0.0121  1.0026  0.0000  0.0000  0.0000  0.0000  0.0018
  15.  H  0.0002  0.0009  0.0000  0.0000  0.0000  0.0000  0.0003  0.0003  0.0001
  16.  H  0.0002  0.0002  0.0000  0.0000  0.0000  0.0003  0.0000  0.0023  0.0000
  17.  H  0.0022  0.0000  0.0000  0.0000  0.0000  0.0003  0.0023  0.0000  0.0001
  18.  H  0.8938  0.0027  0.0032  0.0000  0.0018  0.0001  0.0000  0.0001  0.0000
  19.  H  0.8938  0.0027  0.0018  0.0000  0.0032  0.0001  0.0000  0.0001  0.0009
  20.  H  0.0023  0.0028  0.9183  0.0032  0.0044  0.0000  0.0000  0.0000  0.0009
  21.  H  0.0040  0.0025  0.9062  0.0027  0.0007  0.0000  0.0000  0.0000  0.0001
  22.  H  0.0001  0.0049  0.0028  0.9173  0.0028  0.0000  0.0000  0.0000  0.0000
  23.  H  0.0001  0.0005  0.0026  0.9180  0.0026  0.0000  0.0000  0.0000  0.0000
  24.  H  0.0023  0.0028  0.0044  0.0032  0.9183  0.0000  0.0000  0.0000  0.0000
  25.  H  0.0040  0.0025  0.0007  0.0027  0.9062  0.0000  0.0000  0.0000  0.0003

     Atom   19      20      21      22      23      24      25
     ---- ------  ------  ------  ------  ------  ------  ------
   1.  O  0.0020  0.0008  0.0071  0.0005  0.0001  0.0008  0.0071
   2.  C  0.0025  0.0016  0.0025  0.0003  0.0001  0.0016  0.0025
   3.  C  0.0090  0.0001  0.0014  0.0003  0.0000  0.0001  0.0014
   4.  C  0.0001  0.0001  0.0001  0.0000  0.0000  0.0001  0.0001
   5.  C  0.0031  0.0000  0.0000  0.0000  0.0000  0.0000  0.0000
   6. Br  0.0004  0.0000  0.0000  0.0000  0.0000  0.0000  0.0000
   7.  C  0.0000  0.0000  0.0000  0.0000  0.0000  0.0000  0.0000
   8.  C  0.0055  0.0000  0.0001  0.0000  0.0000  0.0000  0.0001
   9.  C  0.0026  0.0000  0.0001  0.0000  0.0000  0.0000  0.0001
  10.  C  0.8938  0.0023  0.0040  0.0001  0.0001  0.0023  0.0040
  11.  C  0.0027  0.0028  0.0025  0.0049  0.0005  0.0028  0.0025
  12.  C  0.0018  0.9183  0.9062  0.0028  0.0026  0.0044  0.0007
  13.  C  0.0000  0.0032  0.0027  0.9173  0.9180  0.0032  0.0027
  14.  C  0.0032  0.0044  0.0007  0.0028  0.0026  0.9183  0.9062
  15.  H  0.0001  0.0000  0.0000  0.0000  0.0000  0.0000  0.0000
  16.  H  0.0000  0.0000  0.0000  0.0000  0.0000  0.0000  0.0000
  17.  H  0.0001  0.0000  0.0000  0.0000  0.0000  0.0000  0.0000
  18.  H  0.0009  0.0009  0.0001  0.0000  0.0000  0.0000  0.0003
  19.  H  0.0000  0.0000  0.0003  0.0000  0.0000  0.0009  0.0001
  20.  H  0.0000  0.0000  0.0010  0.0012  0.0023  0.0008  0.0001
  21.  H  0.0003  0.0010  0.0000  0.0022  0.0047  0.0001  0.0001
  22.  H  0.0000  0.0012  0.0022  0.0000  0.0007  0.0012  0.0022
  23.  H  0.0000  0.0023  0.0047  0.0007  0.0000  0.0023  0.0047
  24.  H  0.0009  0.0008  0.0001  0.0012  0.0023  0.0000  0.0010
  25.  H  0.0001  0.0001  0.0001  0.0022  0.0047  0.0010  0.0000


 Wiberg bond index, Totals by atom:

     Atom    1
     ---- ------
   1.  O  2.0858
   2.  C  3.9013
   3.  C  3.9722
   4.  C  3.9196
   5.  C  3.9995
   6. Br  1.1508
   7.  C  3.9262
   8.  C  3.9282
   9.  C  3.9758
  10.  C  3.8641
  11.  C  3.9799
  12.  C  3.8636
  13.  C  3.8680
  14.  C  3.8636
  15.  H  0.9290
  16.  H  0.9305
  17.  H  0.9358
  18.  H  0.9291
  19.  H  0.9291
  20.  H  0.9400
  21.  H  0.9359
  22.  H  0.9369
  23.  H  0.9388
  24.  H  0.9400
  25.  H  0.9359


 NBI: Natural Binding Index (NCU strength parameters)

     Atom    1       2       3       4       5       6       7       8       9
     ---- ------  ------  ------  ------  ------  ------  ------  ------  ------
   1.  O  0.0000  1.3505  0.2373  0.1649  0.0333  0.0239  0.1291  0.0288  0.1882
   2.  C  1.3505  0.0000  1.0078  0.1244  0.0847  0.0317  0.0713  0.0709  0.1480
   3.  C  0.2373  1.0078  0.0000  1.1665  0.1176  0.1102  0.3100  0.1160  1.1601
   4.  C  0.1649  0.1244  1.1665  0.0000  1.1958  0.1927  0.1215  0.3294  0.1239
   5.  C  0.0333  0.0847  0.1176  1.1958  0.0000  1.0147  1.1773  0.1185  0.3077
   6. Br  0.0239  0.0317  0.1102  0.1927  1.0147  0.0000  0.1840  0.1082  0.1085
   7.  C  0.1291  0.0713  0.3100  0.1215  1.1773  0.1840  0.0000  1.1997  0.1156
   8.  C  0.0288  0.0709  0.1160  0.3294  0.1185  0.1082  1.1997  0.0000  1.1811
   9.  C  0.1882  0.1480  1.1601  0.1239  0.3077  0.1085  0.1156  1.1811  0.0000
  10.  C  0.0800  0.0982  0.1025  0.0755  0.0344  0.0215  0.0824  0.1148  1.0030
  11.  C  0.2442  0.9759  0.0847  0.0670  0.0197  0.0287  0.0172  0.0637  0.0777
  12.  C  0.1231  0.1111  0.0538  0.0299  0.0152  0.0085  0.0325  0.0124  0.0612
  13.  C  0.0352  0.0580  0.0212  0.0093  0.0055  0.0051  0.0051  0.0060  0.0167
  14.  C  0.1231  0.1111  0.0538  0.0299  0.0152  0.0085  0.0325  0.0124  0.0612
  15.  H  0.0722  0.0444  0.0749  0.9447  0.0673  0.0678  0.0756  0.0119  0.0817
  16.  H  0.0073  0.0138  0.0151  0.0750  0.0647  0.0711  0.9495  0.0693  0.0762
  17.  H  0.0248  0.0163  0.0843  0.0107  0.0768  0.0298  0.0670  0.9522  0.0681
  18.  H  0.0444  0.0505  0.0951  0.0074  0.0558  0.0208  0.0061  0.0739  0.0511
  19.  H  0.0444  0.0505  0.0951  0.0074  0.0558  0.0208  0.0061  0.0739  0.0511
  20.  H  0.0288  0.0395  0.0095  0.0075  0.0032  0.0026  0.0044  0.0068  0.0064
  21.  H  0.0845  0.0497  0.0368  0.0080  0.0068  0.0060  0.0046  0.0114  0.0098
  22.  H  0.0222  0.0187  0.0159  0.0051  0.0029  0.0035  0.0016  0.0019  0.0060
  23.  H  0.0087  0.0118  0.0038  0.0029  0.0013  0.0014  0.0007  0.0022  0.0051
  24.  H  0.0288  0.0395  0.0095  0.0075  0.0032  0.0026  0.0044  0.0068  0.0064
  25.  H  0.0845  0.0497  0.0368  0.0080  0.0068  0.0060  0.0046  0.0114  0.0098

     Atom   10      11      12      13      14      15      16      17      18
     ---- ------  ------  ------  ------  ------  ------  ------  ------  ------
   1.  O  0.0800  0.2442  0.1231  0.0352  0.1231  0.0722  0.0073  0.0248  0.0444
   2.  C  0.0982  0.9759  0.1111  0.0580  0.1111  0.0444  0.0138  0.0163  0.0505
   3.  C  0.1025  0.0847  0.0538  0.0212  0.0538  0.0749  0.0151  0.0843  0.0951
   4.  C  0.0755  0.0670  0.0299  0.0093  0.0299  0.9447  0.0750  0.0107  0.0074
   5.  C  0.0344  0.0197  0.0152  0.0055  0.0152  0.0673  0.0647  0.0768  0.0558
   6. Br  0.0215  0.0287  0.0085  0.0051  0.0085  0.0678  0.0711  0.0298  0.0208
   7.  C  0.0824  0.0172  0.0325  0.0051  0.0325  0.0756  0.9495  0.0670  0.0061
   8.  C  0.1148  0.0637  0.0124  0.0060  0.0124  0.0119  0.0693  0.9522  0.0739
   9.  C  1.0030  0.0777  0.0612  0.0167  0.0612  0.0817  0.0762  0.0681  0.0511
  10.  C  0.0000  0.9921  0.0894  0.0287  0.0894  0.0141  0.0158  0.0473  0.9454
  11.  C  0.9921  0.0000  0.9820  0.0961  0.9820  0.0307  0.0132  0.0068  0.0515
  12.  C  0.0894  0.9820  0.0000  1.0013  0.1099  0.0051  0.0040  0.0039  0.0565
  13.  C  0.0287  0.0961  1.0013  0.0000  1.0013  0.0036  0.0022  0.0018  0.0066
  14.  C  0.0894  0.9820  0.1099  1.0013  0.0000  0.0051  0.0040  0.0039  0.0426
  15.  H  0.0141  0.0307  0.0051  0.0036  0.0051  0.0000  0.0175  0.0180  0.0109
  16.  H  0.0158  0.0132  0.0040  0.0022  0.0040  0.0175  0.0000  0.0477  0.0010
  17.  H  0.0473  0.0068  0.0039  0.0018  0.0039  0.0180  0.0477  0.0000  0.0105
  18.  H  0.9454  0.0515  0.0565  0.0066  0.0426  0.0109  0.0010  0.0105  0.0000
  19.  H  0.9454  0.0515  0.0426  0.0066  0.0565  0.0109  0.0010  0.0105  0.0299
  20.  H  0.0483  0.0533  0.9583  0.0562  0.0660  0.0025  0.0019  0.0011  0.0292
  21.  H  0.0633  0.0496  0.9519  0.0523  0.0270  0.0062  0.0022  0.0015  0.0076
  22.  H  0.0111  0.0700  0.0532  0.9578  0.0532  0.0026  0.0010  0.0010  0.0012
  23.  H  0.0099  0.0219  0.0508  0.9581  0.0508  0.0002  0.0006  0.0004  0.0008
  24.  H  0.0483  0.0533  0.0660  0.0562  0.9583  0.0025  0.0019  0.0011  0.0026
  25.  H  0.0633  0.0496  0.0270  0.0523  0.9519  0.0062  0.0022  0.0015  0.0162

     Atom   19      20      21      22      23      24      25
     ---- ------  ------  ------  ------  ------  ------  ------
   1.  O  0.0444  0.0288  0.0845  0.0222  0.0087  0.0288  0.0845
   2.  C  0.0505  0.0395  0.0497  0.0187  0.0118  0.0395  0.0497
   3.  C  0.0951  0.0095  0.0368  0.0159  0.0038  0.0095  0.0368
   4.  C  0.0074  0.0075  0.0080  0.0051  0.0029  0.0075  0.0080
   5.  C  0.0558  0.0032  0.0068  0.0029  0.0013  0.0032  0.0068
   6. Br  0.0208  0.0026  0.0060  0.0035  0.0014  0.0026  0.0060
   7.  C  0.0061  0.0044  0.0046  0.0016  0.0007  0.0044  0.0046
   8.  C  0.0739  0.0068  0.0114  0.0019  0.0022  0.0068  0.0114
   9.  C  0.0511  0.0064  0.0098  0.0060  0.0051  0.0064  0.0098
  10.  C  0.9454  0.0483  0.0633  0.0111  0.0099  0.0483  0.0633
  11.  C  0.0515  0.0533  0.0496  0.0700  0.0219  0.0533  0.0496
  12.  C  0.0426  0.9583  0.9519  0.0532  0.0508  0.0660  0.0270
  13.  C  0.0066  0.0562  0.0523  0.9578  0.9581  0.0562  0.0523
  14.  C  0.0565  0.0660  0.0270  0.0532  0.0508  0.9583  0.9519
  15.  H  0.0109  0.0025  0.0062  0.0026  0.0002  0.0025  0.0062
  16.  H  0.0010  0.0019  0.0022  0.0010  0.0006  0.0019  0.0022
  17.  H  0.0105  0.0011  0.0015  0.0010  0.0004  0.0011  0.0015
  18.  H  0.0299  0.0292  0.0076  0.0012  0.0008  0.0026  0.0162
  19.  H  0.0000  0.0026  0.0162  0.0012  0.0008  0.0292  0.0076
  20.  H  0.0026  0.0000  0.0310  0.0352  0.0484  0.0280  0.0115
  21.  H  0.0162  0.0310  0.0000  0.0474  0.0685  0.0115  0.0080
  22.  H  0.0012  0.0352  0.0474  0.0000  0.0271  0.0352  0.0474
  23.  H  0.0008  0.0484  0.0685  0.0271  0.0000  0.0484  0.0685
  24.  H  0.0292  0.0280  0.0115  0.0352  0.0484  0.0000  0.0310
  25.  H  0.0076  0.0115  0.0080  0.0474  0.0685  0.0310  0.0000


 NATURAL BOND ORBITAL ANALYSIS:

                            Occupancies       Lewis Structure    Low   High
         Max    Occ     -------------------  -----------------   occ   occ
  Cycle  Ctr   Thresh    Lewis   non-Lewis     CR  BD  nC  LP    (L)   (NL)
 ============================================================================
    1     2     1.90   121.47112   4.52888     27  28   0   8     4      6
    2     2     1.86   122.33858   3.66142     27  28   0   8     3      4
    3     2     1.68   122.94456   3.05544     27  29   0   7     2      4
    4     2     1.66   123.60657   2.39343     27  30   0   6     1      4
    5     2     1.65   123.60657   2.39343     27  30   0   6     1      4
    6     2     1.62   124.12945   1.87055     27  31   0   5     0      4
    7     2     1.61   124.18872   1.81128     27  31   0   5     0      4
 ----------------------------------------------------------------------------

 Structure accepted: No low occupancy Lewis orbitals

 -------------------------------------------------------
   Core                     53.99654 ( 99.994% of  54)
   Valence Lewis            70.19217 ( 97.489% of  72)
  ==================      =============================
   Total Lewis             124.18872 ( 98.562% of 126)
  -----------------------------------------------------
   Valence non-Lewis         1.66826 (  1.324% of 126)
   Rydberg non-Lewis         0.14302 (  0.114% of 126)
  ==================      =============================
   Total non-Lewis           1.81128 (  1.438% of 126)
 -------------------------------------------------------


     (Occupancy)   Bond orbital / Coefficients / Hybrids
 ------------------ Lewis ------------------------------------------------------
   1. (1.99989) CR ( 1) O  1            s(100.00%)
                                         1.0000  0.0000  0.0000  0.0000  0.0000
                                         0.0000  0.0000  0.0000  0.0000  0.0000
                                         0.0000  0.0000  0.0000  0.0000
   2. (1.99985) CR ( 1) C  2            s(100.00%)
                                         1.0000  0.0000  0.0000  0.0000  0.0000
                                         0.0000  0.0000  0.0000  0.0000
   3. (1.99989) CR ( 1) C  3            s(100.00%)
                                         1.0000  0.0000  0.0000  0.0000  0.0000
                                         0.0000  0.0000  0.0000  0.0000
   4. (1.99982) CR ( 1) C  4            s(100.00%)
                                         1.0000  0.0000  0.0000  0.0000  0.0000
                                         0.0000  0.0000  0.0000  0.0000
   5. (1.99989) CR ( 1) C  5            s(100.00%)
                                         1.0000  0.0000  0.0000  0.0000  0.0000
                                         0.0000  0.0000  0.0000  0.0000
   6. (2.00000) CR ( 1)Br  6            s(100.00%)
                                         1.0000  0.0000  0.0000  0.0000  0.0000
                                         0.0000  0.0000  0.0000  0.0000  0.0000
                                         0.0000  0.0000  0.0000  0.0000  0.0000
                                         0.0000  0.0000  0.0000  0.0000  0.0000
                                         0.0000  0.0000  0.0000  0.0000  0.0000
                                         0.0000  0.0000
   7. (2.00000) CR ( 2)Br  6            s(100.00%)
                                         0.0000  1.0000  0.0000  0.0000  0.0000
                                         0.0000  0.0000  0.0000  0.0000  0.0000
                                         0.0000  0.0000  0.0000  0.0000  0.0000
                                         0.0000  0.0000  0.0000  0.0000  0.0000
                                         0.0000  0.0000  0.0000  0.0000  0.0000
                                         0.0000  0.0000
   8. (1.99999) CR ( 3)Br  6            s(100.00%)
                                         0.0000  0.0000  1.0000  0.0000  0.0000
                                         0.0000  0.0000  0.0000  0.0000  0.0000
                                         0.0000  0.0000  0.0000  0.0000  0.0000
                                         0.0000  0.0000  0.0000  0.0000  0.0000
                                         0.0000  0.0000  0.0000  0.0000  0.0000
                                         0.0000  0.0000
   9. (2.00000) CR ( 4)Br  6            s(  0.00%)p 1.00(100.00%)
                                         0.0000  0.0000  0.0000  0.0000  0.0000
                                         1.0000  0.0000  0.0000  0.0000  0.0000
                                         0.0000  0.0000  0.0000  0.0000  0.0000
                                         0.0000  0.0000  0.0000  0.0000  0.0000
                                         0.0000  0.0000  0.0000  0.0000  0.0000
                                         0.0000  0.0000
  10. (1.99999) CR ( 5)Br  6            s(  0.00%)p 1.00(100.00%)
                                         0.0000  0.0000  0.0000  0.0000  0.0000
                                         0.0000  1.0000  0.0000  0.0000  0.0000
                                         0.0000  0.0000  0.0000  0.0000  0.0000
                                         0.0000  0.0000  0.0000  0.0000  0.0000
                                         0.0000  0.0000  0.0000  0.0000  0.0000
                                         0.0000  0.0000
  11. (2.00000) CR ( 6)Br  6            s(  0.00%)p 1.00(100.00%)
                                         0.0000  0.0000  0.0000  0.0000  0.0000
                                         0.0000  0.0000  0.0000  0.0000  1.0000
                                         0.0000  0.0000  0.0000  0.0000  0.0000
                                         0.0000  0.0000  0.0000  0.0000  0.0000
                                         0.0000  0.0000  0.0000  0.0000  0.0000
                                         0.0000  0.0000
  12. (1.99999) CR ( 7)Br  6            s(  0.00%)p 1.00(100.00%)
                                         0.0000  0.0000  0.0000  0.0000  0.0000
                                         0.0000  0.0000  0.0000  0.0000  0.0000
                                         1.0000  0.0000  0.0000  0.0000  0.0000
                                         0.0000  0.0000  0.0000  0.0000  0.0000
                                         0.0000  0.0000  0.0000  0.0000  0.0000
                                         0.0000  0.0000
  13. (2.00000) CR ( 8)Br  6            s(  0.00%)p 1.00(100.00%)
                                         0.0000  0.0000  0.0000  0.0000  0.0000
                                         0.0000  0.0000  0.0000  0.0000  0.0000
                                         0.0000  0.0000  0.0000  1.0000  0.0000
                                         0.0000  0.0000  0.0000  0.0000  0.0000
                                         0.0000  0.0000  0.0000  0.0000  0.0000
                                         0.0000  0.0000
  14. (2.00000) CR ( 9)Br  6            s(  0.00%)p 1.00(100.00%)
                                         0.0000  0.0000  0.0000  0.0000  0.0000
                                         0.0000  0.0000  0.0000  0.0000  0.0000
                                         0.0000  0.0000  0.0000  0.0000  1.0000
                                         0.0000  0.0000  0.0000  0.0000  0.0000
                                         0.0000  0.0000  0.0000  0.0000  0.0000
                                         0.0000  0.0000
  15. (1.99960) CR (10)Br  6            s(  0.00%)p 0.00(  0.00%)d 1.00(100.00%)
                                         0.0000  0.0000  0.0000  0.0000  0.0000
                                         0.0000  0.0000  0.0000  0.0000  0.0000
                                         0.0000  0.0000  0.0000  0.0000  0.0000
                                         0.0000  0.0000  1.0000  0.0000  0.0000
                                         0.0000  0.0000  0.0000  0.0000  0.0000
                                         0.0000  0.0000
  16. (1.99989) CR (11)Br  6            s(  0.00%)p 0.00(  0.00%)d 1.00(100.00%)
                                         0.0000  0.0000  0.0000  0.0000  0.0000
                                         0.0000  0.0000  0.0000  0.0000  0.0000
                                         0.0000  0.0000  0.0000  0.0000  0.0000
[...]
   52. BD ( 1) C 10- H 18       1.97499    -0.56572  70(v),85(v),86(v),69(v)
                                                     139(v),81(g),82(g),67(v)
   53. BD ( 1) C 10- H 19       1.97499    -0.56573  70(v),86(v),85(v),69(v)
                                                     139(v),81(g),82(g),67(v)
   54. BD ( 1) C 11- C 12       1.96175    -0.58931  65(v),93(v),91(v),67(g)
                                                     82(g),104(v),86(g),106(v)
                                                     141(v),143(v),83(v),87(g)
                                                     88(g),89(g)
   55. BD ( 1) C 11- C 14       1.96175    -0.58932  65(v),88(v),91(v),67(g)
                                                     82(g),104(v),85(g),106(v)
                                                     141(v),143(v),84(v),90(g)
                                                     93(g),94(g)
   56. BD ( 1) C 12- C 13       1.98898    -0.59483  93(v),67(v),85(g),89(g)
                                                     91(g),88(g),90(g),92(g)
   57. BD ( 1) C 12- H 20       1.99097    -0.56288  145(v),82(v),153(v)
   58. BD ( 1) C 12- H 21       1.98752    -0.55567  82(v),92(v),67(v),153(v)
                                                     91(v)
   59. BD ( 1) C 13- C 14       1.98898    -0.59483  88(v),67(v),86(g),94(g)
                                                     91(g),93(g),87(g),92(g)
   60. BD ( 1) C 13- H 22       1.99281    -0.55770
   61. BD ( 1) C 13- H 23       1.98913    -0.55682  89(v),94(v),149(v),157(v)
                                                     88(v),93(v)
   62. BD ( 1) C 14- H 24       1.99097    -0.56289  145(v),82(v),153(v)
   63. BD ( 1) C 14- H 25       1.98752    -0.55567  82(v),92(v),67(v),153(v)
                                                     91(v)
 ------ non-Lewis ----------------------------------
   64. BD*( 1) O  1- C  2       0.00888     0.70140
   65. BD*( 2) O  1- C  2       0.12656     0.08842
   66. BD*( 1) C  2- C  3       0.06919     0.55094
   67. BD*( 1) C  2- C 11       0.07668     0.48523
   68. BD*( 1) C  3- C  4       0.02345     0.68143
   69. BD*( 1) C  3- C  9       0.02675     0.66182
   70. BD*( 2) C  3- C  9       0.37011     0.06743
   71. BD*( 1) C  4- C  5       0.02069     0.66049
   72. BD*( 2) C  4- C  5       0.34603     0.05121
   73. BD*( 1) C  4- H 15       0.01388     0.58624
   74. BD*( 1) C  5-Br  6       0.02624     0.17306
   75. BD*( 1) C  5- C  7       0.02219     0.64780
   76. BD*( 1) C  7- C  8       0.01592     0.67107
   77. BD*( 2) C  7- C  8       0.31179     0.06294
   78. BD*( 1) C  7- H 16       0.01095     0.57871
   79. BD*( 1) C  8- C  9       0.02248     0.68414
   80. BD*( 1) C  8- H 17       0.01216     0.57592
   81. BD*( 1) C  9- C 10       0.02252     0.51380
   82. BD*( 1) C 10- C 11       0.02012     0.46874
   83. BD*( 1) C 10- H 18       0.01226     0.53090
   84. BD*( 1) C 10- H 19       0.01226     0.53091
   85. BD*( 1) C 11- C 12       0.01353     0.43811
   86. BD*( 1) C 11- C 14       0.01353     0.43811
   87. BD*( 1) C 12- C 13       0.00363     0.45048
   88. BD*( 1) C 12- H 20       0.01046     0.55800
   89. BD*( 1) C 12- H 21       0.01161     0.56052
   90. BD*( 1) C 13- C 14       0.00363     0.45048
   91. BD*( 1) C 13- H 22       0.00999     0.57070
   92. BD*( 1) C 13- H 23       0.00874     0.55887
   93. BD*( 1) C 14- H 24       0.01046     0.55800
   94. BD*( 1) C 14- H 25       0.01160     0.56053
   95. RY ( 1) O  1             0.00184     1.77824
   96. RY ( 2) O  1             0.00057     2.07683
   97. RY ( 3) O  1             0.00016     1.67962
   98. RY ( 4) O  1             0.00005     2.45041
   99. RY ( 5) O  1             0.00004     2.19502
  100. RY ( 6) O  1             0.00001     1.95607
  101. RY ( 7) O  1             0.00001     2.01793
  102. RY ( 8) O  1             0.00000     1.87950
  103. RY ( 9) O  1             0.00000     1.89257
  104. RY ( 1) C  2             0.01791     1.01114
  105. RY ( 2) C  2             0.00641     1.21194
  106. RY ( 3) C  2             0.00177     0.95049
  107. RY ( 4) C  2             0.00127     0.93729
  108. RY ( 1) C  3             0.00468     1.39569
  109. RY ( 2) C  3             0.00405     1.48971
  110. RY ( 3) C  3             0.00109     0.82112
  111. RY ( 4) C  3             0.00029     1.00445
  112. RY ( 1) C  4             0.00595     1.37684
  113. RY ( 2) C  4             0.00436     0.96129
  114. RY ( 3) C  4             0.00057     0.71458
  115. RY ( 4) C  4             0.00031     0.92617
  116. RY ( 1) C  5             0.00645     1.09052
  117. RY ( 2) C  5             0.00511     1.36029
  118. RY ( 3) C  5             0.00079     0.94152
  119. RY ( 4) C  5             0.00036     0.71100
  120. RY ( 1)Br  6             0.00195     0.67982
  121. RY ( 2)Br  6             0.00091     0.74452
  122. RY ( 3)Br  6             0.00060     1.12020
  123. RY ( 4)Br  6             0.00026     0.82153
  124. RY ( 5)Br  6             0.00011     0.93405
  125. RY ( 6)Br  6             0.00004     0.64940
  126. RY ( 7)Br  6             0.00003     0.67384
  127. RY ( 8)Br  6             0.00002     0.76396
  128. RY ( 9)Br  6             0.00001     0.71768
  129. RY ( 1) C  7             0.00539     1.34142
  130. RY ( 2) C  7             0.00342     1.02048
  131. RY ( 3) C  7             0.00046     0.71950
  132. RY ( 4) C  7             0.00027     0.92308
  133. RY ( 1) C  8             0.00474     1.39775
  134. RY ( 2) C  8             0.00350     0.98222
  135. RY ( 3) C  8             0.00039     0.73034
  136. RY ( 4) C  8             0.00019     0.92983
  137. RY ( 1) C  9             0.00416     1.53001
  138. RY ( 2) C  9             0.00341     1.28176
  139. RY ( 3) C  9             0.00112     0.99756
  140. RY ( 4) C  9             0.00071     0.77434
  141. RY ( 1) C 10             0.00227     0.96373
  142. RY ( 2) C 10             0.00193     0.97964
  143. RY ( 3) C 10             0.00161     1.13383
  144. RY ( 4) C 10             0.00058     1.25154
  145. RY ( 1) C 11             0.00350     1.42022
  146. RY ( 2) C 11             0.00157     1.28085
  147. RY ( 3) C 11             0.00113     1.17406
  148. RY ( 4) C 11             0.00102     1.56178
  149. RY ( 1) C 12             0.00333     1.22640
  150. RY ( 2) C 12             0.00110     0.97988
  151. RY ( 3) C 12             0.00070     1.17192
  152. RY ( 4) C 12             0.00020     0.96874
  153. RY ( 1) C 13             0.00243     1.21620
  154. RY ( 2) C 13             0.00105     1.00150
  155. RY ( 3) C 13             0.00034     1.16882
  156. RY ( 4) C 13             0.00012     0.93019
  157. RY ( 1) C 14             0.00333     1.22641
  158. RY ( 2) C 14             0.00110     0.97981
  159. RY ( 3) C 14             0.00070     1.17201
  160. RY ( 4) C 14             0.00020     0.96871
  161. RY ( 1) H 15             0.00280     0.61535
  162. RY ( 1) H 16             0.00123     0.60239
  163. RY ( 1) H 17             0.00084     0.60354
  164. RY ( 1) H 18             0.00127     0.63290
  165. RY ( 1) H 19             0.00127     0.63290
  166. RY ( 1) H 20             0.00128     0.62827
  167. RY ( 1) H 21             0.00336     0.63725
  168. RY ( 1) H 22             0.00118     0.60885
  169. RY ( 1) H 23             0.00129     0.61450
  170. RY ( 1) H 24             0.00128     0.62827
  171. RY ( 1) H 25             0.00336     0.63725
          -------------------------------
                 Total Lewis  124.18872  ( 98.5625%)
           Valence non-Lewis    1.66826  (  1.3240%)
           Rydberg non-Lewis    0.14302  (  0.1135%)
          -------------------------------
               Total unit  1  126.00000  (100.0000%)
              Charge unit  1    0.00000

 $CHOOSE
   LONE 1 2 6 3 END
   BOND D 1 2 S 2 3 S 2 11 S 3 4 D 3 9 D 4 5 S 4 15 S 5 6 S 5 7 D 7 8 S 7 16
        S 8 9 S 8 17 S 9 10 S 10 11 S 10 18 S 10 19 S 11 12 S 11 14 S 12 13
        S 12 20 S 12 21 S 13 14 S 13 22 S 13 23 S 14 24 S 14 25 END
 $END


 Checkpoint NBOs sorted by occupancy:

  Sort    Occ       Energy   Orig   Label
 -----------------------------------------------------------
    1.  2.00000   -19.31535    6.   CR ( 1)Br  6
    2.  2.00000  -452.41339    7.   CR ( 2)Br  6
    3.  2.00000    -7.18790    9.   CR ( 4)Br  6
    4.  2.00000    -7.17612   11.   CR ( 6)Br  6
    5.  2.00000    -7.17473   13.   CR ( 8)Br  6
    6.  2.00000   -55.65466   14.   CR ( 9)Br  6
    7.  1.99999   -79.89407    8.   CR ( 3)Br  6
    8.  1.99999   -55.65505   12.   CR ( 7)Br  6
    9.  1.99999   -55.65797   10.   CR ( 5)Br  6
   10.  1.99998    -2.76352   17.   CR (12)Br  6
   11.  1.99990   -10.26118   22.   CR ( 1) C  9
   12.  1.99989   -10.24774    3.   CR ( 1) C  3
   13.  1.99989   -10.29963    5.   CR ( 1) C  5
   14.  1.99989   -19.13803    1.   CR ( 1) O  1
   15.  1.99989    -2.77275   16.   CR (11)Br  6
   16.  1.99986   -10.25878   20.   CR ( 1) C  7
   17.  1.99985   -10.31573    2.   CR ( 1) C  2
   18.  1.99984   -10.25266   21.   CR ( 1) C  8
   19.  1.99982   -10.25755    4.   CR ( 1) C  4
   20.  1.99980    -2.76630   19.   CR (14)Br  6
   21.  1.99978   -10.22520   26.   CR ( 1) C 13
   22.  1.99977   -10.23050   25.   CR ( 1) C 12
   23.  1.99977   -10.23051   27.   CR ( 1) C 14
   24.  1.99976   -10.24833   24.   CR ( 1) C 11
   25.  1.99975   -10.24478   23.   CR ( 1) C 10
   26.  1.99960    -2.77386   15.   CR (10)Br  6
   27.  1.99952    -2.77392   18.   CR (13)Br  6
   28.  1.99738    -0.76080   30.   LP ( 1)Br  6
   29.  1.99694    -1.02097   33.   BD ( 1) O  1- C  2
   30.  1.99281    -0.55770   60.   BD ( 1) C 13- H 22
   31.  1.99097    -0.56288   57.   BD ( 1) C 12- H 20
   32.  1.99097    -0.56289   62.   BD ( 1) C 14- H 24
   33.  1.98913    -0.55682   61.   BD ( 1) C 13- H 23
   34.  1.98898    -0.59483   56.   BD ( 1) C 12- C 13
   35.  1.98898    -0.59483   59.   BD ( 1) C 13- C 14
   36.  1.98752    -0.55567   58.   BD ( 1) C 12- H 21
   37.  1.98752    -0.55567   63.   BD ( 1) C 14- H 25
   38.  1.98728    -0.63003   43.   BD ( 1) C  5-Br  6
   39.  1.98282    -0.58925   49.   BD ( 1) C  8- H 17
   40.  1.98228    -0.36344   31.   LP ( 2)Br  6
   41.  1.98192    -0.59042   47.   BD ( 1) C  7- H 16
   42.  1.98061    -0.58570   42.   BD ( 1) C  4- H 15
   43.  1.98049    -0.73100   44.   BD ( 1) C  5- C  7
   44.  1.98012    -0.63312   28.   LP ( 1) O  1
   45.  1.97995    -0.73083   40.   BD ( 1) C  4- C  5
   46.  1.97844    -0.64538   36.   BD ( 1) C  2- C 11
   47.  1.97711    -0.67514   35.   BD ( 1) C  2- C  3
   48.  1.97636    -0.61805   51.   BD ( 1) C 10- C 11
   49.  1.97635    -0.45758   34.   BD ( 2) O  1- C  2
   50.  1.97592    -0.64339   50.   BD ( 1) C  9- C 10
   51.  1.97585    -0.70973   48.   BD ( 1) C  8- C  9
   52.  1.97499    -0.56572   52.   BD ( 1) C 10- H 18
   53.  1.97499    -0.56573   53.   BD ( 1) C 10- H 19
   54.  1.97331    -0.70788   45.   BD ( 1) C  7- C  8
   55.  1.96791    -0.70312   37.   BD ( 1) C  3- C  4
   56.  1.96577    -0.69007   38.   BD ( 1) C  3- C  9
   57.  1.96175    -0.58931   54.   BD ( 1) C 11- C 12
   58.  1.96175    -0.58932   55.   BD ( 1) C 11- C 14
   59.  1.94706    -0.35883   32.   LP ( 3)Br  6
   60.  1.86908    -0.32633   29.   LP ( 2) O  1
   61.  1.68133    -0.33834   41.   BD ( 2) C  4- C  5
   62.  1.66849    -0.32650   46.   BD ( 2) C  7- C  8
   63.  1.61906    -0.31474   39.   BD ( 2) C  3- C  9
   64.  0.37011     0.06743   70.   BD*( 2) C  3- C  9
   65.  0.34603     0.05121   72.   BD*( 2) C  4- C  5
   66.  0.31179     0.06294   77.   BD*( 2) C  7- C  8
   67.  0.12656     0.08842   65.   BD*( 2) O  1- C  2
   68.  0.07668     0.48523   67.   BD*( 1) C  2- C 11
   69.  0.06919     0.55094   66.   BD*( 1) C  2- C  3
   70.  0.02675     0.66182   69.   BD*( 1) C  3- C  9
   71.  0.02624     0.17306   74.   BD*( 1) C  5-Br  6
   72.  0.02345     0.68143   68.   BD*( 1) C  3- C  4
   73.  0.02252     0.51380   81.   BD*( 1) C  9- C 10
   74.  0.02248     0.68414   79.   BD*( 1) C  8- C  9
   75.  0.02219     0.64780   75.   BD*( 1) C  5- C  7
   76.  0.02069     0.66049   71.   BD*( 1) C  4- C  5
   77.  0.02012     0.46874   82.   BD*( 1) C 10- C 11
   78.  0.01791     1.01114  104.   RY ( 1) C  2
   79.  0.01592     0.67107   76.   BD*( 1) C  7- C  8
   80.  0.01388     0.58624   73.   BD*( 1) C  4- H 15
   81.  0.01353     0.43811   85.   BD*( 1) C 11- C 12
   82.  0.01353     0.43811   86.   BD*( 1) C 11- C 14
   83.  0.01226     0.53090   83.   BD*( 1) C 10- H 18
   84.  0.01226     0.53091   84.   BD*( 1) C 10- H 19
   85.  0.01216     0.57592   80.   BD*( 1) C  8- H 17
   86.  0.01161     0.56052   89.   BD*( 1) C 12- H 21
   87.  0.01160     0.56053   94.   BD*( 1) C 14- H 25
   88.  0.01095     0.57871   78.   BD*( 1) C  7- H 16
   89.  0.01046     0.55800   88.   BD*( 1) C 12- H 20
   90.  0.01046     0.55800   93.   BD*( 1) C 14- H 24
   91.  0.00999     0.57070   91.   BD*( 1) C 13- H 22
   92.  0.00888     0.70140   64.   BD*( 1) O  1- C  2
   93.  0.00874     0.55887   92.   BD*( 1) C 13- H 23
   94.  0.00645     1.09052  116.   RY ( 1) C  5
   95.  0.00641     1.21194  105.   RY ( 2) C  2
   96.  0.00595     1.37684  112.   RY ( 1) C  4
   97.  0.00539     1.34142  129.   RY ( 1) C  7
   98.  0.00511     1.36029  117.   RY ( 2) C  5
   99.  0.00474     1.39775  133.   RY ( 1) C  8
  100.  0.00468     1.39569  108.   RY ( 1) C  3
  101.  0.00436     0.96129  113.   RY ( 2) C  4
  102.  0.00416     1.53001  137.   RY ( 1) C  9
  103.  0.00405     1.48971  109.   RY ( 2) C  3
  104.  0.00363     0.45048   87.   BD*( 1) C 12- C 13
  105.  0.00363     0.45048   90.   BD*( 1) C 13- C 14
  106.  0.00350     0.98222  134.   RY ( 2) C  8
  107.  0.00350     1.42022  145.   RY ( 1) C 11
  108.  0.00342     1.02048  130.   RY ( 2) C  7
  109.  0.00341     1.28176  138.   RY ( 2) C  9
  110.  0.00336     0.63725  167.   RY ( 1) H 21
  111.  0.00336     0.63725  171.   RY ( 1) H 25
  112.  0.00333     1.22640  149.   RY ( 1) C 12
  113.  0.00333     1.22641  157.   RY ( 1) C 14
  114.  0.00280     0.61535  161.   RY ( 1) H 15
  115.  0.00243     1.21620  153.   RY ( 1) C 13
  116.  0.00227     0.96373  141.   RY ( 1) C 10
  117.  0.00195     0.67982  120.   RY ( 1)Br  6
  118.  0.00193     0.97964  142.   RY ( 2) C 10
  119.  0.00184     1.77824   95.   RY ( 1) O  1
  120.  0.00177     0.95049  106.   RY ( 3) C  2
  121.  0.00161     1.13383  143.   RY ( 3) C 10
  122.  0.00157     1.28085  146.   RY ( 2) C 11
  123.  0.00129     0.61450  169.   RY ( 1) H 23
  124.  0.00128     0.62827  166.   RY ( 1) H 20
  125.  0.00128     0.62827  170.   RY ( 1) H 24
  126.  0.00127     0.63290  164.   RY ( 1) H 18
  127.  0.00127     0.63290  165.   RY ( 1) H 19
  128.  0.00127     0.93729  107.   RY ( 4) C  2
  129.  0.00123     0.60239  162.   RY ( 1) H 16
  130.  0.00118     0.60885  168.   RY ( 1) H 22
  131.  0.00113     1.17406  147.   RY ( 3) C 11
  132.  0.00112     0.99756  139.   RY ( 3) C  9
  133.  0.00110     0.97988  150.   RY ( 2) C 12
  134.  0.00110     0.97981  158.   RY ( 2) C 14
  135.  0.00109     0.82112  110.   RY ( 3) C  3
  136.  0.00105     1.00150  154.   RY ( 2) C 13
  137.  0.00102     1.56178  148.   RY ( 4) C 11
  138.  0.00091     0.74452  121.   RY ( 2)Br  6
  139.  0.00084     0.60354  163.   RY ( 1) H 17
  140.  0.00079     0.94152  118.   RY ( 3) C  5
  141.  0.00071     0.77434  140.   RY ( 4) C  9
  142.  0.00070     1.17192  151.   RY ( 3) C 12
  143.  0.00070     1.17201  159.   RY ( 3) C 14
  144.  0.00060     1.12020  122.   RY ( 3)Br  6
  145.  0.00058     1.25154  144.   RY ( 4) C 10
  146.  0.00057     2.07683   96.   RY ( 2) O  1
  147.  0.00057     0.71458  114.   RY ( 3) C  4
  148.  0.00046     0.71950  131.   RY ( 3) C  7
  149.  0.00039     0.73034  135.   RY ( 3) C  8
  150.  0.00036     0.71100  119.   RY ( 4) C  5
  151.  0.00034     1.16882  155.   RY ( 3) C 13
  152.  0.00031     0.92617  115.   RY ( 4) C  4
  153.  0.00029     1.00445  111.   RY ( 4) C  3
  154.  0.00027     0.92308  132.   RY ( 4) C  7
  155.  0.00026     0.82153  123.   RY ( 4)Br  6
  156.  0.00020     0.96874  152.   RY ( 4) C 12
  157.  0.00020     0.96871  160.   RY ( 4) C 14
  158.  0.00019     0.92983  136.   RY ( 4) C  8
  159.  0.00016     1.67962   97.   RY ( 3) O  1
  160.  0.00012     0.93019  156.   RY ( 4) C 13
  161.  0.00011     0.93405  124.   RY ( 5)Br  6
  162.  0.00005     2.45041   98.   RY ( 4) O  1
  163.  0.00004     0.64940  125.   RY ( 6)Br  6
  164.  0.00004     2.19502   99.   RY ( 5) O  1
  165.  0.00003     0.67384  126.   RY ( 7)Br  6
  166.  0.00002     0.76396  127.   RY ( 8)Br  6
  167.  0.00001     1.95607  100.   RY ( 6) O  1
  168.  0.00001     2.01793  101.   RY ( 7) O  1
  169.  0.00001     0.71768  128.   RY ( 9)Br  6
  170.  0.00000     1.87950  102.   RY ( 8) O  1
  171.  0.00000     1.89257  103.   RY ( 9) O  1

 NBO analysis completed in 0.47 CPU seconds (1 wall second)
 Maximum scratch memory used by NBO was 715453 words (5.46 MB)
 Maximum scratch memory used by G16NBO was 53477 words (0.41 MB)

 Opening RunExU unformatted file "/home/rpaton/opt/xtb/Gau-1516709.EUF"
 Read unf file /home/rpaton/opt/xtb/Gau-1516709.EUF:
 Label Gaussian matrix elements                                         IVers= 2 NLab= 2 Version=ES64L-G16RevC.01
 Title energy: -39.449151330410 gnorm: 0.000222488892 xtb: 6.7.0 (08769
 NAtoms=    25 NBasis=   171 NBsUse=   171 ICharg=     0 Multip=     1 NE=   126 Len12L=8 Len4L=8 IOpCl= 0 ICGU=111
 GAUSSIAN SCALARS                    NI= 1 NR= 1 NTot=       1 LenBuf=    2 NRI=1 N=    1000
 ALPHA ORBITAL ENERGIES              NI= 0 NR= 1 NTot=     171 LenBuf= 2048 NRI=1 N=     171
 ALPHA MO COEFFICIENTS               NI= 0 NR= 1 NTot=   29241 LenBuf= 2048 NRI=1 N=     171     171
 Store file  10524 Len=   29241.
 NPA CHARGES                         NI= 0 NR= 1 NTot=      25 LenBuf= 2048 NRI=1 N=      25
 Recovered energy= -3097.83734527     dipole=     -0.510230744295      1.249151711880     -0.000014894992
 Unable to Open any file for archive entry.
 1\1\GINC-DYNAMO\SP\RwB97XD\MIDIx\C12H11Br1O1\RPATON\26-Sep-2024\0\\# w
 b97xd midix pop(nbo6read,savenbos,hirshfeld)\\energy: -39.449151330410
  gnorm: 0.000222488892 xtb: 6.7.0 (08769fc)\\0,1\O,0,1.80646,-2.16681,
 0.00003\C,0,1.66232,-0.96881,0.00009\C,0,0.39264,-0.22246,0.\C,0,-0.89
 86,-0.72816,-0.00005\C,0,-1.93697,0.18521,-0.00003\Br,0,-3.73627,-0.44
 384,0.00002\C,0,-1.70685,1.55551,-0.00001\C,0,-0.41025,2.04486,0.00001
 \C,0,0.64429,1.1496,0.00002\C,0,2.11396,1.4321,0.\C,0,2.78652,0.05376,
 -0.00001\C,0,3.87342,-0.187,1.07518\C,0,4.96299,-0.10283,-0.00001\C,0,
 3.87342,-0.18698,-1.07521\H,0,-1.07281,-1.79289,0.\H,0,-2.54476,2.2360
 1,-0.00002\H,0,-0.2359,3.11032,-0.00002\H,0,2.39247,2.01675,0.87982\H,
 0,2.39246,2.01675,-0.87982\H,0,3.91588,0.55249,1.87236\H,0,3.78647,-1.
 18128,1.50926\H,0,5.69426,-0.90681,0.\H,0,5.48406,0.85231,0.\H,0,3.915
 88,0.55251,-1.87239\H,0,3.78648,-1.18126,-1.50928\\Version=ES64L-G16Re
 vC.01\State=1-A\HF=-3097.8373453\RMSD=3.702e-09\Dipole=0.498442,1.2539
 023,0.0000149\Quadrupole=1.2440283,0.5087717,-1.7528,2.8407729,-0.0000
 753,-0.0002332\PG=C01 [X(C12H11Br1O1)]\\@
 The archive entry for this job was punched.


 IT IS A PROFOUNDLY ERRONEOUS TRUISM ... THAT WE SHOULD CULTIVATE
 THE HABIT OF THINKING OF WHAT WE ARE DOING.
 THE PRECISE OPPOSITE IS THE CASE.
 CIVILIZATION ADVANCES BY EXTENDING THE NUMBER OF IMPORTANT OPERATIONS
 WHICH WE CAN PERFORM WITHOUT THINKING ABOUT THEM.

                                    -- ALFRED NORTH WHITEHEAD
 Job cpu time:       0 days  0 hours  4 minutes 39.4 seconds.
 Elapsed time:       0 days  0 hours  0 minutes 11.9 seconds.
 File lengths (MBytes):  RWF=     20 Int=      0 D2E=      0 Chk=      3 Scr=      1
 Normal termination of Gaussian 16 at Thu Sep 26 14:43:17 2024.
