 Entering Gaussian System, Link 0=/usr/local/Gaussian/G16C/g16/g16
 Input=arbr39_wb97xd.com
 Output=arbr39_wb97xd.log
 Initial command:
 /usr/local/Gaussian/G16C/g16/l1.exe "/home/rpaton/opt/dzvp/Gau-2287552.inp" -scrdir="/home/rpaton/opt/dzvp/"
 Entering Link 1 = /usr/local/Gaussian/G16C/g16/l1.exe PID=   2287553.
  
 Copyright (c) 1988-2019, Gaussian, Inc.  All Rights Reserved.
  
 This is part of the Gaussian(R) 16 program.  It is based on
 the Gaussian(R) 09 system (copyright 2009, Gaussian, Inc.),
 the Gaussian(R) 03 system (copyright 2003, Gaussian, Inc.),
 the Gaussian(R) 98 system (copyright 1998, Gaussian, Inc.),
 the Gaussian(R) 94 system (copyright 1995, Gaussian, Inc.),
 the Gaussian 92(TM) system (copyright 1992, Gaussian, Inc.),
 the Gaussian 90(TM) system (copyright 1990, Gaussian, Inc.),
 the Gaussian 88(TM) system (copyright 1988, Gaussian, Inc.),
 the Gaussian 86(TM) system (copyright 1986, Carnegie Mellon
 University), and the Gaussian 82(TM) system (copyright 1983,
 Carnegie Mellon University). Gaussian is a federally registered
 trademark of Gaussian, Inc.
  
 This software contains proprietary and confidential information,
 including trade secrets, belonging to Gaussian, Inc.
  
 This software is provided under written license and may be
 used, copied, transmitted, or stored only in accord with that
 written license.
  
 The following legend is applicable only to US Government
 contracts under FAR:
  
                    RESTRICTED RIGHTS LEGEND
  
 Use, reproduction and disclosure by the US Government is
 subject to restrictions as set forth in subparagraphs (a)
 and (c) of the Commercial Computer Software - Restricted
 Rights clause in FAR 52.227-19.
  
 Gaussian, Inc.
 340 Quinnipiac St., Bldg. 40, Wallingford CT 06492
  
  
 ---------------------------------------------------------------
 Warning -- This program may not be used in any manner that
 competes with the business of Gaussian, Inc. or will provide
 assistance to any competitor of Gaussian, Inc.  The licensee
 of this program is prohibited from giving any competitor of
 Gaussian, Inc. access to this program.  By using this program,
 the user acknowledges that Gaussian, Inc. is engaged in the
 business of creating and licensing software in the field of
 computational chemistry and represents and warrants to the
 licensee that it is not a competitor of Gaussian, Inc. and that
 it will not use this program in any manner prohibited above.
 ---------------------------------------------------------------
  

 Cite this work as:
 Gaussian 16, Revision C.01,
 M. J. Frisch, G. W. Trucks, H. B. Schlegel, G. E. Scuseria, 
 M. A. Robb, J. R. Cheeseman, G. Scalmani, V. Barone, 
 G. A. Petersson, H. Nakatsuji, X. Li, M. Caricato, A. V. Marenich, 
 J. Bloino, B. G. Janesko, R. Gomperts, B. Mennucci, H. P. Hratchian, 
 J. V. Ortiz, A. F. Izmaylov, J. L. Sonnenberg, D. Williams-Young, 
 F. Ding, F. Lipparini, F. Egidi, J. Goings, B. Peng, A. Petrone, 
 T. Henderson, D. Ranasinghe, V. G. Zakrzewski, J. Gao, N. Rega, 
 G. Zheng, W. Liang, M. Hada, M. Ehara, K. Toyota, R. Fukuda, 
 J. Hasegawa, M. Ishida, T. Nakajima, Y. Honda, O. Kitao, H. Nakai, 
 T. Vreven, K. Throssell, J. A. Montgomery, Jr., J. E. Peralta, 
 F. Ogliaro, M. J. Bearpark, J. J. Heyd, E. N. Brothers, K. N. Kudin, 
 V. N. Staroverov, T. A. Keith, R. Kobayashi, J. Normand, 
 K. Raghavachari, A. P. Rendell, J. C. Burant, S. S. Iyengar, 
 J. Tomasi, M. Cossi, J. M. Millam, M. Klene, C. Adamo, R. Cammi, 
 J. W. Ochterski, R. L. Martin, K. Morokuma, O. Farkas, 
 J. B. Foresman, and D. J. Fox, Gaussian, Inc., Wallingford CT, 2019.
 
 ******************************************
 Gaussian 16:  ES64L-G16RevC.01  3-Jul-2019
                23-Sep-2024 
 ******************************************
 %nprocshared=24
 Will use up to   24 processors via shared memory.
 %mem=96GB
 -------------------------
 # opt freq wb97xd/def2svp
 -------------------------
 1/18=20,19=15,26=3,38=1/1,3;
 2/9=110,12=2,17=6,18=5,40=1/2;
 3/5=43,7=101,11=2,25=1,30=1,71=1,74=-58/1,2,3;
 4//1;
 5/5=2,38=5/2;
 6/7=2,8=2,9=2,10=2,28=1/1;
 7//1,2,3,16;
 1/18=20,19=15,26=3/3(2);
 2/9=110/2;
 99//99;
 2/9=110/2;
 3/5=43,7=101,11=2,25=1,30=1,71=1,74=-58/1,2,3;
 4/5=5,16=3,69=1/1;
 5/5=2,38=5/2;
 7//1,2,3,16;
 1/18=20,19=15,26=3/3(-5);
 2/9=110/2;
 6/7=2,8=2,9=2,10=2,19=2,28=1/1;
 99/9=1/99;
 --------------------------
 arbr39_rdkit_conf_1_wb97xd
 --------------------------
 Symbolic Z-matrix:
 Charge =  0 Multiplicity = 1
 O                    -0.3359   -2.5369   -0.4527 
 C                    -0.1563   -1.3406   -0.2872 
 C                     1.1788   -0.7779   -0.0967 
 C                     2.3867   -1.4523   -0.0721 
 C                     3.5343   -0.6897    0.1264 
 Br                    5.2229   -1.5404    0.1724 
 C                     3.4589    0.7034    0.2935 
 C                     2.2218    1.3589    0.2638 
 C                     1.0736    0.6054    0.0664 
 C                    -0.3348    1.1314    0.0051 
 C                    -1.1822   -0.1429   -0.2302 
 C                    -2.2193   -0.0484   -1.3914 
 C                    -3.2629    0.3956   -0.3505 
 C                    -2.4093   -0.3116    0.7177 
 H                     2.4222   -2.5288   -0.2032 
 H                     4.3652    1.2855    0.4477 
 H                     2.1707    2.4365    0.3937 
 H                    -0.4322    1.8432   -0.8209 
 H                    -0.5917    1.6223    0.9493 
 H                    -2.0078    0.6774   -2.1814 
 H                    -2.4528   -1.0122   -1.86 
 H                    -4.2721    0.0003   -0.4907 
 H                    -3.3213    1.4822   -0.2201 
 H                    -2.3561    0.1949    1.6853 
 H                    -2.7004   -1.3551    0.8886 
 

 GradGradGradGradGradGradGradGradGradGradGradGradGradGradGradGradGradGrad
 Berny optimization.
 Initialization pass.
                           ----------------------------
                           !    Initial Parameters    !
                           ! (Angstroms and Degrees)  !
 --------------------------                            --------------------------
 ! Name  Definition              Value          Derivative Info.                !
 --------------------------------------------------------------------------------
 ! R1    R(1,2)                  1.221          estimate D2E/DX2                !
 ! R2    R(2,3)                  1.4613         estimate D2E/DX2                !
 ! R3    R(2,11)                 1.578          estimate D2E/DX2                !
 ! R4    R(3,4)                  1.3836         estimate D2E/DX2                !
 ! R5    R(3,9)                  1.3968         estimate D2E/DX2                !
 ! R6    R(4,5)                  1.3921         estimate D2E/DX2                !
 ! R7    R(4,15)                 1.085          estimate D2E/DX2                !
 ! R8    R(5,6)                  1.8913         estimate D2E/DX2                !
 ! R9    R(5,7)                  1.4051         estimate D2E/DX2                !
 ! R10   R(7,8)                  1.4003         estimate D2E/DX2                !
 ! R11   R(7,16)                 1.0881         estimate D2E/DX2                !
 ! R12   R(8,9)                  1.3875         estimate D2E/DX2                !
 ! R13   R(8,17)                 1.0866         estimate D2E/DX2                !
 ! R14   R(9,10)                 1.5047         estimate D2E/DX2                !
 ! R15   R(10,11)                1.5483         estimate D2E/DX2                !
 ! R16   R(10,18)                1.0947         estimate D2E/DX2                !
 ! R17   R(10,19)                1.0948         estimate D2E/DX2                !
 ! R18   R(11,12)                1.5598         estimate D2E/DX2                !
 ! R19   R(11,14)                1.5597         estimate D2E/DX2                !
 ! R20   R(12,13)                1.5394         estimate D2E/DX2                !
 ! R21   R(12,20)                1.0934         estimate D2E/DX2                !
 ! R22   R(12,21)                1.0968         estimate D2E/DX2                !
 ! R23   R(13,14)                1.5394         estimate D2E/DX2                !
 ! R24   R(13,22)                1.0929         estimate D2E/DX2                !
 ! R25   R(13,23)                1.096          estimate D2E/DX2                !
 ! R26   R(14,24)                1.0934         estimate D2E/DX2                !
 ! R27   R(14,25)                1.0967         estimate D2E/DX2                !
 ! A1    A(1,2,3)              121.9613         estimate D2E/DX2                !
 ! A2    A(1,2,11)             130.7613         estimate D2E/DX2                !
 ! A3    A(3,2,11)             107.2773         estimate D2E/DX2                !
 ! A4    A(2,3,4)              127.7507         estimate D2E/DX2                !
 ! A5    A(2,3,9)              109.132          estimate D2E/DX2                !
 ! A6    A(4,3,9)              123.1173         estimate D2E/DX2                !
 ! A7    A(3,4,5)              117.0773         estimate D2E/DX2                !
 ! A8    A(3,4,15)             120.6633         estimate D2E/DX2                !
 ! A9    A(5,4,15)             122.2594         estimate D2E/DX2                !
 ! A10   A(4,5,6)              119.5426         estimate D2E/DX2                !
 ! A11   A(4,5,7)              121.0538         estimate D2E/DX2                !
 ! A12   A(6,5,7)              119.4036         estimate D2E/DX2                !
 ! A13   A(5,7,8)              120.5959         estimate D2E/DX2                !
 ! A14   A(5,7,16)             120.1686         estimate D2E/DX2                !
 ! A15   A(8,7,16)             119.2355         estimate D2E/DX2                !
 ! A16   A(7,8,9)              118.6775         estimate D2E/DX2                !
 ! A17   A(7,8,17)             120.2138         estimate D2E/DX2                !
 ! A18   A(9,8,17)             121.1087         estimate D2E/DX2                !
 ! A19   A(3,9,8)              119.4782         estimate D2E/DX2                !
 ! A20   A(3,9,10)             114.3258         estimate D2E/DX2                !
 ! A21   A(8,9,10)             126.196          estimate D2E/DX2                !
 ! A22   A(9,10,11)            103.3423         estimate D2E/DX2                !
 ! A23   A(9,10,18)            109.9572         estimate D2E/DX2                !
 ! A24   A(9,10,19)            109.9541         estimate D2E/DX2                !
 ! A25   A(11,10,18)           111.8251         estimate D2E/DX2                !
 ! A26   A(11,10,19)           111.8199         estimate D2E/DX2                !
 ! A27   A(18,10,19)           109.7747         estimate D2E/DX2                !
 ! A28   A(2,11,10)            105.9226         estimate D2E/DX2                !
 ! A29   A(2,11,12)            116.8306         estimate D2E/DX2                !
 ! A30   A(2,11,14)            116.829          estimate D2E/DX2                !
 ! A31   A(10,11,12)           115.2886         estimate D2E/DX2                !
 ! A32   A(10,11,14)           115.2929         estimate D2E/DX2                !
 ! A33   A(12,11,14)            86.3239         estimate D2E/DX2                !
 ! A34   A(11,12,13)            87.9852         estimate D2E/DX2                !
 ! A35   A(11,12,20)           116.71           estimate D2E/DX2                !
 ! A36   A(11,12,21)           113.9773         estimate D2E/DX2                !
 ! A37   A(13,12,20)           115.354          estimate D2E/DX2                !
 ! A38   A(13,12,21)           113.4538         estimate D2E/DX2                !
 ! A39   A(20,12,21)           108.4078         estimate D2E/DX2                !
 ! A40   A(12,13,14)            87.7527         estimate D2E/DX2                !
 ! A41   A(12,13,22)           115.7823         estimate D2E/DX2                !
 ! A42   A(12,13,23)           113.7373         estimate D2E/DX2                !
 ! A43   A(14,13,22)           115.7781         estimate D2E/DX2                !
 ! A44   A(14,13,23)           113.7319         estimate D2E/DX2                !
 ! A45   A(22,13,23)           108.9457         estimate D2E/DX2                !
 ! A46   A(11,14,13)            87.9856         estimate D2E/DX2                !
 ! A47   A(11,14,24)           116.7059         estimate D2E/DX2                !
 ! A48   A(11,14,25)           113.9807         estimate D2E/DX2                !
 ! A49   A(13,14,24)           115.3544         estimate D2E/DX2                !
 ! A50   A(13,14,25)           113.456          estimate D2E/DX2                !
 ! A51   A(24,14,25)           108.4062         estimate D2E/DX2                !
 ! D1    D(1,2,3,4)              0.0014         estimate D2E/DX2                !
 ! D2    D(1,2,3,9)            179.9963         estimate D2E/DX2                !
 ! D3    D(11,2,3,4)          -179.9954         estimate D2E/DX2                !
 ! D4    D(11,2,3,9)            -0.0005         estimate D2E/DX2                !
 ! D5    D(1,2,11,10)         -179.9948         estimate D2E/DX2                !
 ! D6    D(1,2,11,12)          -50.0453         estimate D2E/DX2                !
 ! D7    D(1,2,11,14)           50.0511         estimate D2E/DX2                !
 ! D8    D(3,2,11,10)            0.0016         estimate D2E/DX2                !
 ! D9    D(3,2,11,12)          129.9512         estimate D2E/DX2                !
 ! D10   D(3,2,11,14)         -129.9524         estimate D2E/DX2                !
 ! D11   D(2,3,4,5)            179.9969         estimate D2E/DX2                !
 ! D12   D(2,3,4,15)            -0.0058         estimate D2E/DX2                !
 ! D13   D(9,3,4,5)              0.0027         estimate D2E/DX2                !
 ! D14   D(9,3,4,15)           180.0            estimate D2E/DX2                !
 ! D15   D(2,3,9,8)           -179.997          estimate D2E/DX2                !
 ! D16   D(2,3,9,10)            -0.0008         estimate D2E/DX2                !
 ! D17   D(4,3,9,8)             -0.0019         estimate D2E/DX2                !
 ! D18   D(4,3,9,10)           179.9943         estimate D2E/DX2                !
 ! D19   D(3,4,5,6)            179.9959         estimate D2E/DX2                !
 ! D20   D(3,4,5,7)              0.0018         estimate D2E/DX2                !
 ! D21   D(15,4,5,6)            -0.0013         estimate D2E/DX2                !
 ! D22   D(15,4,5,7)          -179.9955         estimate D2E/DX2                !
 ! D23   D(4,5,7,8)             -0.0071         estimate D2E/DX2                !
 ! D24   D(4,5,7,16)          -179.9972         estimate D2E/DX2                !
 ! D25   D(6,5,7,8)            179.9988         estimate D2E/DX2                !
 ! D26   D(6,5,7,16)             0.0087         estimate D2E/DX2                !
 ! D27   D(5,7,8,9)              0.0078         estimate D2E/DX2                !
 ! D28   D(5,7,8,17)          -179.9995         estimate D2E/DX2                !
 ! D29   D(16,7,8,9)           179.998          estimate D2E/DX2                !
 ! D30   D(16,7,8,17)           -0.0094         estimate D2E/DX2                !
 ! D31   D(7,8,9,3)             -0.0034         estimate D2E/DX2                !
 ! D32   D(7,8,9,10)          -179.9991         estimate D2E/DX2                !
 ! D33   D(17,8,9,3)          -179.996          estimate D2E/DX2                !
 ! D34   D(17,8,9,10)            0.0083         estimate D2E/DX2                !
 ! D35   D(3,9,10,11)            0.0018         estimate D2E/DX2                !
 ! D36   D(3,9,10,18)         -119.5112         estimate D2E/DX2                !
 ! D37   D(3,9,10,19)          119.5072         estimate D2E/DX2                !
 ! D38   D(8,9,10,11)          179.9977         estimate D2E/DX2                !
 ! D39   D(8,9,10,18)           60.4847         estimate D2E/DX2                !
 ! D40   D(8,9,10,19)          -60.4969         estimate D2E/DX2                !
 ! D41   D(9,10,11,2)           -0.002          estimate D2E/DX2                !
 ! D42   D(9,10,11,12)        -130.8378         estimate D2E/DX2                !
 ! D43   D(9,10,11,14)         130.835          estimate D2E/DX2                !
 ! D44   D(18,10,11,2)         118.2177         estimate D2E/DX2                !
 ! D45   D(18,10,11,12)        -12.6182         estimate D2E/DX2                !
 ! D46   D(18,10,11,14)       -110.9454         estimate D2E/DX2                !
 ! D47   D(19,10,11,2)        -118.2154         estimate D2E/DX2                !
 ! D48   D(19,10,11,12)        110.9488         estimate D2E/DX2                !
 ! D49   D(19,10,11,14)         12.6215         estimate D2E/DX2                !
 ! D50   D(2,11,12,13)         141.7079         estimate D2E/DX2                !
 ! D51   D(2,11,12,20)        -100.7787         estimate D2E/DX2                !
 ! D52   D(2,11,12,21)          26.8593         estimate D2E/DX2                !
 ! D53   D(10,11,12,13)        -92.9125         estimate D2E/DX2                !
 ! D54   D(10,11,12,20)         24.601          estimate D2E/DX2                !
 ! D55   D(10,11,12,21)        152.239          estimate D2E/DX2                !
 ! D56   D(14,11,12,13)         23.3925         estimate D2E/DX2                !
 ! D57   D(14,11,12,20)        140.906          estimate D2E/DX2                !
 ! D58   D(14,11,12,21)        -91.4561         estimate D2E/DX2                !
 ! D59   D(2,11,14,13)        -141.7088         estimate D2E/DX2                !
 ! D60   D(2,11,14,24)         100.7779         estimate D2E/DX2                !
 ! D61   D(2,11,14,25)         -26.8571         estimate D2E/DX2                !
 ! D62   D(10,11,14,13)         92.909          estimate D2E/DX2                !
 ! D63   D(10,11,14,24)        -24.6043         estimate D2E/DX2                !
 ! D64   D(10,11,14,25)       -152.2392         estimate D2E/DX2                !
 ! D65   D(12,11,14,13)        -23.392          estimate D2E/DX2                !
 ! D66   D(12,11,14,24)       -140.9052         estimate D2E/DX2                !
 ! D67   D(12,11,14,25)         91.4598         estimate D2E/DX2                !
 ! D68   D(11,12,13,14)        -23.6874         estimate D2E/DX2                !
 ! D69   D(11,12,13,22)       -141.3575         estimate D2E/DX2                !
 ! D70   D(11,12,13,23)         91.3199         estimate D2E/DX2                !
 ! D71   D(20,12,13,14)       -142.4395         estimate D2E/DX2                !
 ! D72   D(20,12,13,22)         99.8904         estimate D2E/DX2                !
 ! D73   D(20,12,13,23)        -27.4322         estimate D2E/DX2                !
 ! D74   D(21,12,13,14)         91.6522         estimate D2E/DX2                !
 ! D75   D(21,12,13,22)        -26.0179         estimate D2E/DX2                !
 ! D76   D(21,12,13,23)       -153.3405         estimate D2E/DX2                !
 ! D77   D(12,13,14,11)         23.6881         estimate D2E/DX2                !
 ! D78   D(12,13,14,24)        142.4359         estimate D2E/DX2                !
 ! D79   D(12,13,14,25)        -91.6558         estimate D2E/DX2                !
 ! D80   D(22,13,14,11)        141.3621         estimate D2E/DX2                !
 ! D81   D(22,13,14,24)        -99.8901         estimate D2E/DX2                !
 ! D82   D(22,13,14,25)         26.0181         estimate D2E/DX2                !
 ! D83   D(23,13,14,11)        -91.3242         estimate D2E/DX2                !
 ! D84   D(23,13,14,24)         27.4236         estimate D2E/DX2                !
 ! D85   D(23,13,14,25)        153.3318         estimate D2E/DX2                !
 --------------------------------------------------------------------------------
 Trust Radius=3.00D-01 FncErr=1.00D-07 GrdErr=1.00D-06 EigMax=2.50D+02 EigMin=1.00D-04
 Number of steps in this run=    150 maximum allowed number of steps=    150.
 GradGradGradGradGradGradGradGradGradGradGradGradGradGradGradGradGradGrad

                          Input orientation:                          
 ---------------------------------------------------------------------
 Center     Atomic      Atomic             Coordinates (Angstroms)
 Number     Number       Type             X           Y           Z
 ---------------------------------------------------------------------
      1          8           0       -0.335900   -2.536900   -0.452700
      2          6           0       -0.156300   -1.340600   -0.287200
      3          6           0        1.178800   -0.777900   -0.096700
      4          6           0        2.386700   -1.452300   -0.072100
      5          6           0        3.534300   -0.689700    0.126400
      6         35           0        5.222900   -1.540400    0.172400
      7          6           0        3.458900    0.703400    0.293500
      8          6           0        2.221800    1.358900    0.263800
      9          6           0        1.073600    0.605400    0.066400
     10          6           0       -0.334800    1.131400    0.005100
     11          6           0       -1.182200   -0.142900   -0.230200
     12          6           0       -2.219300   -0.048400   -1.391400
     13          6           0       -3.262900    0.395600   -0.350500
     14          6           0       -2.409300   -0.311600    0.717700
     15          1           0        2.422200   -2.528800   -0.203200
     16          1           0        4.365200    1.285500    0.447700
     17          1           0        2.170700    2.436500    0.393700
     18          1           0       -0.432200    1.843200   -0.820900
     19          1           0       -0.591700    1.622300    0.949300
     20          1           0       -2.007800    0.677400   -2.181400
     21          1           0       -2.452800   -1.012200   -1.860000
     22          1           0       -4.272100    0.000300   -0.490700
     23          1           0       -3.321300    1.482200   -0.220100
     24          1           0       -2.356100    0.194900    1.685300
     25          1           0       -2.700400   -1.355100    0.888600
 ---------------------------------------------------------------------
                    Distance matrix (angstroms):
                    1          2          3          4          5
     1  O    0.000000
     2  C    1.220975   0.000000
     3  C    2.348432   1.461305   0.000000
     4  C    2.955294   2.554524   1.383634   0.000000
     5  C    4.327349   3.770314   2.367685   1.392102   0.000000
     6  Br   5.681903   5.402494   4.124144   2.848082   1.891342
     7  C    5.045480   4.193426   2.746882   2.435225   1.405110
     8  C    4.715131   3.639541   2.404937   2.835995   2.436862
     9  C    3.482844   2.329078   1.396849   2.444901   2.781354
    10  C    3.696756   2.495613   2.438601   3.753402   4.277973
    11  C    2.548915   1.578038   2.448544   3.804809   4.761463
    12  C    3.258985   2.673015   3.708841   4.992667   5.984889
    13  C    4.144554   3.559405   4.601110   5.950649   6.899800
    14  C    3.258954   2.672952   3.708793   4.992654   5.984896
    15  H    2.769374   2.840341   2.150125   1.085034   2.174326
    16  H    6.125504   5.280193   3.834988   3.417631   2.166805
    17  H    5.633307   4.488322   3.399518   3.922549   3.421108
    18  H    4.396603   3.239991   3.160689   4.400820   4.800633
    19  H    4.396588   3.239951   3.160656   4.400828   4.800665
    20  H    4.014396   3.329920   4.076554   5.319436   6.157091
    21  H    2.964198   2.802759   4.043840   5.177937   6.316261
    22  H    4.683215   4.333501   5.520248   6.828242   7.861094
    23  H    5.011974   4.241453   5.037279   6.419849   7.199754
    24  H    4.014347   3.329810   4.076442   5.319387   6.157069
    25  H    2.964219   2.802706   4.043781   5.177932   6.316264
                    6          7          8          9         10
     6  Br   0.000000
     7  C    2.856746   0.000000
     8  C    4.173835   1.400350   0.000000
     9  C    4.672514   2.398090   1.387477   0.000000
    10  C    6.168836   3.828644   2.579706   1.504667   0.000000
    11  C    6.568135   4.746609   3.753219   2.395111   1.548320
    12  C    7.749702   5.970431   4.944042   3.660031   2.625544
    13  C    8.719537   6.759591   5.602432   4.361543   3.040004
    14  C    7.749695   5.970422   4.944055   3.660010   2.625566
    15  H    2.993648   3.430536   3.920773   3.422662   4.587102
    16  H    2.965999   1.088117   2.152526   3.382685   4.723308
    17  H    5.018031   2.161743   1.086603   2.159556   2.851636
    18  H    6.664499   4.204960   2.907720   2.141701   1.094725
    19  H    6.664519   4.204975   2.907761   2.141687   1.094758
    20  H    7.920987   6.000885   4.932845   3.814815   2.790310
    21  H    7.957764   6.521429   5.655486   4.331644   3.543945
    22  H    9.642017   7.802415   6.677260   5.408606   4.126444
    23  H    9.071578   6.844080   5.565548   4.490658   3.015453
    24  H    7.920945   6.000825   4.932821   3.814733   2.790297
    25  H    7.957761   6.521391   5.655460   4.331587   3.543913
                   11         12         13         14         15
    11  C    0.000000
    12  C    1.559773   0.000000
    13  C    2.152619   1.539386   0.000000
    14  C    1.559727   2.133935   1.539421   0.000000
    15  H    4.322609   5.395158   6.394855   5.395130   0.000000
    16  H    5.768321   6.965430   7.721202   6.965449   4.329873
    17  H    4.276037   5.351020   5.851762   5.351021   5.007369
    18  H    2.203638   2.664085   3.213983   3.304448   5.257712
    19  H    2.203597   3.304421   3.213967   2.664072   5.257707
    20  H    2.271935   1.093443   2.237606   3.089353   5.815315
    21  H    2.241953   1.096822   2.217375   2.671567   5.367559
    22  H    3.104166   2.242235   1.092887   2.242217   7.161889
    23  H    2.686410   2.220154   1.095954   2.220120   7.005441
    24  H    2.271847   3.089335   2.237643   1.093445   5.815249
    25  H    2.241891   2.671577   2.217369   1.096740   5.367553
                   16         17         18         19         20
    16  H    0.000000
    17  H    2.478618   0.000000
    18  H    4.993538   2.932976   0.000000
    19  H    4.993585   2.932996   1.791046   0.000000
    20  H    6.920772   5.213965   2.385910   3.563630   0.000000
    21  H    7.555794   6.192693   3.649091   4.277435   1.776533
    22  H    8.782670   6.944559   4.272019   4.271982   2.905854
    23  H    7.717962   5.607986   2.972908   2.972851   2.493929
    24  H    6.920761   5.213916   3.563611   2.385849   3.912223
    25  H    7.555784   6.192639   4.277411   3.649001   3.746418
                   21         22         23         24         25
    21  H    0.000000
    22  H    2.491985   0.000000
    23  H    3.108954   1.781368   0.000000
    24  H    3.746411   2.905839   2.493853   0.000000
    25  H    2.780951   2.491951   3.108859   1.776450   0.000000
 Stoichiometry    C12H11BrO
 Framework group  C1[X(C12H11BrO)]
 Deg. of freedom    69
 Full point group                 C1      NOp   1
 Largest Abelian subgroup         C1      NOp   1
 Largest concise Abelian subgroup C1      NOp   1
                         Standard orientation:                         
 ---------------------------------------------------------------------
 Center     Atomic      Atomic             Coordinates (Angstroms)
 Number     Number       Type             X           Y           Z
 ---------------------------------------------------------------------
      1          8           0        1.559868   -2.273707    0.000011
      2          6           0        1.575575   -1.052833   -0.000042
      3          6           0        0.345849   -0.263411   -0.000061
      4          6           0       -0.958011   -0.726435    0.000004
      5          6           0       -1.969947    0.229563    0.000036
      6         35           0       -3.777819   -0.326113    0.000007
      7          6           0       -1.670184    1.602326   -0.000033
      8          6           0       -0.340487    2.041512    0.000012
      9          6           0        0.673512    1.094464   -0.000038
     10          6           0        2.151727    1.375363    0.000017
     11          6           0        2.783993   -0.037978   -0.000019
     12          6           0        3.897873   -0.269640    1.066985
     13          6           0        4.929268    0.139689    0.000034
     14          6           0        3.897870   -0.269679   -1.066950
     15          1           0       -1.167135   -1.791126   -0.000017
     16          1           0       -2.472600    2.337259    0.000040
     17          1           0       -0.115758    3.104622   -0.000034
     18          1           0        2.424151    1.943070    0.895515
     19          1           0        2.424179    1.943040   -0.895531
     20          1           0        3.866563    0.366015    1.956131
     21          1           0        3.995105   -1.313149    1.390485
     22          1           0        5.863669   -0.427143   -0.000002
     23          1           0        5.162670    1.210500   -0.000047
     24          1           0        3.866529    0.365983   -1.956092
     25          1           0        3.995109   -1.313097   -1.390466
 ---------------------------------------------------------------------
 Rotational constants (GHZ):           1.6639585           0.2228426           0.2029228
 Standard basis: def2SVP (5D, 7F)
 There are   285 symmetry adapted cartesian basis functions of A   symmetry.
 There are   269 symmetry adapted basis functions of A   symmetry.
   269 basis functions,   482 primitive gaussians,   285 cartesian basis functions
    63 alpha electrons       63 beta electrons
       nuclear repulsion energy      1111.8505119053 Hartrees.
 NAtoms=   25 NActive=   25 NUniq=   25 SFac= 1.00D+00 NAtFMM=   60 NAOKFM=F Big=F
 Integral buffers will be    131072 words long.
 Raffenetti 2 integral format.
 Two-electron integral symmetry is turned on.
 Nuclear repulsion after empirical dispersion term =     1111.8323334214 Hartrees.
 One-electron integrals computed using PRISM.
   1 Symmetry operations used in ECPInt.
 ECPInt:  NShTT=    7626 NPrTT=   29403 LenC2=    7152 LenP2D=   20154.
 LDataN:  DoStor=T MaxTD1= 4 Len=   56
 NBasis=   269 RedAO= T EigKep=  2.58D-04  NBF=   269
 NBsUse=   269 1.00D-06 EigRej= -1.00D+00 NBFU=   269
 ExpMin= 1.22D-01 ExpMax= 1.13D+05 ExpMxC= 1.70D+04 IAcc=3 IRadAn=         5 AccDes= 0.00D+00
 Harris functional with IExCor= 4639 and IRadAn=       5 diagonalized for initial guess.
 HarFok:  IExCor= 4639 AccDes= 0.00D+00 IRadAn=         5 IDoV= 1 UseB2=F ITyADJ=14
 ICtDFT=  3500011 ScaDFX=  1.000000  1.000000  1.000000  1.000000
 FoFCou: FMM=F IPFlag=           0 FMFlag=      100000 FMFlg1=           0
         NFxFlg=           0 DoJE=T BraDBF=F KetDBF=T FulRan=T
         wScrn=  0.000000 ICntrl=       500 IOpCl=  0 I1Cent=   200000004 NGrid=           0
         NMat0=    1 NMatS0=      1 NMatT0=    0 NMatD0=    1 NMtDS0=    0 NMtDT0=    0
 Petite list used in FoFCou.
 Requested convergence on RMS density matrix=1.00D-08 within 128 cycles.
 Requested convergence on MAX density matrix=1.00D-06.
 Requested convergence on             energy=1.00D-06.
 No special actions if energy rises.
 Integral accuracy reduced to 1.0D-05 until final iterations.
 Initial convergence to 1.0D-05 achieved.  Increase integral accuracy.
 SCF Done:  E(RwB97XD) =  -3112.45062982     A.U. after   16 cycles
            NFock= 16  Conv=0.48D-08     -V/T= 2.0028

 **********************************************************************

            Population analysis using the SCF Density.

 **********************************************************************

 Orbital symmetries:
       Occupied  (A) (A) (A) (A) (A) (A) (A) (A) (A) (A) (A) (A)
                 (A) (A) (A) (A) (A) (A) (A) (A) (A) (A) (A) (A)
                 (A) (A) (A) (A) (A) (A) (A) (A) (A) (A) (A) (A)
                 (A) (A) (A) (A) (A) (A) (A) (A) (A) (A) (A) (A)
                 (A) (A) (A) (A) (A) (A) (A) (A) (A) (A) (A) (A)
                 (A) (A) (A)
       Virtual   (A) (A) (A) (A) (A) (A) (A) (A) (A) (A) (A) (A)
                 (A) (A) (A) (A) (A) (A) (A) (A) (A) (A) (A) (A)
                 (A) (A) (A) (A) (A) (A) (A) (A) (A) (A) (A) (A)
                 (A) (A) (A) (A) (A) (A) (A) (A) (A) (A) (A) (A)
                 (A) (A) (A) (A) (A) (A) (A) (A) (A) (A) (A) (A)
                 (A) (A) (A) (A) (A) (A) (A) (A) (A) (A) (A) (A)
                 (A) (A) (A) (A) (A) (A) (A) (A) (A) (A) (A) (A)
                 (A) (A) (A) (A) (A) (A) (A) (A) (A) (A) (A) (A)
                 (A) (A) (A) (A) (A) (A) (A) (A) (A) (A) (A) (A)
                 (A) (A) (A) (A) (A) (A) (A) (A) (A) (A) (A) (A)
                 (A) (A) (A) (A) (A) (A) (A) (A) (A) (A) (A) (A)
                 (A) (A) (A) (A) (A) (A) (A) (A) (A) (A) (A) (A)
                 (A) (A) (A) (A) (A) (A) (A) (A) (A) (A) (A) (A)
                 (A) (A) (A) (A) (A) (A) (A) (A) (A) (A) (A) (A)
                 (A) (A) (A) (A) (A) (A) (A) (A) (A) (A) (A) (A)
                 (A) (A) (A) (A) (A) (A) (A) (A) (A) (A) (A) (A)
                 (A) (A) (A) (A) (A) (A) (A) (A) (A) (A) (A) (A)
                 (A) (A)
 The electronic state is 1-A.
 Alpha  occ. eigenvalues -- -483.06431 -62.64643 -56.45418 -56.45052 -56.45043
 Alpha  occ. eigenvalues --  -19.25052 -10.38750 -10.36718 -10.33279 -10.32830
 Alpha  occ. eigenvalues --  -10.32787 -10.32699 -10.32424 -10.32086 -10.31195
 Alpha  occ. eigenvalues --  -10.30640 -10.30636 -10.30134  -8.81600  -6.64168
 Alpha  occ. eigenvalues --   -6.62826  -6.62803  -2.74540  -2.74150  -2.74134
 Alpha  occ. eigenvalues --   -2.73063  -2.73063  -1.12905  -0.99670  -0.96728
 Alpha  occ. eigenvalues --   -0.92733  -0.87898  -0.86444  -0.79427  -0.77762
 Alpha  occ. eigenvalues --   -0.76056  -0.72333  -0.69299  -0.65771  -0.62870
 Alpha  occ. eigenvalues --   -0.59013  -0.58611  -0.57702  -0.55878  -0.55339
 Alpha  occ. eigenvalues --   -0.54287  -0.52823  -0.50403  -0.50005  -0.48307
 Alpha  occ. eigenvalues --   -0.48069  -0.46867  -0.46356  -0.44499  -0.43287
 Alpha  occ. eigenvalues --   -0.42627  -0.40123  -0.40112  -0.39205  -0.37533
 Alpha  occ. eigenvalues --   -0.35317  -0.32991  -0.32370
 Alpha virt. eigenvalues --   -0.00386   0.03707   0.07988   0.10312   0.12538
 Alpha virt. eigenvalues --    0.14695   0.15935   0.17110   0.17617   0.19003
 Alpha virt. eigenvalues --    0.19021   0.20858   0.21776   0.23276   0.23517
 Alpha virt. eigenvalues --    0.25188   0.25933   0.26049   0.27642   0.28686
 Alpha virt. eigenvalues --    0.31148   0.31620   0.32001   0.33418   0.35741
 Alpha virt. eigenvalues --    0.36786   0.37273   0.40467   0.42272   0.43217
 Alpha virt. eigenvalues --    0.44485   0.45645   0.48320   0.49487   0.50011
 Alpha virt. eigenvalues --    0.50742   0.51387   0.52262   0.52835   0.53935
 Alpha virt. eigenvalues --    0.57071   0.57431   0.57962   0.57994   0.59417
 Alpha virt. eigenvalues --    0.60913   0.60940   0.61099   0.62590   0.63444
 Alpha virt. eigenvalues --    0.65822   0.65869   0.67140   0.69149   0.69940
 Alpha virt. eigenvalues --    0.70294   0.71331   0.71430   0.72093   0.72382
 Alpha virt. eigenvalues --    0.73520   0.73669   0.73859   0.74637   0.75146
 Alpha virt. eigenvalues --    0.75598   0.76198   0.77414   0.77944   0.78731
 Alpha virt. eigenvalues --    0.78828   0.79222   0.80893   0.81696   0.82332
 Alpha virt. eigenvalues --    0.82597   0.84261   0.85651   0.86494   0.89437
 Alpha virt. eigenvalues --    0.91053   0.91616   0.94526   0.96418   0.97223
 Alpha virt. eigenvalues --    1.01952   1.03727   1.04803   1.08675   1.10588
 Alpha virt. eigenvalues --    1.13981   1.16346   1.16536   1.20180   1.25813
 Alpha virt. eigenvalues --    1.27209   1.28680   1.30488   1.31795   1.32051
 Alpha virt. eigenvalues --    1.33322   1.34173   1.35458   1.36308   1.39100
 Alpha virt. eigenvalues --    1.42450   1.45743   1.49000   1.50518   1.53379
 Alpha virt. eigenvalues --    1.55373   1.55867   1.61180   1.62829   1.69009
 Alpha virt. eigenvalues --    1.71252   1.74281   1.75392   1.76635   1.78037
 Alpha virt. eigenvalues --    1.79075   1.80465   1.81119   1.81229   1.81592
 Alpha virt. eigenvalues --    1.82671   1.84046   1.85995   1.86416   1.88392
 Alpha virt. eigenvalues --    1.89020   1.89450   1.90897   1.92517   1.93140
 Alpha virt. eigenvalues --    1.93751   1.95891   1.96511   1.97836   1.98571
 Alpha virt. eigenvalues --    1.98916   2.04590   2.05824   2.07637   2.08875
 Alpha virt. eigenvalues --    2.09210   2.09379   2.10832   2.14980   2.16015
 Alpha virt. eigenvalues --    2.17593   2.21807   2.22517   2.22662   2.23879
 Alpha virt. eigenvalues --    2.28576   2.32902   2.33643   2.34946   2.36798
 Alpha virt. eigenvalues --    2.36944   2.40065   2.41548   2.43554   2.44190
 Alpha virt. eigenvalues --    2.47837   2.50544   2.51418   2.54753   2.58754
 Alpha virt. eigenvalues --    2.60651   2.62430   2.62792   2.68935   2.69643
 Alpha virt. eigenvalues --    2.70609   2.73132   2.73998   2.78438   2.80723
 Alpha virt. eigenvalues --    2.83994   2.85566   2.85638   2.88536   2.89542
 Alpha virt. eigenvalues --    2.92478   2.93178   2.95735   2.97992   3.00363
 Alpha virt. eigenvalues --    3.05649   3.05889   3.06140   3.10009   3.14368
 Alpha virt. eigenvalues --    3.18690   3.23702   3.24610   3.51707   3.52183
 Alpha virt. eigenvalues --    3.55772   3.60133   3.63121   3.72249   3.73539
 Alpha virt. eigenvalues --    3.92388
          Condensed to atoms (all electrons):
               1          2          3          4          5          6
     1  O    7.584459   0.800262  -0.143793   0.014159   0.001189  -0.000001
     2  C    0.800262   4.823215   0.153135  -0.072176   0.020366  -0.000102
     3  C   -0.143793   0.153135   5.690088   0.323868   0.076695   0.003507
     4  C    0.014159  -0.072176   0.323868   5.086385   0.273174  -0.062476
     5  C    0.001189   0.020366   0.076695   0.273174   5.341583   0.225735
     6  Br  -0.000001  -0.000102   0.003507  -0.062476   0.225735  34.921581
     7  C   -0.000002  -0.000675  -0.121110   0.045110   0.308532  -0.058527
     8  C   -0.000123   0.014447   0.020581  -0.084717   0.070104   0.002981
     9  C    0.002882  -0.036917   0.326348  -0.012656  -0.151548   0.000814
    10  C    0.004192  -0.042782  -0.084716   0.008825   0.001141   0.000014
    11  C   -0.096858   0.154937  -0.199722   0.025635  -0.000481   0.000000
    12  C    0.006261  -0.019516   0.013479  -0.000559  -0.000004  -0.000000
    13  C   -0.001597   0.008807  -0.003782   0.000071   0.000000   0.000000
    14  C    0.006262  -0.019509   0.013480  -0.000559  -0.000004  -0.000000
    15  H    0.010241  -0.010259  -0.055532   0.440603  -0.064243   0.000326
    16  H   -0.000000  -0.000011  -0.001378   0.011829  -0.062873  -0.000145
    17  H    0.000001  -0.000587   0.015524  -0.001861   0.013431  -0.000131
    18  H   -0.000059   0.000308   0.002624  -0.000386   0.000079  -0.000000
    19  H   -0.000059   0.000306   0.002627  -0.000387   0.000079  -0.000000
    20  H    0.000015  -0.001296   0.000843   0.000008  -0.000001   0.000000
    21  H    0.005384  -0.005859   0.001959  -0.000028  -0.000001  -0.000000
    22  H    0.000028  -0.000474   0.000073  -0.000001  -0.000000  -0.000000
    23  H   -0.000005  -0.000014  -0.000085  -0.000001   0.000000  -0.000000
    24  H    0.000015  -0.001297   0.000843   0.000009  -0.000001   0.000000
    25  H    0.005383  -0.005860   0.001959  -0.000028  -0.000001  -0.000000
               7          8          9         10         11         12
     1  O   -0.000002  -0.000123   0.002882   0.004192  -0.096858   0.006261
     2  C   -0.000675   0.014447  -0.036917  -0.042782   0.154937  -0.019516
     3  C   -0.121110   0.020581   0.326348  -0.084716  -0.199722   0.013479
     4  C    0.045110  -0.084717  -0.012656   0.008825   0.025635  -0.000559
     5  C    0.308532   0.070104  -0.151548   0.001141  -0.000481  -0.000004
     6  Br  -0.058527   0.002981   0.000814   0.000014   0.000000  -0.000000
     7  C    4.967746   0.367068   0.080025   0.010556  -0.001124   0.000020
     8  C    0.367068   4.996807   0.323869  -0.069461   0.007268  -0.000271
     9  C    0.080025   0.323869   5.339272   0.340629  -0.055053   0.001276
    10  C    0.010556  -0.069461   0.340629   4.767414   0.187776  -0.032660
    11  C   -0.001124   0.007268  -0.055053   0.187776   6.175980   0.283780
    12  C    0.000020  -0.000271   0.001276  -0.032660   0.283780   4.718066
    13  C   -0.000001   0.000055   0.000590  -0.003881  -0.144245   0.384931
    14  C    0.000020  -0.000271   0.001275  -0.032647   0.283732  -0.166072
    15  H    0.011185  -0.001516   0.014365  -0.000683   0.001835  -0.000031
    16  H    0.435262  -0.048352   0.013159  -0.000346   0.000023  -0.000000
    17  H   -0.067102   0.455206  -0.066443  -0.016403   0.001077  -0.000019
    18  H   -0.000235  -0.005869   0.003888   0.340979   0.001402  -0.006808
    19  H   -0.000235  -0.005866   0.003895   0.340942   0.001408   0.002072
    20  H   -0.000000  -0.000132  -0.000091  -0.012691  -0.009451   0.369165
    21  H   -0.000000   0.000032  -0.000334   0.007424  -0.025899   0.380750
    22  H    0.000000  -0.000002  -0.000011  -0.001059   0.004755  -0.000725
    23  H   -0.000000   0.000023   0.000365   0.007641  -0.001966  -0.018970
    24  H   -0.000000  -0.000132  -0.000091  -0.012695  -0.009444   0.010954
    25  H   -0.000000   0.000032  -0.000334   0.007423  -0.025893   0.004354
              13         14         15         16         17         18
     1  O   -0.001597   0.006262   0.010241  -0.000000   0.000001  -0.000059
     2  C    0.008807  -0.019509  -0.010259  -0.000011  -0.000587   0.000308
     3  C   -0.003782   0.013480  -0.055532  -0.001378   0.015524   0.002624
     4  C    0.000071  -0.000559   0.440603   0.011829  -0.001861  -0.000386
     5  C    0.000000  -0.000004  -0.064243  -0.062873   0.013431   0.000079
     6  Br   0.000000  -0.000000   0.000326  -0.000145  -0.000131  -0.000000
     7  C   -0.000001   0.000020   0.011185   0.435262  -0.067102  -0.000235
     8  C    0.000055  -0.000271  -0.001516  -0.048352   0.455206  -0.005869
     9  C    0.000590   0.001275   0.014365   0.013159  -0.066443   0.003888
    10  C   -0.003881  -0.032647  -0.000683  -0.000346  -0.016403   0.340979
    11  C   -0.144245   0.283732   0.001835   0.000023   0.001077   0.001402
    12  C    0.384931  -0.166072  -0.000031  -0.000000  -0.000019  -0.006808
    13  C    4.745064   0.384942   0.000003   0.000000   0.000002  -0.000520
    14  C    0.384942   4.718048  -0.000031  -0.000000  -0.000019   0.002072
    15  H    0.000003  -0.000031   0.621816  -0.000155   0.000027   0.000014
    16  H    0.000000  -0.000000  -0.000155   0.632420  -0.010692   0.000006
    17  H    0.000002  -0.000019   0.000027  -0.010692   0.662276   0.002393
    18  H   -0.000520   0.002072   0.000014   0.000006   0.002393   0.625520
    19  H   -0.000521  -0.006808   0.000014   0.000006   0.002394  -0.015315
    20  H   -0.013034   0.010954   0.000001  -0.000000   0.000002   0.005385
    21  H   -0.018172   0.004354  -0.000014   0.000000  -0.000001   0.000114
    22  H    0.355479  -0.000729  -0.000000  -0.000000  -0.000000   0.000043
    23  H    0.379028  -0.018971   0.000000  -0.000000   0.000001  -0.000582
    24  H   -0.013029   0.369152   0.000001  -0.000000   0.000002   0.000314
    25  H   -0.018170   0.380759  -0.000014   0.000000  -0.000001  -0.000376
              19         20         21         22         23         24
     1  O   -0.000059   0.000015   0.005384   0.000028  -0.000005   0.000015
     2  C    0.000306  -0.001296  -0.005859  -0.000474  -0.000014  -0.001297
     3  C    0.002627   0.000843   0.001959   0.000073  -0.000085   0.000843
     4  C   -0.000387   0.000008  -0.000028  -0.000001  -0.000001   0.000009
     5  C    0.000079  -0.000001  -0.000001  -0.000000   0.000000  -0.000001
     6  Br  -0.000000   0.000000  -0.000000  -0.000000  -0.000000   0.000000
     7  C   -0.000235  -0.000000  -0.000000   0.000000  -0.000000  -0.000000
     8  C   -0.005866  -0.000132   0.000032  -0.000002   0.000023  -0.000132
     9  C    0.003895  -0.000091  -0.000334  -0.000011   0.000365  -0.000091
    10  C    0.340942  -0.012691   0.007424  -0.001059   0.007641  -0.012695
    11  C    0.001408  -0.009451  -0.025899   0.004755  -0.001966  -0.009444
    12  C    0.002072   0.369165   0.380750  -0.000725  -0.018970   0.010954
    13  C   -0.000521  -0.013034  -0.018172   0.355479   0.379028  -0.013029
    14  C   -0.006808   0.010954   0.004354  -0.000729  -0.018971   0.369152
    15  H    0.000014   0.000001  -0.000014  -0.000000   0.000000   0.000001
    16  H    0.000006  -0.000000   0.000000  -0.000000  -0.000000  -0.000000
    17  H    0.002394   0.000002  -0.000001  -0.000000   0.000001   0.000002
    18  H   -0.015315   0.005385   0.000114   0.000043  -0.000582   0.000314
    19  H    0.625543   0.000314  -0.000376   0.000043  -0.000582   0.005388
    20  H    0.000314   0.656892  -0.025031   0.002209  -0.011702  -0.000835
    21  H   -0.000376  -0.025031   0.625634  -0.011450   0.005944  -0.000709
    22  H    0.000043   0.002209  -0.011450   0.656928  -0.028764   0.002209
    23  H   -0.000582  -0.011702   0.005944  -0.028764   0.655947  -0.011703
    24  H    0.005388  -0.000835  -0.000709   0.002209  -0.011703   0.656906
    25  H    0.000114  -0.000709   0.004572  -0.011450   0.005944  -0.025031
              25
     1  O    0.005383
     2  C   -0.005860
     3  C    0.001959
     4  C   -0.000028
     5  C   -0.000001
     6  Br  -0.000000
     7  C   -0.000000
     8  C    0.000032
     9  C   -0.000334
    10  C    0.007423
    11  C   -0.025893
    12  C    0.004354
    13  C   -0.018170
    14  C    0.380759
    15  H   -0.000014
    16  H    0.000000
    17  H   -0.000001
    18  H   -0.000376
    19  H    0.000114
    20  H   -0.000709
    21  H    0.004572
    22  H   -0.011450
    23  H    0.005944
    24  H   -0.025031
    25  H    0.625643
 Mulliken charges:
               1
     1  O   -0.198236
     2  C    0.241553
     3  C   -0.037514
     4  C    0.006159
     5  C   -0.052950
     6  Br  -0.033576
     7  C    0.023488
     8  C   -0.041764
     9  C   -0.129171
    10  C    0.285068
    11  C   -0.559472
    12  C    0.070527
    13  C   -0.042022
    14  C    0.070571
    15  H    0.032047
    16  H    0.031247
    17  H    0.010924
    18  H    0.045011
    19  H    0.045007
    20  H    0.029184
    21  H    0.051708
    22  H    0.032902
    23  H    0.038453
    24  H    0.029175
    25  H    0.051682
 Sum of Mulliken charges =  -0.00000
 Mulliken charges with hydrogens summed into heavy atoms:
               1
     1  O   -0.198236
     2  C    0.241553
     3  C   -0.037514
     4  C    0.038206
     5  C   -0.052950
     6  Br  -0.033576
     7  C    0.054736
     8  C   -0.030840
     9  C   -0.129171
    10  C    0.375086
    11  C   -0.559472
    12  C    0.151419
    13  C    0.029333
    14  C    0.151428
 Electronic spatial extent (au):  <R**2>=           4855.5975
 Charge=              0.0000 electrons
 Dipole moment (field-independent basis, Debye):
    X=              1.7116    Y=              3.6496    Z=             -0.0001  Tot=              4.0311
 Quadrupole moment (field-independent basis, Debye-Ang):
   XX=            -89.7377   YY=            -94.3707   ZZ=            -94.9082
   XY=              3.9440   XZ=             -0.0002   YZ=              0.0004
 Traceless Quadrupole moment (field-independent basis, Debye-Ang):
   XX=              3.2678   YY=             -1.3651   ZZ=             -1.9027
   XY=              3.9440   XZ=             -0.0002   YZ=              0.0004
 Octapole moment (field-independent basis, Debye-Ang**2):
  XXX=            -89.3547  YYY=             13.8717  ZZZ=              0.0003  XYY=            -50.6438
  XXY=             -0.8098  XXZ=             -0.0010  XZZ=            -31.3578  YZZ=             -8.3226
  YYZ=              0.0000  XYZ=              0.0004
 Hexadecapole moment (field-independent basis, Debye-Ang**3):
 XXXX=          -4617.6210 YYYY=           -770.1824 ZZZZ=           -228.1475 XXXY=             26.5130
 XXXZ=             -0.0049 YYYX=             55.2239 YYYZ=              0.0012 ZZZX=             -0.0008
 ZZZY=              0.0012 XXYY=           -898.9992 XXZZ=           -832.3664 YYZZ=           -166.4223
 XXYZ=              0.0029 YYXZ=             -0.0009 ZZXY=             11.5690
 N-N= 1.111832333421D+03 E-N=-9.624804979324D+03  KE= 3.103892276113D+03
   1 Symmetry operations used in ECPInt.
 ECPInt:  NShTT=    7626 NPrTT=   29403 LenC2=    7152 LenP2D=   20154.
 LDataN:  DoStor=T MaxTD1= 5 Len=  102
 Calling FoFJK, ICntrl=      2127 FMM=F ISym2X=0 I1Cent= 0 IOpClX= 0 NMat=1 NMatS=1 NMatT=0.
 ***** Axes restored to original set *****
 -------------------------------------------------------------------
 Center     Atomic                   Forces (Hartrees/Bohr)
 Number     Number              X              Y              Z
 -------------------------------------------------------------------
      1        8          -0.015922583    0.025710023    0.001777307
      2        6          -0.005750692   -0.017215799   -0.002675328
      3        6          -0.004480823    0.020191781    0.002112289
      4        6           0.008340386    0.003452555    0.001186421
      5        6          -0.000608447    0.002860549    0.000312796
      6       35           0.000497651    0.000357767    0.000087489
      7        6          -0.005442235    0.000638753   -0.000429014
      8        6           0.010532325   -0.007684002    0.000004357
      9        6           0.007071897    0.004490805    0.001188499
     10        6           0.001506736   -0.021418409   -0.002502598
     11        6          -0.000809045   -0.027668274   -0.003546681
     12        6           0.002116354    0.014010559    0.002201235
     13        6          -0.005937571   -0.018369810   -0.002804282
     14        6           0.002162432    0.014139173    0.001689438
     15        1          -0.000328311   -0.004302006   -0.000568247
     16        1           0.003011350   -0.000306227    0.000237701
     17        1           0.000661713    0.003968003    0.000550920
     18        1          -0.002050527    0.004313696   -0.000984505
     19        1          -0.002280562    0.003984074    0.001610500
     20        1           0.004586567    0.001584037   -0.004959157
     21        1           0.001051643   -0.003468640    0.003803900
     22        1          -0.005814982    0.001128344   -0.000387285
     23        1           0.002518354    0.001886861    0.000457186
     24        1           0.003600758    0.000228067    0.005922309
     25        1           0.001767614   -0.002511880   -0.004285247
 -------------------------------------------------------------------
 Cartesian Forces:  Max     0.027668274 RMS     0.007641126

 GradGradGradGradGradGradGradGradGradGradGradGradGradGradGradGradGradGrad
 Berny optimization.
 FormGI is forming the generalized inverse of G from B-inverse, IUseBI=4.
 Internal  Forces:  Max     0.023908374 RMS     0.004601800
 Search for a local minimum.
 Step number   1 out of a maximum of  150
 All quantities printed in internal units (Hartrees-Bohrs-Radians)
 Mixed Optimization -- RFO/linear search
 Second derivative matrix not updated -- first step.
 ITU=  0
     Eigenvalues ---    0.00349   0.00374   0.00586   0.01396   0.01490
     Eigenvalues ---    0.01910   0.02051   0.02095   0.02114   0.02176
     Eigenvalues ---    0.02220   0.02250   0.02344   0.02536   0.03128
     Eigenvalues ---    0.03367   0.04264   0.04616   0.04638   0.04648
     Eigenvalues ---    0.05402   0.05671   0.05872   0.06325   0.06423
     Eigenvalues ---    0.07087   0.07960   0.07967   0.08220   0.08513
     Eigenvalues ---    0.10009   0.10479   0.16000   0.16000   0.16000
     Eigenvalues ---    0.18680   0.20087   0.22459   0.23525   0.24156
     Eigenvalues ---    0.24507   0.24785   0.24863   0.25000   0.25000
     Eigenvalues ---    0.25325   0.26619   0.27205   0.27824   0.31128
     Eigenvalues ---    0.34036   0.34045   0.34134   0.34269   0.34272
     Eigenvalues ---    0.34418   0.34418   0.34481   0.35031   0.35208
     Eigenvalues ---    0.35393   0.35657   0.40067   0.42754   0.44372
     Eigenvalues ---    0.45929   0.47389   0.47844   0.94953
 RFO step:  Lambda=-1.40674831D-02 EMin= 3.49147646D-03
 Linear search not attempted -- first point.
 Iteration  1 RMS(Cart)=  0.04653291 RMS(Int)=  0.00133163
 Iteration  2 RMS(Cart)=  0.00150885 RMS(Int)=  0.00031584
 Iteration  3 RMS(Cart)=  0.00000110 RMS(Int)=  0.00031584
 Iteration  4 RMS(Cart)=  0.00000000 RMS(Int)=  0.00031584
 Variable       Old X    -DE/DX   Delta X   Delta X   Delta X     New X
                                 (Linear)    (Quad)   (Total)
    R1        2.30731  -0.02309   0.00000  -0.02396  -0.02396   2.28335
    R2        2.76147   0.01650   0.00000   0.04531   0.04523   2.80670
    R3        2.98206  -0.02391   0.00000  -0.08652  -0.08663   2.89543
    R4        2.61469   0.00798   0.00000   0.01651   0.01652   2.63121
    R5        2.63966  -0.00513   0.00000  -0.01080  -0.01070   2.62896
    R6        2.63069   0.00010   0.00000   0.00032   0.00029   2.63098
    R7        2.05042   0.00433   0.00000   0.01177   0.01177   2.06218
    R8        3.57412   0.00029   0.00000   0.00143   0.00143   3.57555
    R9        2.65527  -0.00368   0.00000  -0.00837  -0.00841   2.64686
   R10        2.64628  -0.00445   0.00000  -0.01001  -0.01002   2.63626
   R11        2.05624   0.00238   0.00000   0.00652   0.00652   2.06276
   R12        2.62195   0.00706   0.00000   0.01425   0.01428   2.63623
   R13        2.05338   0.00397   0.00000   0.01083   0.01083   2.06422
   R14        2.84341   0.00396   0.00000   0.00908   0.00920   2.85261
   R15        2.92590  -0.00049   0.00000  -0.00309  -0.00307   2.92282
   R16        2.06873   0.00373   0.00000   0.01045   0.01045   2.07918
   R17        2.06879   0.00371   0.00000   0.01040   0.01040   2.07919
   R18        2.94754  -0.00323   0.00000  -0.01302  -0.01338   2.93416
   R19        2.94746  -0.00321   0.00000  -0.01295  -0.01331   2.93415
   R20        2.90902   0.00167   0.00000   0.00709   0.00745   2.91647
   R21        2.06631   0.00552   0.00000   0.01542   0.01542   2.08173
   R22        2.07269   0.00120   0.00000   0.00337   0.00337   2.07607
   R23        2.90908   0.00165   0.00000   0.00704   0.00740   2.91649
   R24        2.06526   0.00501   0.00000   0.01396   0.01396   2.07922
   R25        2.07105   0.00180   0.00000   0.00505   0.00505   2.07610
   R26        2.06631   0.00552   0.00000   0.01542   0.01542   2.08173
   R27        2.07254   0.00125   0.00000   0.00353   0.00353   2.07606
    A1        2.12863   0.02234   0.00000   0.08206   0.08209   2.21072
    A2        2.28222  -0.02292   0.00000  -0.08932  -0.08929   2.19292
    A3        1.87234   0.00058   0.00000   0.00726   0.00720   1.87954
    A4        2.22967   0.00095   0.00000   0.00218   0.00209   2.23176
    A5        1.90471   0.00319   0.00000   0.01309   0.01315   1.91786
    A6        2.14880  -0.00414   0.00000  -0.01527  -0.01524   2.13356
    A7        2.04338   0.00154   0.00000   0.00745   0.00747   2.05085
    A8        2.10597  -0.00126   0.00000  -0.00653  -0.00654   2.09944
    A9        2.13383  -0.00028   0.00000  -0.00092  -0.00093   2.13290
   A10        2.08641   0.00055   0.00000   0.00253   0.00255   2.08896
   A11        2.11279   0.00084   0.00000   0.00228   0.00224   2.11503
   A12        2.08399  -0.00139   0.00000  -0.00480  -0.00478   2.07920
   A13        2.10480  -0.00040   0.00000  -0.00402  -0.00404   2.10076
   A14        2.09734  -0.00175   0.00000  -0.00918  -0.00917   2.08817
   A15        2.08105   0.00215   0.00000   0.01320   0.01321   2.09426
   A16        2.07131   0.00148   0.00000   0.00457   0.00463   2.07594
   A17        2.09813  -0.00162   0.00000  -0.00733  -0.00736   2.09077
   A18        2.11375   0.00014   0.00000   0.00276   0.00274   2.11648
   A19        2.08529   0.00068   0.00000   0.00498   0.00494   2.09023
   A20        1.99536  -0.01139   0.00000  -0.04780  -0.04756   1.94780
   A21        2.20254   0.01071   0.00000   0.04281   0.04262   2.24515
   A22        1.80366   0.00747   0.00000   0.03315   0.03321   1.83687
   A23        1.91912  -0.00147   0.00000   0.00489   0.00475   1.92387
   A24        1.91906  -0.00147   0.00000   0.00493   0.00478   1.92385
   A25        1.95172  -0.00173   0.00000  -0.00565  -0.00603   1.94568
   A26        1.95162  -0.00173   0.00000  -0.00559  -0.00597   1.94565
   A27        1.91593  -0.00073   0.00000  -0.02772  -0.02781   1.88812
   A28        1.84870   0.00016   0.00000  -0.00570  -0.00600   1.84270
   A29        2.03908  -0.00037   0.00000  -0.00405  -0.00365   2.03542
   A30        2.03905  -0.00037   0.00000  -0.00402  -0.00362   2.03543
   A31        2.01217  -0.00033   0.00000  -0.00089  -0.00088   2.01129
   A32        2.01224  -0.00034   0.00000  -0.00095  -0.00094   2.01130
   A33        1.50664   0.00132   0.00000   0.01889   0.01826   1.52490
   A34        1.53563   0.00191   0.00000   0.01720   0.01551   1.55114
   A35        2.03697  -0.00027   0.00000   0.00024  -0.00091   2.03606
   A36        1.98928  -0.00377   0.00000  -0.05094  -0.05086   1.93842
   A37        2.01331   0.00361   0.00000   0.05282   0.05333   2.06664
   A38        1.98014  -0.00319   0.00000  -0.02981  -0.02989   1.95025
   A39        1.89207   0.00143   0.00000   0.00899   0.00860   1.90067
   A40        1.53157  -0.00185   0.00000   0.00623   0.00494   1.53651
   A41        2.02078   0.00285   0.00000   0.02861   0.02821   2.04899
   A42        1.98509  -0.00177   0.00000  -0.03009  -0.02991   1.95518
   A43        2.02071   0.00285   0.00000   0.02866   0.02827   2.04897
   A44        1.98500  -0.00176   0.00000  -0.03002  -0.02985   1.95515
   A45        1.90146  -0.00049   0.00000  -0.00313  -0.00277   1.89869
   A46        1.53564   0.00191   0.00000   0.01719   0.01550   1.55114
   A47        2.03690  -0.00026   0.00000   0.00029  -0.00086   2.03604
   A48        1.98934  -0.00377   0.00000  -0.05097  -0.05089   1.93845
   A49        2.01331   0.00361   0.00000   0.05280   0.05331   2.06662
   A50        1.98018  -0.00320   0.00000  -0.02983  -0.02991   1.95027
   A51        1.89204   0.00143   0.00000   0.00902   0.00862   1.90067
    D1        0.00002  -0.00000   0.00000   0.00002   0.00003   0.00005
    D2        3.14153   0.00000   0.00000   0.00005   0.00006   3.14159
    D3       -3.14151  -0.00000   0.00000  -0.00005  -0.00006  -3.14157
    D4       -0.00001  -0.00000   0.00000  -0.00002  -0.00002  -0.00003
    D5       -3.14150  -0.00000   0.00000  -0.00009  -0.00009  -3.14159
    D6       -0.87345  -0.00062   0.00000  -0.00966  -0.00949  -0.88294
    D7        0.87356   0.00061   0.00000   0.00952   0.00936   0.88291
    D8        0.00003  -0.00000   0.00000  -0.00000  -0.00000   0.00003
    D9        2.26808  -0.00061   0.00000  -0.00956  -0.00940   2.25868
   D10       -2.26810   0.00062   0.00000   0.00962   0.00945  -2.25865
   D11        3.14154  -0.00000   0.00000  -0.00001  -0.00001   3.14153
   D12       -0.00010   0.00000   0.00000   0.00004   0.00004  -0.00006
   D13        0.00005  -0.00000   0.00000  -0.00004  -0.00005   0.00000
   D14        3.14159   0.00000   0.00000   0.00000   0.00000  -3.14159
   D15       -3.14154   0.00000   0.00000   0.00001   0.00001  -3.14154
   D16       -0.00001   0.00000   0.00000   0.00004   0.00004   0.00003
   D17       -0.00003   0.00000   0.00000   0.00004   0.00004   0.00000
   D18        3.14149   0.00000   0.00000   0.00007   0.00007   3.14156
   D19        3.14152   0.00000   0.00000   0.00006   0.00006   3.14159
   D20        0.00003  -0.00000   0.00000  -0.00003  -0.00003   0.00000
   D21       -0.00002   0.00000   0.00000   0.00002   0.00002  -0.00001
   D22       -3.14151  -0.00000   0.00000  -0.00007  -0.00007  -3.14159
   D23       -0.00012   0.00000   0.00000   0.00011   0.00011  -0.00001
   D24       -3.14154  -0.00000   0.00000  -0.00002  -0.00002  -3.14156
   D25        3.14157   0.00000   0.00000   0.00002   0.00002   3.14159
   D26        0.00015  -0.00000   0.00000  -0.00011  -0.00011   0.00004
   D27        0.00014  -0.00000   0.00000  -0.00012  -0.00012   0.00002
   D28       -3.14158  -0.00000   0.00000  -0.00003  -0.00003   3.14157
   D29        3.14156   0.00000   0.00000   0.00001   0.00001   3.14157
   D30       -0.00016   0.00000   0.00000   0.00010   0.00010  -0.00006
   D31       -0.00006   0.00000   0.00000   0.00005   0.00005  -0.00001
   D32       -3.14158   0.00000   0.00000   0.00001   0.00001  -3.14157
   D33       -3.14152  -0.00000   0.00000  -0.00004  -0.00004  -3.14157
   D34        0.00015  -0.00000   0.00000  -0.00008  -0.00008   0.00006
   D35        0.00003  -0.00000   0.00000  -0.00004  -0.00004  -0.00001
   D36       -2.08586  -0.00139   0.00000  -0.01407  -0.01421  -2.10008
   D37        2.08579   0.00140   0.00000   0.01407   0.01422   2.10001
   D38        3.14155  -0.00000   0.00000  -0.00000  -0.00000   3.14155
   D39        1.05566  -0.00139   0.00000  -0.01403  -0.01418   1.04148
   D40       -1.05587   0.00140   0.00000   0.01411   0.01426  -1.04161
   D41       -0.00003   0.00000   0.00000   0.00002   0.00002  -0.00001
   D42       -2.28355   0.00063   0.00000   0.01117   0.01081  -2.27274
   D43        2.28350  -0.00063   0.00000  -0.01113  -0.01076   2.27274
   D44        2.06329   0.00177   0.00000   0.02235   0.02232   2.08561
   D45       -0.22023   0.00240   0.00000   0.03350   0.03311  -0.18712
   D46       -1.93636   0.00114   0.00000   0.01119   0.01153  -1.92483
   D47       -2.06325  -0.00177   0.00000  -0.02237  -0.02234  -2.08559
   D48        1.93642  -0.00114   0.00000  -0.01122  -0.01156   1.92486
   D49        0.22029  -0.00240   0.00000  -0.03352  -0.03313   0.18716
   D50        2.47327  -0.00320   0.00000  -0.06180  -0.06198   2.41129
   D51       -1.75892   0.00190   0.00000   0.00798   0.00771  -1.75120
   D52        0.46878   0.00006   0.00000  -0.02843  -0.02831   0.44047
   D53       -1.62163  -0.00364   0.00000  -0.07478  -0.07493  -1.69656
   D54        0.42937   0.00147   0.00000  -0.00500  -0.00524   0.42413
   D55        2.65707  -0.00038   0.00000  -0.04140  -0.04126   2.61581
   D56        0.40828  -0.00342   0.00000  -0.06662  -0.06700   0.34128
   D57        2.45927   0.00169   0.00000   0.00316   0.00270   2.46197
   D58       -1.59621  -0.00016   0.00000  -0.03325  -0.03333  -1.62954
   D59       -2.47329   0.00320   0.00000   0.06182   0.06200  -2.41128
   D60        1.75891  -0.00190   0.00000  -0.00794  -0.00767   1.75123
   D61       -0.46874  -0.00006   0.00000   0.02841   0.02830  -0.44044
   D62        1.62157   0.00364   0.00000   0.07482   0.07498   1.69654
   D63       -0.42943  -0.00146   0.00000   0.00507   0.00530  -0.42412
   D64       -2.65708   0.00038   0.00000   0.04142   0.04128  -2.61580
   D65       -0.40827   0.00342   0.00000   0.06661   0.06699  -0.34127
   D66       -2.45926  -0.00169   0.00000  -0.00314  -0.00268  -2.46194
   D67        1.59628   0.00015   0.00000   0.03321   0.03329   1.62957
   D68       -0.41342   0.00413   0.00000   0.07013   0.07016  -0.34326
   D69       -2.46715   0.00128   0.00000   0.02849   0.02854  -2.43861
   D70        1.59383   0.00103   0.00000   0.03501   0.03525   1.62908
   D71       -2.48604   0.00264   0.00000   0.04928   0.04889  -2.43715
   D72        1.74342  -0.00021   0.00000   0.00764   0.00727   1.75068
   D73       -0.47878  -0.00046   0.00000   0.01416   0.01397  -0.46481
   D74        1.59963   0.00032   0.00000   0.01696   0.01678   1.61642
   D75       -0.45410  -0.00252   0.00000  -0.02468  -0.02484  -0.47893
   D76       -2.67630  -0.00277   0.00000  -0.01815  -0.01813  -2.69443
   D77        0.41344  -0.00413   0.00000  -0.07014  -0.07017   0.34326
   D78        2.48598  -0.00264   0.00000  -0.04925  -0.04886   2.43712
   D79       -1.59970  -0.00032   0.00000  -0.01693  -0.01675  -1.61645
   D80        2.46723  -0.00129   0.00000  -0.02856  -0.02861   2.43863
   D81       -1.74341   0.00020   0.00000  -0.00766  -0.00729  -1.75070
   D82        0.45410   0.00252   0.00000   0.02465   0.02481   0.47891
   D83       -1.59391  -0.00103   0.00000  -0.03496  -0.03520  -1.62911
   D84        0.47863   0.00046   0.00000  -0.01407  -0.01389   0.46475
   D85        2.67614   0.00277   0.00000   0.01824   0.01822   2.69436
         Item               Value     Threshold  Converged?
 Maximum Force            0.023908     0.000450     NO 
 RMS     Force            0.004602     0.000300     NO 
 Maximum Displacement     0.285327     0.001800     NO 
 RMS     Displacement     0.046361     0.001200     NO 
 Predicted change in Energy=-7.844407D-03
 GradGradGradGradGradGradGradGradGradGradGradGradGradGradGradGradGradGrad

                          Input orientation:                          
 ---------------------------------------------------------------------
 Center     Atomic      Atomic             Coordinates (Angstroms)
 Number     Number       Type             X           Y           Z
 ---------------------------------------------------------------------
      1          8           0       -0.486889   -2.460852   -0.456810
      2          6           0       -0.197562   -1.300221   -0.285922
      3          6           0        1.166641   -0.745281   -0.093744
      4          6           0        2.375177   -1.436399   -0.071126
      5          6           0        3.536606   -0.694390    0.126054
      6         35           0        5.212908   -1.570928    0.167680
      7          6           0        3.489441    0.695220    0.295185
      8          6           0        2.267473    1.367732    0.269024
      9          6           0        1.097285    0.634239    0.072123
     10          6           0       -0.326616    1.131039    0.005825
     11          6           0       -1.187561   -0.132179   -0.229357
     12          6           0       -2.209636   -0.029421   -1.393684
     13          6           0       -3.302243    0.324806   -0.362860
     14          6           0       -2.400624   -0.293958    0.726225
     15          1           0        2.392506   -2.519318   -0.204674
     16          1           0        4.415661    1.252230    0.448072
     17          1           0        2.241553    2.451640    0.401947
     18          1           0       -0.439397    1.854147   -0.815735
     19          1           0       -0.598096    1.634312    0.945820
     20          1           0       -1.982405    0.699308   -2.187943
     21          1           0       -2.385965   -1.012095   -1.852158
     22          1           0       -4.298370   -0.119336   -0.508018
     23          1           0       -3.413810    1.410530   -0.237405
     24          1           0       -2.332797    0.214002    1.701370
     25          1           0       -2.633280   -1.354629    0.892908
 ---------------------------------------------------------------------
                    Distance matrix (angstroms):
                    1          2          3          4          5
     1  O    0.000000
     2  C    1.208295   0.000000
     3  C    2.410220   1.485241   0.000000
     4  C    3.064258   2.585280   1.392378   0.000000
     5  C    4.432677   3.805361   2.380680   1.392255   0.000000
     6  Br   5.802554   5.436196   4.137911   2.850937   1.892098
     7  C    5.132005   4.232429   2.760744   2.433015   1.400659
     8  C    4.771939   3.674553   2.410033   2.826738   2.425590
     9  C    3.516954   2.355199   1.391185   2.437430   2.778210
    10  C    3.625107   2.452100   2.400064   3.727914   4.274474
    11  C    2.442416   1.532194   2.436504   3.797253   4.770761
    12  C    3.123692   2.624978   3.688027   4.974863   5.980894
    13  C    3.961684   3.505093   4.603090   5.951475   6.931642
    14  C    3.123681   2.624974   3.688010   4.974858   5.980907
    15  H    2.891004   2.863783   2.159226   1.091260   2.179153
    16  H    6.216171   5.323118   3.852240   3.414947   2.160038
    17  H    5.684579   4.527572   3.409026   3.918992   3.413325
    18  H    4.330162   3.207682   3.139690   4.393627   4.815663
    19  H    4.330139   3.207662   3.139658   4.393609   4.815666
    20  H    3.901283   3.286558   4.048333   5.294402   6.144629
    21  H    2.766294   2.706514   3.972935   5.101038   6.252288
    22  H    4.473557   4.273223   5.516319   6.816286   7.881598
    23  H    4.858251   4.206516   5.064454   6.453296   7.271250
    24  H    3.901277   3.286552   4.048299   5.294392   6.144647
    25  H    2.766309   2.706533   3.972932   5.101048   6.252318
                    6          7          8          9         10
     6  Br   0.000000
     7  C    2.849916   0.000000
     8  C    4.161920   1.395049   0.000000
     9  C    4.670143   2.403306   1.395035   0.000000
    10  C    6.165480   3.851747   2.618128   1.509536   0.000000
    11  C    6.572187   4.778502   3.799392   2.428746   1.546692
    12  C    7.740042   5.988060   4.976057   3.677603   2.617453
    13  C    8.739741   6.833535   5.701641   4.431795   3.104883
    14  C    7.740057   5.988082   4.976080   3.677603   2.617461
    15  H    2.998792   3.433129   3.917803   3.420399   4.556648
    16  H    2.946938   1.091567   2.158729   3.396302   4.764395
    17  H    5.006484   2.157228   1.092336   2.172805   2.914857
    18  H    6.681825   4.244175   2.956424   2.153569   1.100257
    19  H    6.681828   4.244193   2.956452   2.153558   1.100262
    20  H    7.904142   6.008914   4.954285   3.820554   2.782203
    21  H    7.882570   6.484319   5.640698   4.306542   3.505145
    22  H    9.645107   7.871380   6.776832   5.478826   4.195510
    23  H    9.136380   6.960617   5.703971   4.587856   3.109348
    24  H    7.904166   6.008941   4.954310   3.820538   2.782192
    25  H    7.882602   6.484355   5.640732   4.306553   3.505162
                   11         12         13         14         15
    11  C    0.000000
    12  C    1.552693   0.000000
    13  C    2.167611   1.543329   0.000000
    14  C    1.552685   2.144871   1.543338   0.000000
    15  H    4.303013   5.365915   6.367435   5.365901   0.000000
    16  H    5.811334   6.994945   7.815611   6.994984   4.329412
    17  H    4.339757   5.403059   5.986822   5.403080   5.010110
    18  H    2.202062   2.648698   3.277174   3.292174   5.245976
    19  H    2.202044   3.292164   3.277172   2.648689   5.245949
    20  H    2.271389   1.101602   2.283233   3.107066   5.782107
    21  H    2.200888   1.098608   2.201108   2.676564   5.274439
    22  H    3.123291   2.270528   1.100273   2.270526   7.114756
    23  H    2.708542   2.204648   1.098627   2.204633   7.011282
    24  H    2.271368   3.107054   2.283232   1.101604   5.782087
    25  H    2.200901   2.676594   2.201128   1.098606   5.274440
                   16         17         18         19         20
    16  H    0.000000
    17  H    2.483436   0.000000
    18  H    5.052831   3.004537   0.000000
    19  H    5.052871   3.004569   1.782299   0.000000
    20  H    6.941870   5.255476   2.365900   3.551199   0.000000
    21  H    7.528635   6.204223   3.616441   4.246013   1.790115
    22  H    8.872972   7.085799   4.345227   4.345221   2.975906
    23  H    7.861015   5.785829   3.062417   3.062408   2.521777
    24  H    6.941927   5.255493   3.551177   2.365866   3.935105
    25  H    7.528690   6.204251   4.246036   3.616426   3.759513
                   21         22         23         24         25
    21  H    0.000000
    22  H    2.502203   0.000000
    23  H    3.087556   1.787782   0.000000
    24  H    3.759481   2.975901   2.521729   0.000000
    25  H    2.777387   2.502212   3.087545   1.790113   0.000000
 Stoichiometry    C12H11BrO
 Framework group  C1[X(C12H11BrO)]
 Deg. of freedom    69
 Full point group                 C1      NOp   1
 Largest Abelian subgroup         C1      NOp   1
 Largest concise Abelian subgroup C1      NOp   1
                         Standard orientation:                         
 ---------------------------------------------------------------------
 Center     Atomic      Atomic             Coordinates (Angstroms)
 Number     Number       Type             X           Y           Z
 ---------------------------------------------------------------------
      1          8           0        1.713791   -2.219954    0.000008
      2          6           0        1.613884   -1.015796    0.000001
      3          6           0        0.353258   -0.230454   -0.000044
      4          6           0       -0.953415   -0.711414   -0.000029
      5          6           0       -1.983379    0.225361   -0.000002
      6         35           0       -3.782622   -0.360096    0.000008
      7          6           0       -1.713600    1.599794    0.000006
      8          6           0       -0.396625    2.059946    0.000003
      9          6           0        0.643371    1.130145   -0.000031
     10          6           0        2.131925    1.380958   -0.000012
     11          6           0        2.780913   -0.022991   -0.000004
     12          6           0        3.881874   -0.243408    1.072449
     13          6           0        4.946524    0.070106    0.000024
     14          6           0        3.881891   -0.243437   -1.072422
     15          1           0       -1.144432   -1.785826   -0.000040
     16          1           0       -2.540553    2.312302    0.000055
     17          1           0       -0.196951    3.133877   -0.000012
     18          1           0        2.420464    1.958183    0.891122
     19          1           0        2.420473    1.958143   -0.891176
     20          1           0        3.835185    0.396992    1.967567
     21          1           0        3.920152   -1.294815    1.388703
     22          1           0        5.860768   -0.542070    0.000032
     23          1           0        5.231227    1.131203   -0.000010
     24          1           0        3.835216    0.396968   -1.967538
     25          1           0        3.920182   -1.294839   -1.388684
 ---------------------------------------------------------------------
 Rotational constants (GHZ):           1.6729208           0.2216344           0.2021076
 Standard basis: def2SVP (5D, 7F)
 There are   285 symmetry adapted cartesian basis functions of A   symmetry.
 There are   269 symmetry adapted basis functions of A   symmetry.
   269 basis functions,   482 primitive gaussians,   285 cartesian basis functions
    63 alpha electrons       63 beta electrons
       nuclear repulsion energy      1111.8971350022 Hartrees.
 NAtoms=   25 NActive=   25 NUniq=   25 SFac= 1.00D+00 NAtFMM=   60 NAOKFM=F Big=F
 Integral buffers will be    131072 words long.
 Raffenetti 2 integral format.
 Two-electron integral symmetry is turned on.
 Nuclear repulsion after empirical dispersion term =     1111.8790138300 Hartrees.
 One-electron integrals computed using PRISM.
   1 Symmetry operations used in ECPInt.
 ECPInt:  NShTT=    7626 NPrTT=   29403 LenC2=    7141 LenP2D=   20137.
 LDataN:  DoStor=T MaxTD1= 4 Len=   56
 NBasis=   269 RedAO= T EigKep=  2.58D-04  NBF=   269
 NBsUse=   269 1.00D-06 EigRej= -1.00D+00 NBFU=   269
 Initial guess from the checkpoint file:  "/home/rpaton/opt/dzvp/Gau-2287553.chk"
 B after Tr=     0.000000   -0.000000   -0.000000
         Rot=    0.999993    0.000000    0.000000   -0.003619 Ang=   0.41 deg.
 ExpMin= 1.22D-01 ExpMax= 1.13D+05 ExpMxC= 1.70D+04 IAcc=3 IRadAn=         5 AccDes= 0.00D+00
 Harris functional with IExCor= 4639 and IRadAn=       5 diagonalized for initial guess.
 HarFok:  IExCor= 4639 AccDes= 0.00D+00 IRadAn=         5 IDoV= 1 UseB2=F ITyADJ=14
 ICtDFT=  3500011 ScaDFX=  1.000000  1.000000  1.000000  1.000000
 FoFCou: FMM=F IPFlag=           0 FMFlag=      100000 FMFlg1=           0
         NFxFlg=           0 DoJE=T BraDBF=F KetDBF=T FulRan=T
         wScrn=  0.000000 ICntrl=       500 IOpCl=  0 I1Cent=   200000004 NGrid=           0
         NMat0=    1 NMatS0=      1 NMatT0=    0 NMatD0=    1 NMtDS0=    0 NMtDT0=    0
 Petite list used in FoFCou.
 Requested convergence on RMS density matrix=1.00D-08 within 128 cycles.
 Requested convergence on MAX density matrix=1.00D-06.
 Requested convergence on             energy=1.00D-06.
 No special actions if energy rises.
 Integral accuracy reduced to 1.0D-05 until final iterations.
 Initial convergence to 1.0D-05 achieved.  Increase integral accuracy.
 SCF Done:  E(RwB97XD) =  -3112.45826593     A.U. after   15 cycles
            NFock= 15  Conv=0.38D-08     -V/T= 2.0028
   1 Symmetry operations used in ECPInt.
 ECPInt:  NShTT=    7626 NPrTT=   29403 LenC2=    7141 LenP2D=   20137.
 LDataN:  DoStor=T MaxTD1= 5 Len=  102
 Calling FoFJK, ICntrl=      2127 FMM=F ISym2X=0 I1Cent= 0 IOpClX= 0 NMat=1 NMatS=1 NMatT=0.
 ***** Axes restored to original set *****
 -------------------------------------------------------------------
 Center     Atomic                   Forces (Hartrees/Bohr)
 Number     Number              X              Y              Z
 -------------------------------------------------------------------
      1        8          -0.000242310    0.003825257    0.000453863
      2        6          -0.001352894   -0.002301043   -0.000402834
      3        6           0.000180550   -0.000323270   -0.000028665
      4        6           0.002416450   -0.000163341    0.000198432
      5        6          -0.001152675   -0.002452020   -0.000408136
      6       35           0.000225277   -0.000113513    0.000005821
      7        6          -0.001945695    0.002086881    0.000081453
      8        6           0.001294826   -0.001986122   -0.000126451
      9        6          -0.001207254    0.002496419    0.000199673
     10        6           0.000297701   -0.003574099   -0.000411834
     11        6           0.003011766   -0.000651947    0.000182684
     12        6          -0.001020837    0.002433615    0.000016071
     13        6          -0.000429936   -0.003594174   -0.000481793
     14        6          -0.001057818    0.002391984    0.000400773
     15        1           0.000297963   -0.000142529    0.000008529
     16        1           0.000071262   -0.000386710   -0.000040158
     17        1          -0.000227904   -0.000075282   -0.000031818
     18        1          -0.000598234    0.001978695    0.000855457
     19        1          -0.000480920    0.002140949   -0.000441419
     20        1          -0.000110689   -0.000440448    0.000669453
     21        1           0.000721739   -0.001394596    0.000688835
     22        1           0.000504518    0.000735834    0.000136359
     23        1          -0.000075407    0.000973485    0.000112920
     24        1           0.000017633   -0.000262603   -0.000765822
     25        1           0.000862888   -0.001201420   -0.000871394
 -------------------------------------------------------------------
 Cartesian Forces:  Max     0.003825257 RMS     0.001298682

 GradGradGradGradGradGradGradGradGradGradGradGradGradGradGradGradGradGrad
 Berny optimization.
 Using GEDIIS/GDIIS optimizer.
 FormGI is forming the generalized inverse of G from B-inverse, IUseBI=4.
 Internal  Forces:  Max     0.003680436 RMS     0.000685271
 Search for a local minimum.
 Step number   2 out of a maximum of  150
 All quantities printed in internal units (Hartrees-Bohrs-Radians)
 Mixed Optimization -- En-DIIS/RFO-DIIS
 Update second derivatives using D2CorX and points    1    2
[...]
 0.00013660,0.00025941,-0.00012934,-0.00006304,-0.00143347,-0.00101460,
 0.00700368,-0.00003963,0.00019497,-0.00081648,-0.00071976,-0.00066932,
 0.00763003,-0.00003143,0.00002722,0.00005377,-0.00046858,0.00080936,0.
 00403756,-0.00136009,-0.03743231,-0.04402412,0.00068821,-0.00417681,0.
 00374357,0.00050584,0.00050855,-0.00307101,-0.00001989,-0.00002188,0.0
 0004181,-0.00002513,-0.00005895,-0.00002435,-0.00000442,-0.00000130,0.
 00000139,0.00003489,0.00009226,-0.00001719,0.00010077,0.00011794,-0.00
 103627,0.00047870,0.00061781,-0.00449170,0.00228878,0.04112687,0.03153
 232,0.00106291,-0.00078989,-0.00019008,-0.00354651,-0.00003453,-0.0005
 5693,-0.00219290,0.00004118,0.00007011,-0.00050147,0.00039112,0.001303
 29,0.00023468,0.00031608,-0.00010672,-0.00028351,0.00012158,-0.0000730
 7,0.00020390,-0.00001766,0.00099237,0.00066680,0.00027267,0.00088125,-
 0.00339947,0.02142066,-0.02369967,-0.04650284,0.01756639,-0.02111765,0
 .00120960,-0.01176372,0.01311338,0.00055973,-0.00074327,0.00127257,0.0
 0015275,-0.00020548,0.00008272,-0.00069399,-0.00241152,-0.00003618,-0.
 00022736,0.00008934,0.00003669,-0.00001425,-0.00001322,-0.00007210,-0.
 00009217,-0.00041652,-0.00060299,0.05297438,0.00082423,-0.00122334,-0.
 00070758,-0.00289396,-0.00156038,0.00087324,0.00176075,0.00011346,0.00
 036554,-0.00037527,-0.00026773,-0.00053246,0.00004456,0.00075039,0.000
 11890,0.00005662,-0.00004135,0.00005324,0.00079843,-0.00073070,-0.0004
 7798,-0.00179916,0.00027912,-0.00031485,0.00333456,-0.00675775,0.00546
 220,0.01607263,-0.16077502,0.13331031,0.00191288,-0.01357272,0.0148220
 2,0.00135506,0.00090770,0.00165489,0.00006475,0.00005093,0.00016552,0.
 00017906,-0.00225352,-0.00021988,0.00005298,-0.00007298,0.00001537,0.0
 0002312,-0.00001945,0.00001330,0.00009637,-0.00002484,0.00046857,-0.01
 839032,0.17431251,0.00031646,-0.00023403,-0.00023038,-0.00054751,-0.00
 105660,-0.00005292,0.00012677,-0.00053084,-0.00042205,0.00005633,-0.00
 005790,-0.00018024,0.00003403,-0.00020707,-0.00007205,-0.00007998,0.00
 003442,-0.00000574,-0.00027328,0.00013954,0.00006729,0.00012264,0.0003
 5629,0.00075837,0.00033298,-0.00172155,0.00199387,-0.01998354,0.134398
 68,-0.19747318,0.00098422,-0.00524647,0.00448598,-0.00080234,-0.001452
 54,0.00151635,-0.00015841,0.00019617,-0.00000954,-0.00032005,-0.000064
 51,0.00000815,-0.00000067,-0.00001897,0.00002326,-0.00002058,0.0000167
 3,-0.00000506,-0.00025276,-0.00000953,-0.00018676,0.02349048,-0.142559
 72,0.20803652,0.00104653,-0.00084329,0.00020022,-0.00356490,-0.0002430
 7,-0.00011574,-0.00214116,-0.00000974,-0.00038346,-0.00025398,0.000687
 24,-0.00119502,0.00020542,0.00021586,0.00021922,-0.00030550,0.00011118
 ,0.00004970,0.00030832,0.00026305,-0.00092333,0.00087616,0.00054488,-0
 .00075551,-0.00783146,0.01473459,0.02653479,-0.06011344,0.02995546,0.0
 5786462,0.00392190,-0.00860149,-0.01549327,-0.00068532,-0.00225464,-0.
 00067213,0.00013620,-0.00014781,-0.00009243,0.00065689,-0.00062328,-0.
 00159282,-0.00021635,0.00009823,-0.00005664,-0.00003035,-0.00002654,0.
 00006327,-0.00023817,-0.00055072,0.00048275,0.00124241,-0.00193573,-0.
 00336959,0.06786932,0.00073648,-0.00138722,0.00055549,-0.00262878,-0.0
 0144689,-0.00174216,0.00180203,0.00000228,0.00007134,-0.00043103,-0.00
 040981,0.00043304,0.00004842,0.00067299,0.00007605,0.00005084,-0.00002
 160,-0.00005047,0.00062405,-0.00078316,0.00040659,-0.00173391,0.000344
 85,-0.00008531,0.00460780,-0.00575386,-0.00722909,0.02861580,-0.100116
 68,-0.10584518,0.00501814,-0.01009530,-0.01756800,0.00011915,-0.002135
 89,-0.00030351,0.00004574,0.00013628,-0.00012066,0.00141885,0.00097587
 ,-0.00152943,0.00006047,-0.00007141,-0.00002779,0.00002008,-0.00001120
 ,-0.00001305,0.00010798,0.00008540,-0.00040075,-0.00576762,0.01020134,
 0.01803914,-0.03150469,0.10939444,0.00009196,-0.00020601,-0.00005016,-
 0.00077942,0.00066041,-0.00014830,0.00000062,0.00064914,-0.00036229,-0
 .00018339,0.00012830,-0.00028571,0.00002378,0.00044172,0.00003452,0.00
 004100,-0.00002037,-0.00000351,0.00048931,-0.00031715,0.00001561,-0.00
 054009,-0.00036453,0.00048349,-0.00101831,0.00249634,0.00542092,0.0563
 7695,-0.10667868,-0.24451923,0.00004217,0.00004206,-0.00170394,0.00023
 120,-0.00090593,-0.00011794,0.00020655,-0.00019309,-0.00007838,0.00099
 868,0.00120513,0.00135077,-0.00002850,0.00001320,0.00001066,0.00002209
 ,-0.00002395,0.00000279,0.00027873,-0.00002820,-0.00015104,0.00609477,
 -0.01139034,-0.01868261,-0.06144027,0.11444118,0.25805899,-0.00003108,
 0.00088981,0.00044375,0.00077315,-0.00188619,-0.00255943,-0.00058599,0
 .00031665,0.00044817,0.00005802,-0.00016780,0.00008213,-0.00005589,-0.
 00014059,-0.00006721,-0.00003252,0.00000961,-0.00001259,-0.00010730,0.
 00011810,0.00001446,0.00021754,-0.00003722,-0.00004245,-0.00016595,0.0
 0032808,0.00012128,0.00178780,0.00148443,0.00033056,0.00290181,0.01741
 385,-0.01196686,-0.06026952,-0.03441856,0.03564876,-0.00068900,-0.0187
 3285,0.01027965,-0.00069901,0.00051634,0.00110524,0.00002739,0.0000025
 0,0.00001351,0.00000467,-0.00000504,0.00000742,-0.00001368,-0.00001637
 ,-0.00000457,0.00004706,-0.00070138,0.00030837,0.00003067,-0.00014097,
 0.00010850,0.05571649,0.00090515,0.00018638,0.00027674,-0.00052298,-0.
 00088642,0.00035138,0.00014596,-0.00001904,-0.00000990,0.00007725,0.00
 003900,0.00002182,-0.00006256,-0.00001201,-0.00000728,0.00003966,-0.00
 001271,-0.00000338,0.00001147,0.00005622,0.00002783,0.00010792,0.00000
 361,-0.00002236,-0.00012566,0.00001784,-0.00014849,-0.00042753,0.00099
 925,-0.00110586,-0.00183796,-0.00088019,-0.00277298,-0.03386477,-0.180
 82013,0.13371295,0.00172987,0.00693028,-0.00717871,0.00099427,0.000707
 98,-0.00085840,-0.00002167,-0.00000739,0.00000333,0.00000509,-0.000000
 69,0.00000943,-0.00000475,0.00000840,0.00000306,0.00016543,0.00032736,
 0.00017677,-0.00003232,0.00006243,-0.00006203,0.03721811,0.18684936,0.
 00006412,0.00080921,0.00051004,0.00175459,-0.00209480,-0.00173418,-0.0
 0044241,0.00011149,0.00011434,0.00011113,-0.00013814,0.00000932,-0.000
 04129,-0.00016233,-0.00004928,-0.00001706,0.00000085,-0.00000220,-0.00
 012971,0.00008532,-0.00000225,0.00017919,0.00003114,-0.00008340,-0.000
 44700,-0.00002277,0.00027923,0.00119570,0.00158759,0.00132940,0.001998
 66,0.01161703,-0.01079528,0.03531592,0.13319638,-0.17922791,0.00025683
 ,0.00893894,-0.00858006,0.00099734,-0.00168965,-0.00502287,0.00003189,
 0.00000090,0.00000449,0.00000094,-0.00000100,0.00000972,-0.00001934,-0
 .00002092,-0.00000968,-0.00076436,-0.00119759,0.00002519,0.00020272,-0
 .00004114,0.00017966,-0.03773884,-0.14225226,0.19293011,0.00074419,0.0
 0140789,0.00130527,-0.00064097,-0.00363684,-0.00068633,0.00062706,0.00
 012300,-0.00030038,-0.00014970,0.00014440,-0.00004492,0.00007524,0.000
 16088,0.00007523,-0.00001701,0.00001884,0.00000532,0.00006322,-0.00016
 667,-0.00001008,-0.00045306,0.00020919,0.00019859,0.00039369,-0.001108
 02,-0.00034902,-0.00225941,0.00074832,-0.00389844,-0.00570900,-0.02203
 710,-0.00920403,-0.04642921,-0.02848895,-0.01140724,0.00277835,0.02649
 921,0.01101897,-0.00066560,0.00020847,-0.00005270,-0.00006152,0.000012
 02,-0.00003115,-0.00002680,0.00002016,-0.00003099,0.00003818,0.0000224
 0,-0.00000404,-0.00001216,0.00036029,-0.00008466,-0.00066742,-0.000520
 44,-0.00032586,-0.00037209,-0.00433264,-0.00265266,0.05407069,0.000287
 83,0.00121319,0.00008542,0.00165568,-0.00104886,0.00019991,-0.00044206
 ,-0.00005807,0.00021470,0.00003908,-0.00006970,0.00003982,0.00002989,-
 0.00003340,-0.00003149,-0.00005263,0.00002324,-0.00000687,-0.00001810,
 0.00002112,0.00001358,-0.00000264,0.00001029,-0.00007943,0.00001032,0.
 00003139,-0.00010105,0.00047445,0.00006224,0.00040720,-0.00072526,0.00
 368851,0.00134912,-0.02913337,-0.27587248,-0.10205265,-0.00048853,-0.0
 0408869,-0.00069445,-0.00003077,-0.00025265,-0.00007884,0.00001746,0.0
 0002006,0.00001191,-0.00000599,-0.00000084,0.00001254,0.00000361,-0.00
 000687,-0.00000207,0.00014726,0.00029100,-0.00017106,-0.00008225,0.000
 07353,-0.00015387,-0.00179400,-0.01496654,-0.00953315,0.02977478,0.288
 79579,0.00186468,0.00135002,0.00085228,-0.00145477,-0.00401893,0.00059
 025,0.00040114,0.00040867,-0.00029845,-0.00012019,0.00004542,-0.000065
 07,0.00001826,0.00009999,0.00005542,-0.00000257,0.00000388,0.00000492,
 0.00003951,-0.00008674,-0.00001825,-0.00021741,0.00011521,0.00013221,0
 .00026239,-0.00067537,-0.00001782,-0.00019434,0.00115318,-0.00270230,-
 0.00357095,-0.01584774,-0.00731273,-0.01130770,-0.10045723,-0.09558915
 ,-0.00201856,-0.01423032,-0.00564293,0.00009885,0.00053052,0.00024946,
 -0.00004102,-0.00000205,-0.00001584,-0.00001136,0.00001164,-0.00001896
 ,0.00002588,0.00001381,-0.00000106,-0.00011988,-0.00014244,0.00008914,
 -0.00048089,-0.00044422,-0.00004650,0.00259179,0.02035499,0.01102407,0
 .01316269,0.11121434,0.10044802,0.00016248,0.00087357,0.00013303,-0.00
 017054,-0.00207195,-0.00036471,-0.00054490,0.00035468,0.00002857,-0.00
 004400,-0.00015290,-0.00001936,0.00007181,-0.00007495,-0.00000551,-0.0
 0009939,0.00004016,-0.00000431,-0.00007141,0.00000933,-0.00000516,-0.0
 0001644,0.00007303,0.00001152,-0.00001511,0.00000611,-0.00000340,0.000
 10430,0.00023192,0.00000549,-0.00471517,0.00341194,-0.00001988,-0.0107
 7561,-0.00715560,-0.00413958,-0.25592131,-0.11453368,-0.03263849,-0.00
 837251,-0.00504509,0.00052506,0.00001370,0.00000591,0.00000324,-0.0000
 1175,0.00000169,-0.00000175,-0.00000369,-0.00001317,-0.00000123,-0.000
 03326,-0.00001060,0.00004715,-0.00004311,-0.00001059,-0.00006487,-0.00
 130887,0.00032598,0.00012333,0.00126748,-0.00021973,-0.00012690,0.2743
 7052,-0.00023883,-0.00000390,-0.00000888,0.00052832,0.00029102,-0.0000
 4195,0.00005987,-0.00003864,0.00004688,0.00000535,0.00003482,0.0000099
 3,0.00003069,-0.00000802,-0.00000189,-0.00001383,0.00000830,-0.0000007
 1,0.00000614,-0.00000119,0.00000055,-0.00000960,-0.00000050,0.00000446
 ,0.00020651,0.00003140,0.00001867,0.00029097,-0.00007612,-0.00002884,0
 .00335605,-0.00055349,0.00020371,0.00720124,0.00219458,0.00126178,-0.1
 1655964,-0.11156338,-0.01790266,0.01114567,0.00597060,0.00090045,0.000
 00231,0.00000029,0.00000200,-0.00000045,-0.00000033,-0.00000133,0.0000
 0668,0.00000066,0.00000172,0.00010963,0.00003319,-0.00009618,0.0000640
 5,-0.00001104,0.00010323,0.00008841,0.00008714,-0.00000653,0.00001392,
 0.00111550,-0.00006310,0.12037213,0.11345172,-0.00000570,0.00009125,-0
 .00009427,-0.00004035,-0.00027599,0.00097033,-0.00000815,0.00007340,-0
 .00036260,0.00000040,-0.00000432,-0.00004143,0.00000766,-0.00001140,0.
 00002852,-0.00001104,0.00000415,0.00000354,-0.00000556,0.00000084,-0.0
 0000161,0.00000121,0.00001189,-0.00004152,0.00002163,0.00000062,0.0000
 3297,0.00001284,-0.00003416,0.00036176,-0.00002692,0.00020868,0.000259
 36,0.01549391,0.01426832,0.00510137,-0.03289141,-0.01772026,-0.0573983
 3,-0.01529619,-0.01485716,-0.00107778,0.00000279,0.00000233,-0.0000135
 7,-0.00000202,-0.00000114,0.00000968,0.00000125,-0.00000007,-0.0000082
 2,-0.00010495,-0.00007943,0.00001813,0.00011154,0.00006892,0.00007221,
 0.00205670,-0.00034766,-0.00102943,-0.00144797,0.00026656,0.00151794,0
 .03559153,0.01926171,0.05158349,-0.00032313,-0.00041986,-0.00012807,0.
 00039165,0.00035072,0.00008885,0.00002180,-0.00011131,-0.00000122,0.00
 005234,-0.00004168,-0.00000032,-0.00001977,-0.00004902,-0.00000883,0.0
 0001451,-0.00000965,0.,-0.00003483,0.00001188,-0.00000161,0.00006246,0
 .00000526,0.00000822,-0.00030086,-0.00005011,-0.00002805,-0.00028142,0
 .00017220,-0.00004687,0.00020003,-0.00053878,0.00002657,-0.00216199,0.
 01916328,0.00165842,-0.05610294,0.03764329,0.00353534,-0.00177133,0.01
 400377,0.00231010,0.00001942,-0.00000620,0.00000187,0.00000394,-0.0000
 0068,-0.00000026,-0.00001572,-0.00000581,-0.00000216,-0.00017544,-0.00
 008252,0.00019549,-0.00013173,-0.00003194,-0.00023143,0.00162937,-0.00
 024551,-0.00001143,-0.00301444,0.00068884,0.00108868,0.00608031,-0.026
 89417,-0.00281361,0.05651679,0.00023769,0.00022375,-0.00001540,-0.0003
 8594,0.00004405,-0.00001551,0.00019191,-0.00003027,0.00002828,-0.00002
 169,0.00006550,0.00000646,-0.00001868,0.00007061,0.00000584,0.00002732
 ,-0.00000749,0.00000140,0.00004953,-0.00002105,0.00000191,-0.00004236,
 -0.00001169,-0.00000260,0.00009163,-0.00003087,0.00001183,0.00003700,-
 0.00008411,-0.00006680,0.00017423,-0.00051449,0.00005665,-0.00078497,-
 0.00149908,-0.00013999,0.03861633,-0.31276460,-0.03016259,-0.00009156,
 -0.00843790,-0.00092440,-0.00002498,0.00000038,-0.00000096,0.00000122,
 0.00000063,-0.00000055,0.00001191,0.00001087,0.00000240,0.00010565,0.0
 0004400,-0.00007269,0.00009676,0.00001786,0.00010700,0.00003451,0.0010
 7086,-0.00002244,0.00079464,0.00093804,0.00012513,0.00350085,-0.012078
 85,-0.00119900,-0.04411746,0.33125733,-0.00004621,-0.00007456,0.000504
 95,-0.00000308,0.00005092,-0.00010390,0.00003658,0.00000097,-0.0001150
 2,0.00000218,0.00000465,-0.00000109,-0.00000504,0.00000311,0.00001026,
 0.00000462,-0.00000193,0.00000122,0.00000309,-0.00000149,-0.00000046,0
 .00000227,0.00000168,-0.00002101,-0.00001032,-0.00000096,-0.00006032,-
 0.00006375,-0.00005461,0.00046514,0.00011568,-0.00000753,-0.00083324,0
 .00264993,-0.02678374,-0.00418179,0.00365682,-0.03025028,-0.04664291,-
 0.00292984,0.02878537,0.00236627,-0.00000047,0.00000073,-0.00000988,-0
 .00000002,-0.00000072,0.00000580,0.00000005,0.00000081,0.00000032,0.00
 003027,-0.00001313,-0.00002416,-0.00002665,0.00001889,-0.00004173,-0.0
 0139124,0.00052674,0.00122504,0.00463405,-0.00073662,-0.00250000,0.000
 97947,-0.00393639,-0.00034751,-0.00478863,0.03130602,0.05203259,0.0000
 3070,0.00111084,-0.00025618,0.00061413,-0.00285243,0.00235338,-0.00057
 330,0.00044850,-0.00047503,0.00009238,-0.00016618,-0.00011140,-0.00006
 941,-0.00017845,0.00001986,-0.00003776,0.00000728,0.00000821,-0.000127
 16,0.00013209,-0.00000357,0.00023022,-0.00004927,0.00008858,-0.0002122
 3,0.00035591,-0.00012827,0.00201266,0.00176487,0.00021058,0.00037898,0
 .01522613,0.01823895,-0.00049079,0.00025537,-0.00025890,0.00125557,-0.
 01434591,-0.01262567,-0.05127760,-0.00497028,-0.01137173,0.00003492,0.
 00000539,-0.00000687,0.00000624,-0.00000292,-0.00000883,-0.00001716,-0
 .00002053,-0.00000184,0.00009337,-0.00011024,-0.00015750,-0.00001689,-
 0.00080440,-0.00052749,0.00112317,-0.00024104,0.00007688,0.00000121,-0
 .00000438,0.00002547,-0.00092964,0.00056057,-0.00196860,0.00137630,-0.
 00031307,0.00139560,0.04644832,0.00093953,0.00042126,-0.00012064,-0.00
 007003,-0.00129280,-0.00031613,0.00004722,0.00000277,0.00000060,0.0001
 0276,0.00001063,-0.00000098,-0.00007044,-0.00004944,-0.00000718,0.0000
 3410,-0.00001358,0.00000653,-0.00001486,0.00007728,-0.00001038,0.00013
 380,-0.00000162,0.00006736,-0.00023751,-0.00000973,0.00003602,-0.00032
 163,0.00110238,0.00101443,-0.00226222,0.00034470,0.00497415,0.00083123
 ,-0.00027915,0.00226416,-0.00010968,0.00672633,0.01142742,-0.00443237,
 -0.11649747,-0.11989550,-0.00001275,-0.00000551,-0.00000798,0.00000700
 ,0.00000188,-0.00001013,-0.00000883,0.00000367,-0.00000144,0.00001267,
 0.00004702,0.00003397,0.00000255,0.00008176,-0.00015762,-0.00034117,0.
 00019252,0.00057038,-0.00008918,0.00002345,0.00040007,0.00025573,-0.00
 008413,0.00068963,-0.00014711,0.00121152,-0.00059812,0.00620967,0.1187
 1145,0.00010411,-0.00063882,0.00021336,-0.00144350,0.00175656,-0.00116
 902,0.00034425,-0.00006930,0.00008001,-0.00007626,0.00011267,0.0000033
 2,0.00001716,0.00013112,0.00000166,0.00001978,-0.00000282,0.00000391,0
 .00010897,-0.00004502,-0.00000343,-0.00009211,-0.00001572,-0.00009088,
 0.00030935,0.00000468,0.00035312,-0.00115334,-0.00131888,0.00100108,-0
 .00031164,-0.00610702,-0.00949716,-0.00001944,0.00300058,-0.00424385,0
 .00172718,-0.00781547,-0.01032067,-0.01090272,-0.11947721,-0.25254317,
 -0.00003053,-0.00000174,-0.00000494,0.00000015,-0.00000150,0.00000559,
 0.00001584,0.00002045,-0.00000147,-0.00022284,-0.00000774,0.00013241,0
 .00075403,0.00106594,0.00033471,0.00025589,-0.00029332,-0.00109543,0.0
 0003096,-0.00023102,0.00004701,-0.00004363,0.00035457,-0.00123745,0.00
 000159,-0.00003868,0.00133748,0.01023005,0.12591963,0.27033661,0.00125
 480,0.00187430,-0.00079228,-0.00091580,-0.00425423,-0.00065238,0.00061
 998,0.00008707,0.00050658,-0.00017997,0.00013697,0.00006110,0.00008637
 ,0.00019023,-0.00002402,-0.00001508,0.00002002,-0.00000422,0.00007007,
 -0.00017911,-0.00001877,-0.00044257,0.00028342,-0.00024040,0.00039264,
 -0.00126663,0.00010986,-0.00301315,-0.00009433,0.00395083,-0.00741868,
 -0.02620257,0.00281059,-0.00063460,0.00030722,-0.00003197,0.00356849,0
 .02529818,-0.00321982,-0.04996765,-0.04370847,0.00666469,-0.00007326,0
 .00000397,0.00002284,-0.00003428,0.00001354,0.00003290,0.00004012,0.00
 002195,0.00001733,-0.00077226,-0.00063712,0.00003594,-0.00005406,0.000
 29853,0.00013331,0.00001377,-0.00000679,-0.00004514,0.00041908,-0.0001
 2949,0.00008720,0.00100610,-0.00033199,0.00132098,-0.00203532,0.001829
 53,-0.00424536,0.00005377,-0.00045850,0.00037669,0.05803148,0.00072028
 ,0.00147759,0.00023523,0.00134868,-0.00180080,-0.00058097,-0.00031506,
 0.00008159,-0.00018621,0.00001718,-0.00005235,-0.00003510,0.00002823,-
 0.00001644,0.00002059,-0.00005196,0.00002213,0.00000191,-0.00000766,0.
 00000530,-0.00000944,-0.00005425,0.00002146,0.00004701,0.00005001,-0.0
 0013100,0.00007495,0.00041649,0.00026138,0.00033088,-0.00147807,0.0001
 5534,0.00005365,0.00000873,-0.00012030,-0.00001389,-0.00123767,-0.0083
 0766,0.00005010,-0.04457980,-0.31156860,0.04004776,0.00000921,0.000019
 98,-0.00000197,-0.00000645,0.00000372,-0.00000886,0.00000853,-0.000004
 40,0.00000274,-0.00020591,-0.00005821,0.00010795,0.00008172,0.00019504
 ,0.00021409,-0.00003827,0.00006649,0.00023350,-0.00013855,0.00009076,0
 .00014127,-0.00017475,0.00120040,-0.00041773,0.00071256,0.00052500,0.0
 0176021,-0.00201753,-0.01072519,0.00369807,0.04690428,0.32865880,-0.00
 163514,-0.00082393,0.00007757,0.00147524,0.00265653,0.00161667,-0.0003
 1557,-0.00029313,-0.00043087,0.00010829,-0.00002043,-0.00005221,-0.000
 00361,-0.00008451,0.00002732,-0.00001424,0.00000409,0.00000411,-0.0000
 2844,0.00006207,-0.00000924,0.00010707,-0.00009814,0.00011055,-0.00019
 789,0.00042999,0.00014576,0.00027613,-0.00043647,-0.00214787,0.0029227
 8,0.01310378,-0.00207060,-0.00025051,-0.00057489,0.00008609,0.00313843
 ,0.01840646,-0.00221383,0.00637608,0.03858878,-0.05635421,0.00003405,0
 .00001103,-0.00000403,0.00000752,-0.00000381,-0.00001603,-0.00001662,-
 0.00001025,-0.00000547,0.00029951,0.00032004,0.00019003,0.00011489,0.0
 0022420,0.00022699,-0.00003301,-0.00040241,-0.00000861,0.00009938,0.00
 005749,-0.00078168,-0.00000959,-0.00008120,0.00169441,-0.00085265,0.00
 100873,-0.00306607,-0.00474565,-0.02627826,0.00635719,-0.00685648,-0.0
 4576574,0.05662403\\-0.00000241,-0.00000063,0.00001148,0.00001169,-0.0
 0001252,-0.00003325,-0.00002473,0.00000172,0.00000802,0.00000982,0.000
 00140,0.00000236,0.00000176,-0.00000489,-0.00000087,-0.00000885,0.0000
 0612,-0.00000017,-0.00000230,-0.00000528,-0.00000090,0.00000974,0.0000
 1714,0.00000161,0.00000193,-0.00000424,-0.00000098,0.00001001,-0.00002
 002,-0.00000169,0.00000178,0.00006553,0.00001999,-0.00000265,-0.000023
 71,-0.00000730,0.00000599,-0.00001142,-0.00000064,-0.00000456,-0.00002
 168,0.00000040,-0.00000743,-0.00000093,-0.00000083,0.00000164,0.000001
 50,0.00000048,0.00000207,-0.00000355,-0.00000005,0.00000620,-0.0000029
 3,-0.00000221,0.00000562,-0.00000380,0.00000282,-0.00000142,0.00000316
 ,0.00000034,-0.00000447,0.00000391,0.00000219,-0.00000990,0.00000714,-
 0.00000018,0.00000726,0.00000057,0.00000090,-0.00000204,0.00000307,0.0
 0000040,-0.00000477,0.00000436,-0.00000194\\\@
 The archive entry for this job was punched.


 MICHAEL FARADAY, ASKED BY A POLITICIAN WHAT GOOD
 HIS ELECTRICAL DISCOVERIES WERE, REPLIED 
 "AT PRESENT I DO NOT KNOW, BUT ONE DAY YOU WILL BE
 ABLE TO TAX THEM."
 Job cpu time:       0 days  1 hours 18 minutes 47.3 seconds.
 Elapsed time:       0 days  0 hours  3 minutes 19.5 seconds.
 File lengths (MBytes):  RWF=    231 Int=      0 D2E=      0 Chk=      8 Scr=      1
 Normal termination of Gaussian 16 at Mon Sep 23 06:29:41 2024.
