 Entering Gaussian System, Link 0=/usr/local/Gaussian/G16C/g16/g16
 Input=arbr42_wb97xd.com
 Output=arbr42_wb97xd.log
 Initial command:
 /usr/local/Gaussian/G16C/g16/l1.exe "/home/rpaton/opt/dzvp/Gau-2305947.inp" -scrdir="/home/rpaton/opt/dzvp/"
 Entering Link 1 = /usr/local/Gaussian/G16C/g16/l1.exe PID=   2305948.
  
 Copyright (c) 1988-2019, Gaussian, Inc.  All Rights Reserved.
  
 This is part of the Gaussian(R) 16 program.  It is based on
 the Gaussian(R) 09 system (copyright 2009, Gaussian, Inc.),
 the Gaussian(R) 03 system (copyright 2003, Gaussian, Inc.),
 the Gaussian(R) 98 system (copyright 1998, Gaussian, Inc.),
 the Gaussian(R) 94 system (copyright 1995, Gaussian, Inc.),
 the Gaussian 92(TM) system (copyright 1992, Gaussian, Inc.),
 the Gaussian 90(TM) system (copyright 1990, Gaussian, Inc.),
 the Gaussian 88(TM) system (copyright 1988, Gaussian, Inc.),
 the Gaussian 86(TM) system (copyright 1986, Carnegie Mellon
 University), and the Gaussian 82(TM) system (copyright 1983,
 Carnegie Mellon University). Gaussian is a federally registered
 trademark of Gaussian, Inc.
  
 This software contains proprietary and confidential information,
 including trade secrets, belonging to Gaussian, Inc.
  
 This software is provided under written license and may be
 used, copied, transmitted, or stored only in accord with that
 written license.
  
 The following legend is applicable only to US Government
 contracts under FAR:
  
                    RESTRICTED RIGHTS LEGEND
  
 Use, reproduction and disclosure by the US Government is
 subject to restrictions as set forth in subparagraphs (a)
 and (c) of the Commercial Computer Software - Restricted
 Rights clause in FAR 52.227-19.
  
 Gaussian, Inc.
 340 Quinnipiac St., Bldg. 40, Wallingford CT 06492
  
  
 ---------------------------------------------------------------
 Warning -- This program may not be used in any manner that
 competes with the business of Gaussian, Inc. or will provide
 assistance to any competitor of Gaussian, Inc.  The licensee
 of this program is prohibited from giving any competitor of
 Gaussian, Inc. access to this program.  By using this program,
 the user acknowledges that Gaussian, Inc. is engaged in the
 business of creating and licensing software in the field of
 computational chemistry and represents and warrants to the
 licensee that it is not a competitor of Gaussian, Inc. and that
 it will not use this program in any manner prohibited above.
 ---------------------------------------------------------------
  

 Cite this work as:
 Gaussian 16, Revision C.01,
 M. J. Frisch, G. W. Trucks, H. B. Schlegel, G. E. Scuseria, 
 M. A. Robb, J. R. Cheeseman, G. Scalmani, V. Barone, 
 G. A. Petersson, H. Nakatsuji, X. Li, M. Caricato, A. V. Marenich, 
 J. Bloino, B. G. Janesko, R. Gomperts, B. Mennucci, H. P. Hratchian, 
 J. V. Ortiz, A. F. Izmaylov, J. L. Sonnenberg, D. Williams-Young, 
 F. Ding, F. Lipparini, F. Egidi, J. Goings, B. Peng, A. Petrone, 
 T. Henderson, D. Ranasinghe, V. G. Zakrzewski, J. Gao, N. Rega, 
 G. Zheng, W. Liang, M. Hada, M. Ehara, K. Toyota, R. Fukuda, 
 J. Hasegawa, M. Ishida, T. Nakajima, Y. Honda, O. Kitao, H. Nakai, 
 T. Vreven, K. Throssell, J. A. Montgomery, Jr., J. E. Peralta, 
 F. Ogliaro, M. J. Bearpark, J. J. Heyd, E. N. Brothers, K. N. Kudin, 
 V. N. Staroverov, T. A. Keith, R. Kobayashi, J. Normand, 
 K. Raghavachari, A. P. Rendell, J. C. Burant, S. S. Iyengar, 
 J. Tomasi, M. Cossi, J. M. Millam, M. Klene, C. Adamo, R. Cammi, 
 J. W. Ochterski, R. L. Martin, K. Morokuma, O. Farkas, 
 J. B. Foresman, and D. J. Fox, Gaussian, Inc., Wallingford CT, 2019.
 
 ******************************************
 Gaussian 16:  ES64L-G16RevC.01  3-Jul-2019
                23-Sep-2024 
 ******************************************
 %nprocshared=24
 Will use up to   24 processors via shared memory.
 %mem=96GB
 -------------------------
 # opt freq wb97xd/def2svp
 -------------------------
 1/18=20,19=15,26=3,38=1/1,3;
 2/9=110,12=2,17=6,18=5,40=1/2;
 3/5=43,7=101,11=2,25=1,30=1,71=1,74=-58/1,2,3;
 4//1;
 5/5=2,38=5/2;
 6/7=2,8=2,9=2,10=2,28=1/1;
 7//1,2,3,16;
 1/18=20,19=15,26=3/3(2);
 2/9=110/2;
 99//99;
 2/9=110/2;
 3/5=43,7=101,11=2,25=1,30=1,71=1,74=-58/1,2,3;
 4/5=5,16=3,69=1/1;
 5/5=2,38=5/2;
 7//1,2,3,16;
 1/18=20,19=15,26=3/3(-5);
 2/9=110/2;
 6/7=2,8=2,9=2,10=2,19=2,28=1/1;
 99/9=1/99;
 --------------------------
 arbr42_rdkit_conf_1_wb97xd
 --------------------------
 Symbolic Z-matrix:
 Charge =  0 Multiplicity = 1
 Br                   -1.9356    4.344     0.309 
 C                    -1.8158    2.4651    0.1352 
 C                    -2.9636    1.7201   -0.1092 
 C                    -2.8704    0.3347   -0.2359 
 C                    -1.6288   -0.3149   -0.1285 
 C                    -0.4632    0.4394    0.1293 
 C                    -0.5771    1.8373    0.2539 
 C                     0.9004   -0.228     0.2267 
 C                     0.7936   -1.7331    0.5109 
 C                    -0.1979   -2.3938   -0.4387 
 C                    -1.5962   -1.8219   -0.2273 
 O                     1.6824    0.371     1.2767 
 C                     2.9731    0.5644    0.7022 
 C                     2.6787    0.8122   -0.7509 
 O                     1.5844   -0.0576   -1.0314 
 H                    -3.9321    2.2039   -0.199 
 H                    -3.7752   -0.2419   -0.4181 
 H                     0.3106    2.4335    0.4498 
 H                     1.7753   -2.2082    0.3926 
 H                     0.4884   -1.9046    1.5515 
 H                    -0.2154   -3.4769   -0.2728 
 H                     0.117    -2.2369   -1.4778 
 H                    -2.2402   -2.155    -1.05 
 H                    -2.013    -2.2282    0.7031 
 H                     3.4922    1.3952    1.1866 
 H                     3.5528   -0.3539    0.8449 
 H                     3.5249    0.5922   -1.4066 
 H                     2.3507    1.8421   -0.9261 
 

 GradGradGradGradGradGradGradGradGradGradGradGradGradGradGradGradGradGrad
 Berny optimization.
 Initialization pass.
                           ----------------------------
                           !    Initial Parameters    !
                           ! (Angstroms and Degrees)  !
 --------------------------                            --------------------------
 ! Name  Definition              Value          Derivative Info.                !
 --------------------------------------------------------------------------------
 ! R1    R(1,2)                  1.8907         estimate D2E/DX2                !
 ! R2    R(2,3)                  1.39           estimate D2E/DX2                !
 ! R3    R(2,7)                  1.3938         estimate D2E/DX2                !
 ! R4    R(3,4)                  1.3943         estimate D2E/DX2                !
 ! R5    R(3,16)                 1.0863         estimate D2E/DX2                !
 ! R6    R(4,5)                  1.4054         estimate D2E/DX2                !
 ! R7    R(4,17)                 1.0883         estimate D2E/DX2                !
 ! R8    R(5,6)                  1.4121         estimate D2E/DX2                !
 ! R9    R(5,11)                 1.5106         estimate D2E/DX2                !
 ! R10   R(6,7)                  1.4081         estimate D2E/DX2                !
 ! R11   R(6,8)                  1.5213         estimate D2E/DX2                !
 ! R12   R(7,18)                 1.0871         estimate D2E/DX2                !
 ! R13   R(8,9)                  1.5354         estimate D2E/DX2                !
 ! R14   R(8,12)                 1.4397         estimate D2E/DX2                !
 ! R15   R(8,15)                 1.4421         estimate D2E/DX2                !
 ! R16   R(9,10)                 1.5236         estimate D2E/DX2                !
 ! R17   R(9,19)                 1.097          estimate D2E/DX2                !
 ! R18   R(9,20)                 1.0979         estimate D2E/DX2                !
 ! R19   R(10,11)                1.5255         estimate D2E/DX2                !
 ! R20   R(10,21)                1.0959         estimate D2E/DX2                !
 ! R21   R(10,22)                1.097          estimate D2E/DX2                !
 ! R22   R(11,23)                1.0966         estimate D2E/DX2                !
 ! R23   R(11,24)                1.0975         estimate D2E/DX2                !
 ! R24   R(12,13)                1.426          estimate D2E/DX2                !
 ! R25   R(13,14)                1.5032         estimate D2E/DX2                !
 ! R26   R(13,25)                1.0929         estimate D2E/DX2                !
 ! R27   R(13,26)                1.0953         estimate D2E/DX2                !
 ! R28   R(14,15)                1.4257         estimate D2E/DX2                !
 ! R29   R(14,27)                1.0929         estimate D2E/DX2                !
 ! R30   R(14,28)                1.095          estimate D2E/DX2                !
 ! A1    A(1,2,3)              119.7653         estimate D2E/DX2                !
 ! A2    A(1,2,7)              119.7423         estimate D2E/DX2                !
 ! A3    A(3,2,7)              120.4924         estimate D2E/DX2                !
 ! A4    A(2,3,4)              119.5589         estimate D2E/DX2                !
 ! A5    A(2,3,16)             120.798          estimate D2E/DX2                !
 ! A6    A(4,3,16)             119.6427         estimate D2E/DX2                !
 ! A7    A(3,4,5)              120.756          estimate D2E/DX2                !
 ! A8    A(3,4,17)             119.0839         estimate D2E/DX2                !
 ! A9    A(5,4,17)             120.16           estimate D2E/DX2                !
 ! A10   A(4,5,6)              119.7546         estimate D2E/DX2                !
 ! A11   A(4,5,11)             118.372          estimate D2E/DX2                !
 ! A12   A(6,5,11)             121.8046         estimate D2E/DX2                !
 ! A13   A(5,6,7)              118.6656         estimate D2E/DX2                !
 ! A14   A(5,6,8)              121.1459         estimate D2E/DX2                !
 ! A15   A(7,6,8)              120.1579         estimate D2E/DX2                !
 ! A16   A(2,7,6)              120.7664         estimate D2E/DX2                !
 ! A17   A(2,7,18)             119.6056         estimate D2E/DX2                !
 ! A18   A(6,7,18)             119.6273         estimate D2E/DX2                !
 ! A19   A(6,8,9)              112.3057         estimate D2E/DX2                !
 ! A20   A(6,8,12)             110.5501         estimate D2E/DX2                !
 ! A21   A(6,8,15)             108.5086         estimate D2E/DX2                !
 ! A22   A(9,8,12)             108.0969         estimate D2E/DX2                !
 ! A23   A(9,8,15)             108.077          estimate D2E/DX2                !
 ! A24   A(12,8,15)            109.2361         estimate D2E/DX2                !
 ! A25   A(8,9,10)             110.7926         estimate D2E/DX2                !
 ! A26   A(8,9,19)             110.0186         estimate D2E/DX2                !
 ! A27   A(8,9,20)             110.3584         estimate D2E/DX2                !
 ! A28   A(10,9,19)            109.1074         estimate D2E/DX2                !
 ! A29   A(10,9,20)            110.0043         estimate D2E/DX2                !
 ! A30   A(19,9,20)            106.4584         estimate D2E/DX2                !
 ! A31   A(9,10,11)            110.3389         estimate D2E/DX2                !
 ! A32   A(9,10,21)            110.1592         estimate D2E/DX2                !
 ! A33   A(9,10,22)            109.9698         estimate D2E/DX2                !
 ! A34   A(11,10,21)           109.5676         estimate D2E/DX2                !
 ! A35   A(11,10,22)           109.9232         estimate D2E/DX2                !
 ! A36   A(21,10,22)           106.8177         estimate D2E/DX2                !
 ! A37   A(5,11,10)            113.7572         estimate D2E/DX2                !
 ! A38   A(5,11,23)            109.8422         estimate D2E/DX2                !
 ! A39   A(5,11,24)            107.7997         estimate D2E/DX2                !
 ! A40   A(10,11,23)           108.6914         estimate D2E/DX2                !
 ! A41   A(10,11,24)           109.0756         estimate D2E/DX2                !
 ! A42   A(23,11,24)           107.4894         estimate D2E/DX2                !
 ! A43   A(8,12,13)            104.7284         estimate D2E/DX2                !
 ! A44   A(12,13,14)           103.5649         estimate D2E/DX2                !
 ! A45   A(12,13,25)           110.7608         estimate D2E/DX2                !
 ! A46   A(12,13,26)           108.2315         estimate D2E/DX2                !
 ! A47   A(14,13,25)           113.3396         estimate D2E/DX2                !
 ! A48   A(14,13,26)           111.5805         estimate D2E/DX2                !
 ! A49   A(25,13,26)           109.1605         estimate D2E/DX2                !
 ! A50   A(13,14,15)           103.8828         estimate D2E/DX2                !
 ! A51   A(13,14,27)           113.2755         estimate D2E/DX2                !
 ! A52   A(13,14,28)           111.6164         estimate D2E/DX2                !
 ! A53   A(15,14,27)           110.6978         estimate D2E/DX2                !
 ! A54   A(15,14,28)           108.2051         estimate D2E/DX2                !
 ! A55   A(27,14,28)           108.9823         estimate D2E/DX2                !
 ! A56   A(8,15,14)            105.3368         estimate D2E/DX2                !
 ! D1    D(1,2,3,4)           -179.9658         estimate D2E/DX2                !
 ! D2    D(1,2,3,16)            -0.1879         estimate D2E/DX2                !
 ! D3    D(7,2,3,4)             -0.0029         estimate D2E/DX2                !
 ! D4    D(7,2,3,16)           179.775          estimate D2E/DX2                !
 ! D5    D(1,2,7,6)            179.9509         estimate D2E/DX2                !
 ! D6    D(1,2,7,18)             0.2526         estimate D2E/DX2                !
 ! D7    D(3,2,7,6)             -0.012          estimate D2E/DX2                !
 ! D8    D(3,2,7,18)          -179.7103         estimate D2E/DX2                !
 ! D9    D(2,3,4,5)             -0.4416         estimate D2E/DX2                !
 ! D10   D(2,3,4,17)           179.4439         estimate D2E/DX2                !
 ! D11   D(16,3,4,5)           179.7779         estimate D2E/DX2                !
 ! D12   D(16,3,4,17)           -0.3365         estimate D2E/DX2                !
 ! D13   D(3,4,5,6)              0.8954         estimate D2E/DX2                !
 ! D14   D(3,4,5,11)           177.9349         estimate D2E/DX2                !
 ! D15   D(17,4,5,6)          -178.9889         estimate D2E/DX2                !
 ! D16   D(17,4,5,11)           -1.9494         estimate D2E/DX2                !
 ! D17   D(4,5,6,7)             -0.8913         estimate D2E/DX2                !
 ! D18   D(4,5,6,8)           -178.8816         estimate D2E/DX2                !
 ! D19   D(11,5,6,7)          -177.826          estimate D2E/DX2                !
 ! D20   D(11,5,6,8)             4.1836         estimate D2E/DX2                !
 ! D21   D(4,5,11,10)          165.9084         estimate D2E/DX2                !
 ! D22   D(4,5,11,23)           43.8302         estimate D2E/DX2                !
 ! D23   D(4,5,11,24)          -73.0043         estimate D2E/DX2                !
 ! D24   D(6,5,11,10)          -17.116          estimate D2E/DX2                !
 ! D25   D(6,5,11,23)         -139.1942         estimate D2E/DX2                !
 ! D26   D(6,5,11,24)          103.9713         estimate D2E/DX2                !
 ! D27   D(5,6,7,2)              0.4597         estimate D2E/DX2                !
 ! D28   D(5,6,7,18)          -179.8421         estimate D2E/DX2                !
 ! D29   D(8,6,7,2)            178.4705         estimate D2E/DX2                !
 ! D30   D(8,6,7,18)            -1.8313         estimate D2E/DX2                !
 ! D31   D(5,6,8,9)            -20.1071         estimate D2E/DX2                !
 ! D32   D(5,6,8,12)          -140.9282         estimate D2E/DX2                !
 ! D33   D(5,6,8,15)            99.3006         estimate D2E/DX2                !
 ! D34   D(7,6,8,9)            161.9323         estimate D2E/DX2                !
 ! D35   D(7,6,8,12)            41.1112         estimate D2E/DX2                !
 ! D36   D(7,6,8,15)           -78.66           estimate D2E/DX2                !
 ! D37   D(6,8,9,10)            48.9765         estimate D2E/DX2                !
 ! D38   D(6,8,9,19)           169.7072         estimate D2E/DX2                !
 ! D39   D(6,8,9,20)           -73.1104         estimate D2E/DX2                !
 ! D40   D(12,8,9,10)          171.2002         estimate D2E/DX2                !
 ! D41   D(12,8,9,19)          -68.069          estimate D2E/DX2                !
 ! D42   D(12,8,9,20)           49.1134         estimate D2E/DX2                !
 ! D43   D(15,8,9,10)          -70.683          estimate D2E/DX2                !
 ! D44   D(15,8,9,19)           50.0477         estimate D2E/DX2                !
 ! D45   D(15,8,9,20)          167.2301         estimate D2E/DX2                !
 ! D46   D(6,8,12,13)         -134.6814         estimate D2E/DX2                !
 ! D47   D(9,8,12,13)          102.024          estimate D2E/DX2                !
 ! D48   D(15,8,12,13)         -15.3487         estimate D2E/DX2                !
 ! D49   D(6,8,15,14)          112.4322         estimate D2E/DX2                !
 ! D50   D(9,8,15,14)         -125.5419         estimate D2E/DX2                !
 ! D51   D(12,8,15,14)          -8.1566         estimate D2E/DX2                !
 ! D52   D(8,9,10,11)          -62.742          estimate D2E/DX2                !
 ! D53   D(8,9,10,21)          176.1547         estimate D2E/DX2                !
 ! D54   D(8,9,10,22)           58.6818         estimate D2E/DX2                !
 ! D55   D(19,9,10,11)         175.9883         estimate D2E/DX2                !
 ! D56   D(19,9,10,21)          54.885          estimate D2E/DX2                !
 ! D57   D(19,9,10,22)         -62.5879         estimate D2E/DX2                !
 ! D58   D(20,9,10,11)          59.5517         estimate D2E/DX2                !
 ! D59   D(20,9,10,21)         -61.5517         estimate D2E/DX2                !
 ! D60   D(20,9,10,22)        -179.0245         estimate D2E/DX2                !
 ! D61   D(9,10,11,5)           45.7017         estimate D2E/DX2                !
 ! D62   D(9,10,11,23)         168.4139         estimate D2E/DX2                !
 ! D63   D(9,10,11,24)         -74.67           estimate D2E/DX2                !
 ! D64   D(21,10,11,5)         167.1569         estimate D2E/DX2                !
 ! D65   D(21,10,11,23)        -70.1309         estimate D2E/DX2                !
 ! D66   D(21,10,11,24)         46.7852         estimate D2E/DX2                !
 ! D67   D(22,10,11,5)         -75.7497         estimate D2E/DX2                !
 ! D68   D(22,10,11,23)         46.9624         estimate D2E/DX2                !
 ! D69   D(22,10,11,24)        163.8786         estimate D2E/DX2                !
 ! D70   D(8,12,13,14)          31.4062         estimate D2E/DX2                !
 ! D71   D(8,12,13,25)         153.2303         estimate D2E/DX2                !
 ! D72   D(8,12,13,26)         -87.1379         estimate D2E/DX2                !
 ! D73   D(12,13,14,15)        -36.9187         estimate D2E/DX2                !
 ! D74   D(12,13,14,27)       -157.094          estimate D2E/DX2                !
 ! D75   D(12,13,14,28)         79.4473         estimate D2E/DX2                !
 ! D76   D(25,13,14,15)       -157.001          estimate D2E/DX2                !
 ! D77   D(25,13,14,27)         82.8237         estimate D2E/DX2                !
 ! D78   D(25,13,14,28)        -40.635          estimate D2E/DX2                !
 ! D79   D(26,13,14,15)         79.2827         estimate D2E/DX2                !
 ! D80   D(26,13,14,27)        -40.8925         estimate D2E/DX2                !
 ! D81   D(26,13,14,28)       -164.3513         estimate D2E/DX2                !
 ! D82   D(13,14,15,8)          27.1077         estimate D2E/DX2                !
 ! D83   D(27,14,15,8)         149.0124         estimate D2E/DX2                !
 ! D84   D(28,14,15,8)         -91.6272         estimate D2E/DX2                !
 --------------------------------------------------------------------------------
 Trust Radius=3.00D-01 FncErr=1.00D-07 GrdErr=1.00D-06 EigMax=2.50D+02 EigMin=1.00D-04
 Number of steps in this run=    168 maximum allowed number of steps=    168.
 GradGradGradGradGradGradGradGradGradGradGradGradGradGradGradGradGradGrad

                          Input orientation:                          
 ---------------------------------------------------------------------
 Center     Atomic      Atomic             Coordinates (Angstroms)
 Number     Number       Type             X           Y           Z
 ---------------------------------------------------------------------
      1         35           0       -1.935600    4.344000    0.309000
      2          6           0       -1.815800    2.465100    0.135200
      3          6           0       -2.963600    1.720100   -0.109200
      4          6           0       -2.870400    0.334700   -0.235900
      5          6           0       -1.628800   -0.314900   -0.128500
      6          6           0       -0.463200    0.439400    0.129300
      7          6           0       -0.577100    1.837300    0.253900
      8          6           0        0.900400   -0.228000    0.226700
      9          6           0        0.793600   -1.733100    0.510900
     10          6           0       -0.197900   -2.393800   -0.438700
     11          6           0       -1.596200   -1.821900   -0.227300
     12          8           0        1.682400    0.371000    1.276700
     13          6           0        2.973100    0.564400    0.702200
     14          6           0        2.678700    0.812200   -0.750900
     15          8           0        1.584400   -0.057600   -1.031400
     16          1           0       -3.932100    2.203900   -0.199000
     17          1           0       -3.775200   -0.241900   -0.418100
     18          1           0        0.310600    2.433500    0.449800
     19          1           0        1.775300   -2.208200    0.392600
     20          1           0        0.488400   -1.904600    1.551500
     21          1           0       -0.215400   -3.476900   -0.272800
     22          1           0        0.117000   -2.236900   -1.477800
     23          1           0       -2.240200   -2.155000   -1.050000
     24          1           0       -2.013000   -2.228200    0.703100
     25          1           0        3.492200    1.395200    1.186600
     26          1           0        3.552800   -0.353900    0.844900
     27          1           0        3.524900    0.592200   -1.406600
     28          1           0        2.350700    1.842100   -0.926100
 ---------------------------------------------------------------------
                    Distance matrix (angstroms):
                    1          2          3          4          5
     1  Br   0.000000
     2  C    1.890720   0.000000
     3  C    2.848952   1.390036   0.000000
     4  C    4.152740   2.405930   1.394300   0.000000
     5  C    4.689444   2.798733   2.433781   1.405377   0.000000
     6  C    4.176859   2.435780   2.819410   2.436995   1.412109
     7  C    2.851684   1.393772   2.416808   2.785128   2.425751
     8  C    5.380786   3.826082   4.340325   3.840516   2.555498
     9  C    6.664866   4.957318   5.140590   4.272985   2.878914
    10  C    6.998329   5.153239   4.968082   3.824669   2.542739
    11  C    6.198478   4.307900   3.798617   2.504912   1.510587
    12  O    5.459954   4.233873   5.032505   4.797631   3.661843
    13  C    6.207682   5.183407   6.102329   5.922777   4.758226
    14  C    5.906671   4.870091   5.750792   5.593366   4.495808
    15  O    5.793199   4.391621   4.969404   4.542242   3.347549
    16  H    2.970539   2.158388   1.086333   2.149995   3.413871
    17  H    4.994325   3.387217   2.145590   1.088268   2.167079
    18  H    2.952160   2.149779   3.397323   3.872197   3.413123
    19  H    7.530544   5.899321   6.175801   5.333281   3.929889
    20  H    6.816494   5.139019   5.273773   4.414839   3.135615
    21  H    8.028951   6.167261   5.881171   4.645286   3.466521
    22  H    7.121381   5.333506   5.198174   4.132796   2.926177
    23  H    6.646553   4.788542   4.052754   2.694163   2.146844
    24  H    6.584460   4.731645   4.141563   2.860998   2.121293
    25  H    6.239120   5.515885   6.592572   6.605365   5.556849
    26  H    7.244307   6.105105   6.904727   6.549794   5.272382
    27  H    6.843709   5.865831   6.712379   6.506666   5.386742
    28  H    5.114425   4.344446   5.378103   5.478003   4.596220
                    6          7          8          9         10
     6  C    0.000000
     7  C    1.408056   0.000000
     8  C    1.521287   2.539530   0.000000
     9  C    2.538685   3.833096   1.535416   0.000000
    10  C    2.901729   4.304149   2.517878   1.523593   0.000000
    11  C    2.554277   3.828820   2.996606   2.502792   1.525452
    12  O    2.434092   2.881232   1.439731   2.409077   3.757957
    13  C    3.485971   3.798048   2.269379   3.172589   4.484177
    14  C    3.284093   3.558186   2.280366   3.409442   4.318649
    15  O    2.405597   3.148766   1.442119   2.410675   2.997619
    16  H    3.905702   3.405222   5.426639   6.191621   5.927947
    17  H    3.425370   3.873306   4.719872   4.894962   4.174706
    18  H    2.162850   1.087126   2.735182   4.194947   4.934656
    19  H    3.477067   4.681783   2.171213   1.097019   2.149192
    20  H    2.902160   4.101326   2.176195   1.097911   2.161301
    21  H    3.944679   5.352472   3.471291   2.161737   1.095872
    22  H    3.175214   4.481034   2.748584   2.160215   1.097045
    23  H    3.358480   4.517136   3.899572   3.437783   2.145158
    24  H    3.138027   4.334960   3.565902   2.856408   2.150748
    25  H    4.204358   4.198164   3.205248   4.186320   5.533079
    26  H    4.155679   4.712400   2.726398   3.102730   4.458315
    27  H    4.276363   4.597166   3.198187   4.067410   4.869524
    28  H    3.316545   3.156649   2.778063   4.155910   4.967471
                   11         12         13         14         15
    11  C    0.000000
    12  O    4.221379   0.000000
    13  C    5.238024   1.425959   0.000000
    14  C    5.048506   2.301833   1.503189   0.000000
    15  O    3.724990   2.349602   2.306673   1.425737   0.000000
    16  H    4.654492   6.087678   7.154153   6.778208   6.019887
    17  H    2.698304   5.747468   6.888015   6.547878   5.397723
    18  H    4.711983   2.611418   3.262843   3.110979   3.165770
    19  H    3.449712   2.728101   3.036097   3.353586   2.586368
    20  H    2.741628   2.584474   3.604304   4.180845   3.359166
    21  H    2.155853   4.561681   5.239204   5.196227   3.937812
    22  H    2.161256   4.103522   4.555984   4.048173   2.664936
    23  H    1.096598   5.213540   6.135457   5.752331   4.361995
    24  H    1.097473   4.554211   5.714876   5.776694   4.545468
    25  H    6.183903   2.081461   1.092857   2.180729   3.266474
    26  H    5.460480   2.051908   1.095304   2.161115   2.735488
    27  H    5.783104   3.262489   2.179976   1.092885   2.080518
    28  H    5.430583   2.731865   2.161310   1.094976   2.051137
                   16         17         18         19         20
    16  H    0.000000
    17  H    2.460602   0.000000
    18  H    4.298158   4.960320   0.000000
    19  H    7.238165   5.944041   4.867648   0.000000
    20  H    6.283697   4.982186   4.479338   1.758219   0.000000
    21  H    6.789020   4.812329   5.977596   2.452599   2.509090
    22  H    6.144204   4.500246   5.056259   2.499836   3.070020
    23  H    4.752550   2.532879   5.459882   4.267103   3.778328
    24  H    4.913272   2.882330   5.214856   3.801056   2.661109
    25  H    7.595664   7.620385   3.426882   4.069726   4.477125
    26  H    7.978458   7.436888   4.293898   2.608162   3.506352
    27  H    7.724165   7.413792   4.143468   3.760380   4.919827
    28  H    6.335073   6.490591   2.530783   4.298254   4.862553
                   21         22         23         24         25
    21  H    0.000000
    22  H    1.760714   0.000000
    23  H    2.539936   2.397105   0.000000
    24  H    2.396455   3.048492   1.769276   0.000000
    25  H    6.293926   5.628779   7.103992   6.608330   0.000000
    26  H    5.020131   4.554706   6.355585   5.874627   1.783194
    27  H    5.642067   4.429747   6.396143   6.563065   2.714878
    28  H    5.941669   4.683164   6.088392   6.185751   2.442589
                   26         27         28
    26  H    0.000000
    27  H    2.442363   0.000000
    28  H    3.066578   1.780976   0.000000
 Stoichiometry    C12H13BrO2
 Framework group  C1[X(C12H13BrO2)]
 Deg. of freedom    78
 Full point group                 C1      NOp   1
 Largest Abelian subgroup         C1      NOp   1
 Largest concise Abelian subgroup C1      NOp   1
                         Standard orientation:                         
 ---------------------------------------------------------------------
 Center     Atomic      Atomic             Coordinates (Angstroms)
 Number     Number       Type             X           Y           Z
 ---------------------------------------------------------------------
      1         35           0       -3.453831   -0.563125   -0.019686
      2          6           0       -1.817309    0.383680   -0.006280
      3          6           0       -1.822669    1.769465    0.102216
      4          6           0       -0.613353    2.463403    0.110949
      5          6           0        0.609732    1.777112    0.020646
      6          6           0        0.616657    0.370122   -0.099288
      7          6           0       -0.614428   -0.313258   -0.106059
      8          6           0        1.922471   -0.406788   -0.173948
      9          6           0        3.103861    0.478329   -0.596304
     10          6           0        3.143751    1.757671    0.230152
     11          6           0        1.885534    2.585251   -0.012755
     12          8           0        1.813866   -1.488189   -1.118195
     13          6           0        2.390742   -2.609745   -0.452849
     14          6           0        2.081208   -2.357507    0.996337
     15          8           0        2.210756   -0.944247    1.132856
     16          1           0       -2.757416    2.317947    0.176614
     17          1           0       -0.626889    3.548924    0.187024
     18          1           0       -0.627221   -1.396660   -0.195038
     19          1           0        4.047200   -0.065350   -0.462235
     20          1           0        3.035018    0.723147   -1.664355
     21          1           0        4.028331    2.349118   -0.031849
     22          1           0        3.230047    1.512645    1.295996
     23          1           0        1.839982    3.383923    0.737294
     24          1           0        1.954785    3.062273   -0.998707
     25          1           0        1.966987   -3.543889   -0.829869
     26          1           0        3.469644   -2.602432   -0.641551
     27          1           0        2.759356   -2.875318    1.679260
     28          1           0        1.050078   -2.631855    1.242259
 ---------------------------------------------------------------------
 Rotational constants (GHZ):           0.7725535           0.2860299           0.2220589
 Standard basis: def2SVP (5D, 7F)
 There are   310 symmetry adapted cartesian basis functions of A   symmetry.
 There are   293 symmetry adapted basis functions of A   symmetry.
   293 basis functions,   521 primitive gaussians,   310 cartesian basis functions
    68 alpha electrons       68 beta electrons
       nuclear repulsion energy      1327.4252313570 Hartrees.
 NAtoms=   28 NActive=   28 NUniq=   28 SFac= 1.00D+00 NAtFMM=   60 NAOKFM=F Big=F
 Integral buffers will be    131072 words long.
 Raffenetti 2 integral format.
 Two-electron integral symmetry is turned on.
 Nuclear repulsion after empirical dispersion term =     1327.4035479846 Hartrees.
 One-electron integrals computed using PRISM.
   1 Symmetry operations used in ECPInt.
 ECPInt:  NShTT=    9180 NPrTT=   34977 LenC2=    8726 LenP2D=   24216.
 LDataN:  DoStor=T MaxTD1= 4 Len=   56
 NBasis=   293 RedAO= T EigKep=  2.58D-04  NBF=   293
 NBsUse=   293 1.00D-06 EigRej= -1.00D+00 NBFU=   293
 ExpMin= 1.22D-01 ExpMax= 1.13D+05 ExpMxC= 1.70D+04 IAcc=3 IRadAn=         5 AccDes= 0.00D+00
 Harris functional with IExCor= 4639 and IRadAn=       5 diagonalized for initial guess.
 HarFok:  IExCor= 4639 AccDes= 0.00D+00 IRadAn=         5 IDoV= 1 UseB2=F ITyADJ=14
 ICtDFT=  3500011 ScaDFX=  1.000000  1.000000  1.000000  1.000000
 FoFCou: FMM=F IPFlag=           0 FMFlag=      100000 FMFlg1=           0
         NFxFlg=           0 DoJE=T BraDBF=F KetDBF=T FulRan=T
         wScrn=  0.000000 ICntrl=       500 IOpCl=  0 I1Cent=   200000004 NGrid=           0
         NMat0=    1 NMatS0=      1 NMatT0=    0 NMatD0=    1 NMtDS0=    0 NMtDT0=    0
 Petite list used in FoFCou.
 Requested convergence on RMS density matrix=1.00D-08 within 128 cycles.
 Requested convergence on MAX density matrix=1.00D-06.
 Requested convergence on             energy=1.00D-06.
 No special actions if energy rises.
 Integral accuracy reduced to 1.0D-05 until final iterations.
 Initial convergence to 1.0D-05 achieved.  Increase integral accuracy.
 SCF Done:  E(RwB97XD) =  -3188.81487279     A.U. after   15 cycles
            NFock= 15  Conv=0.58D-08     -V/T= 2.0029

 **********************************************************************

            Population analysis using the SCF Density.

 **********************************************************************

 Orbital symmetries:
       Occupied  (A) (A) (A) (A) (A) (A) (A) (A) (A) (A) (A) (A)
                 (A) (A) (A) (A) (A) (A) (A) (A) (A) (A) (A) (A)
                 (A) (A) (A) (A) (A) (A) (A) (A) (A) (A) (A) (A)
                 (A) (A) (A) (A) (A) (A) (A) (A) (A) (A) (A) (A)
                 (A) (A) (A) (A) (A) (A) (A) (A) (A) (A) (A) (A)
                 (A) (A) (A) (A) (A) (A) (A) (A)
       Virtual   (A) (A) (A) (A) (A) (A) (A) (A) (A) (A) (A) (A)
                 (A) (A) (A) (A) (A) (A) (A) (A) (A) (A) (A) (A)
                 (A) (A) (A) (A) (A) (A) (A) (A) (A) (A) (A) (A)
                 (A) (A) (A) (A) (A) (A) (A) (A) (A) (A) (A) (A)
                 (A) (A) (A) (A) (A) (A) (A) (A) (A) (A) (A) (A)
                 (A) (A) (A) (A) (A) (A) (A) (A) (A) (A) (A) (A)
                 (A) (A) (A) (A) (A) (A) (A) (A) (A) (A) (A) (A)
                 (A) (A) (A) (A) (A) (A) (A) (A) (A) (A) (A) (A)
                 (A) (A) (A) (A) (A) (A) (A) (A) (A) (A) (A) (A)
                 (A) (A) (A) (A) (A) (A) (A) (A) (A) (A) (A) (A)
                 (A) (A) (A) (A) (A) (A) (A) (A) (A) (A) (A) (A)
                 (A) (A) (A) (A) (A) (A) (A) (A) (A) (A) (A) (A)
                 (A) (A) (A) (A) (A) (A) (A) (A) (A) (A) (A) (A)
                 (A) (A) (A) (A) (A) (A) (A) (A) (A) (A) (A) (A)
                 (A) (A) (A) (A) (A) (A) (A) (A) (A) (A) (A) (A)
                 (A) (A) (A) (A) (A) (A) (A) (A) (A) (A) (A) (A)
                 (A) (A) (A) (A) (A) (A) (A) (A) (A) (A) (A) (A)
                 (A) (A) (A) (A) (A) (A) (A) (A) (A) (A) (A) (A)
                 (A) (A) (A) (A) (A) (A) (A) (A) (A)
 The electronic state is 1-A.
 Alpha  occ. eigenvalues -- -483.05553 -62.63763 -56.44535 -56.44173 -56.44167
 Alpha  occ. eigenvalues --  -19.27353 -19.27072 -10.40825 -10.35398 -10.35314
 Alpha  occ. eigenvalues --  -10.35186 -10.31703 -10.31435 -10.31352 -10.31324
 Alpha  occ. eigenvalues --  -10.30948 -10.30293 -10.29641 -10.29571  -8.80720
 Alpha  occ. eigenvalues --   -6.63276  -6.61948  -6.61933  -2.73651  -2.73262
 Alpha  occ. eigenvalues --   -2.73252  -2.72192  -2.72192  -1.18722  -1.09098
 Alpha  occ. eigenvalues --   -0.97574  -0.93085  -0.89109  -0.87534  -0.84183
 Alpha  occ. eigenvalues --   -0.82285  -0.78510  -0.73144  -0.72339  -0.70563
 Alpha  occ. eigenvalues --   -0.69079  -0.63878  -0.61589  -0.60242  -0.58152
 Alpha  occ. eigenvalues --   -0.57418  -0.56874  -0.53580  -0.53287  -0.52246
 Alpha  occ. eigenvalues --   -0.51477  -0.50234  -0.49603  -0.49242  -0.46756
 Alpha  occ. eigenvalues --   -0.46561  -0.45438  -0.44146  -0.43855  -0.42645
 Alpha  occ. eigenvalues --   -0.41524  -0.40788  -0.38865  -0.36749  -0.36655
 Alpha  occ. eigenvalues --   -0.34185  -0.33232  -0.30941
 Alpha virt. eigenvalues --    0.04455   0.05083   0.08826   0.13420   0.14308
 Alpha virt. eigenvalues --    0.16423   0.16819   0.17817   0.18770   0.18982
 Alpha virt. eigenvalues --    0.19742   0.20039   0.21271   0.22234   0.22474
 Alpha virt. eigenvalues --    0.23690   0.24264   0.25348   0.26470   0.28313
 Alpha virt. eigenvalues --    0.28966   0.29456   0.31661   0.32328   0.33242
 Alpha virt. eigenvalues --    0.34258   0.35312   0.35452   0.37899   0.38968
 Alpha virt. eigenvalues --    0.40718   0.42235   0.43043   0.47931   0.49864
 Alpha virt. eigenvalues --    0.50679   0.51762   0.51802   0.52558   0.53272
 Alpha virt. eigenvalues --    0.53975   0.54834   0.56140   0.56715   0.58222
 Alpha virt. eigenvalues --    0.58677   0.59111   0.59601   0.60333   0.61234
 Alpha virt. eigenvalues --    0.62460   0.62728   0.63932   0.66181   0.67231
 Alpha virt. eigenvalues --    0.67822   0.68280   0.69842   0.70853   0.71021
 Alpha virt. eigenvalues --    0.71343   0.71710   0.72584   0.73372   0.73862
 Alpha virt. eigenvalues --    0.74550   0.75028   0.75437   0.76154   0.76494
 Alpha virt. eigenvalues --    0.77107   0.77852   0.78612   0.78761   0.79069
 Alpha virt. eigenvalues --    0.79884   0.80389   0.81748   0.82169   0.82807
 Alpha virt. eigenvalues --    0.84801   0.84979   0.86786   0.88733   0.90270
 Alpha virt. eigenvalues --    0.91008   0.92499   0.95035   0.98924   1.00698
 Alpha virt. eigenvalues --    1.04747   1.06135   1.06587   1.08922   1.11405
 Alpha virt. eigenvalues --    1.13795   1.16605   1.18009   1.20613   1.22150
 Alpha virt. eigenvalues --    1.25369   1.26723   1.27770   1.31878   1.33276
 Alpha virt. eigenvalues --    1.34118   1.34713   1.36365   1.37531   1.38812
 Alpha virt. eigenvalues --    1.40283   1.43192   1.46830   1.46977   1.50852
 Alpha virt. eigenvalues --    1.54718   1.55402   1.56454   1.60132   1.63158
 Alpha virt. eigenvalues --    1.65732   1.67044   1.69110   1.73981   1.74575
 Alpha virt. eigenvalues --    1.76100   1.78664   1.79057   1.81115   1.81660
 Alpha virt. eigenvalues --    1.81941   1.82513   1.82754   1.84732   1.85917
 Alpha virt. eigenvalues --    1.86858   1.87773   1.88636   1.89156   1.89463
 Alpha virt. eigenvalues --    1.89808   1.91044   1.91643   1.92213   1.93304
 Alpha virt. eigenvalues --    1.94201   1.94819   1.95762   1.97905   1.99258
 Alpha virt. eigenvalues --    2.00199   2.00571   2.01907   2.03929   2.05433
 Alpha virt. eigenvalues --    2.06568   2.07865   2.09589   2.09963   2.13956
 Alpha virt. eigenvalues --    2.16234   2.17676   2.18670   2.20149   2.21553
 Alpha virt. eigenvalues --    2.22839   2.24019   2.26478   2.28047   2.34090
 Alpha virt. eigenvalues --    2.34542   2.35641   2.36069   2.37427   2.40022
 Alpha virt. eigenvalues --    2.41219   2.43566   2.45467   2.47512   2.48641
 Alpha virt. eigenvalues --    2.50540   2.53466   2.54289   2.57054   2.61510
 Alpha virt. eigenvalues --    2.62048   2.64930   2.67315   2.69357   2.71476
 Alpha virt. eigenvalues --    2.74530   2.75633   2.80682   2.82613   2.83812
 Alpha virt. eigenvalues --    2.86797   2.89211   2.91064   2.92152   2.95809
 Alpha virt. eigenvalues --    2.96120   2.99511   3.01955   3.04344   3.04843
 Alpha virt. eigenvalues --    3.07289   3.09121   3.10989   3.13450   3.14597
 Alpha virt. eigenvalues --    3.17016   3.18762   3.19646   3.22072   3.30479
 Alpha virt. eigenvalues --    3.32746   3.36796   3.53049   3.54598   3.56968
 Alpha virt. eigenvalues --    3.60184   3.61209   3.68621   3.73686   3.93471
          Condensed to atoms (all electrons):
               1          2          3          4          5          6
     1  Br  34.941849   0.221389  -0.060383   0.003024   0.000792   0.003299
     2  C    0.221389   5.287821   0.306556   0.068630  -0.140092   0.060363
     3  C   -0.060383   0.306556   4.977337   0.377650   0.060914  -0.108281
     4  C    0.003024   0.068630   0.377650   4.966862   0.359553   0.017279
     5  C    0.000792  -0.140092   0.060914   0.359553   5.258575   0.390270
     6  C    0.003299   0.060363  -0.108281   0.017279   0.390270   5.410392
     7  C   -0.062497   0.334184   0.041903  -0.092301   0.005510   0.327386
     8  C   -0.000169   0.010159  -0.000134   0.008697  -0.060356   0.180994
     9  C    0.000000  -0.000311   0.000001  -0.000237  -0.023774  -0.098437
    10  C   -0.000000  -0.000153  -0.000477   0.009158  -0.047411  -0.018241
    11  C    0.000010   0.001455   0.007678  -0.050154   0.352421  -0.064562
    12  O   -0.000005   0.001173  -0.000010  -0.000027   0.000706  -0.071506
    13  C   -0.000001   0.000015  -0.000006   0.000023  -0.000564   0.006108
    14  C   -0.000002  -0.000069   0.000010  -0.000010  -0.000245  -0.008259
    15  O    0.000000  -0.000201   0.000017  -0.000143  -0.006341  -0.057371
    16  H   -0.000689  -0.066157   0.438570  -0.051270   0.013349  -0.001205
    17  H   -0.000166   0.014416  -0.065996   0.449995  -0.067706   0.014909
    18  H    0.000645  -0.058817   0.013157  -0.001541   0.013576  -0.056233
    19  H   -0.000000   0.000004  -0.000000   0.000047   0.001501   0.009673
    20  H   -0.000000   0.000013   0.000003  -0.000346  -0.004594  -0.000928
    21  H    0.000000   0.000000   0.000010  -0.000498   0.006574   0.001503
    22  H    0.000000   0.000015  -0.000017   0.000167  -0.001460  -0.004026
    23  H   -0.000000  -0.000011   0.000514  -0.007945  -0.015155   0.007169
    24  H   -0.000000   0.000058  -0.000055  -0.005833  -0.011385  -0.004921
    25  H    0.000000  -0.000031  -0.000000   0.000000   0.000048   0.001449
    26  H   -0.000000   0.000011   0.000000  -0.000002   0.000004  -0.001244
    27  H   -0.000000   0.000001   0.000000  -0.000001   0.000004  -0.001166
    28  H   -0.000022   0.000374  -0.000009  -0.000005   0.000334   0.001408
               7          8          9         10         11         12
     1  Br  -0.062497  -0.000169   0.000000  -0.000000   0.000010  -0.000005
     2  C    0.334184   0.010159  -0.000311  -0.000153   0.001455   0.001173
     3  C    0.041903  -0.000134   0.000001  -0.000477   0.007678  -0.000010
     4  C   -0.092301   0.008697  -0.000237   0.009158  -0.050154  -0.000027
     5  C    0.005510  -0.060356  -0.023774  -0.047411   0.352421   0.000706
     6  C    0.327386   0.180994  -0.098437  -0.018241  -0.064562  -0.071506
     7  C    5.013736  -0.022625   0.014009  -0.001008   0.007264   0.006289
     8  C   -0.022625   4.879409   0.438519  -0.046837  -0.028834   0.304512
     9  C    0.014009   0.438519   4.742980   0.370356  -0.061039  -0.051930
    10  C   -0.001008  -0.046837   0.370356   4.689731   0.415490   0.005791
    11  C    0.007264  -0.028834  -0.061039   0.415490   4.690398  -0.000158
    12  O    0.006289   0.304512  -0.051930   0.005791  -0.000158   8.049118
    13  C   -0.001117  -0.058377  -0.007662   0.000355  -0.000037   0.293060
    14  C    0.003264  -0.057539   0.002624  -0.000297  -0.000109  -0.048736
    15  O    0.000515   0.295334  -0.063537  -0.005123  -0.000559  -0.049398
    16  H    0.012383   0.000018   0.000000   0.000007  -0.000285   0.000000
    17  H   -0.001829  -0.000281   0.000059   0.000587  -0.013718   0.000001
    18  H    0.431441  -0.014100   0.000896  -0.000036  -0.000316   0.011172
    19  H   -0.000504   0.003208   0.337811  -0.011182   0.007870   0.000132
    20  H   -0.000329  -0.015182   0.369621  -0.028100  -0.001339   0.001949
    21  H    0.000101   0.006470  -0.009274   0.358911  -0.013029  -0.000141
    22  H   -0.000685  -0.003133  -0.028877   0.380905  -0.021674   0.000226
    23  H   -0.000278   0.000882   0.008376  -0.021826   0.366067   0.000001
    24  H   -0.000422  -0.000030  -0.005213  -0.012508   0.363451   0.000013
    25  H   -0.000607   0.002956  -0.000608   0.000030   0.000003  -0.017977
    26  H    0.000328   0.010432   0.000590  -0.000766   0.000003  -0.040759
    27  H    0.000094   0.006596   0.000618  -0.000002   0.000005   0.003769
    28  H    0.000586   0.004505  -0.000569  -0.000129   0.000001  -0.003050
              13         14         15         16         17         18
     1  Br  -0.000001  -0.000002   0.000000  -0.000689  -0.000166   0.000645
     2  C    0.000015  -0.000069  -0.000201  -0.066157   0.014416  -0.058817
     3  C   -0.000006   0.000010   0.000017   0.438570  -0.065996   0.013157
     4  C    0.000023  -0.000010  -0.000143  -0.051270   0.449995  -0.001541
     5  C   -0.000564  -0.000245  -0.006341   0.013349  -0.067706   0.013576
     6  C    0.006108  -0.008259  -0.057371  -0.001205   0.014909  -0.056233
     7  C   -0.001117   0.003264   0.000515   0.012383  -0.001829   0.431441
     8  C   -0.058377  -0.057539   0.295334   0.000018  -0.000281  -0.014100
     9  C   -0.007662   0.002624  -0.063537   0.000000   0.000059   0.000896
    10  C    0.000355  -0.000297  -0.005123   0.000007   0.000587  -0.000036
    11  C   -0.000037  -0.000109  -0.000559  -0.000285  -0.013718  -0.000316
    12  O    0.293060  -0.048736  -0.049398   0.000000   0.000001   0.011172
    13  C    4.466119   0.466078  -0.046427   0.000000  -0.000000  -0.002570
    14  C    0.466078   4.442850   0.298174   0.000000   0.000000   0.000836
    15  O   -0.046427   0.298174   8.080766   0.000000   0.000003  -0.000693
    16  H    0.000000   0.000000   0.000000   0.646051  -0.011775  -0.000235
    17  H   -0.000000   0.000000   0.000003  -0.011775   0.665303   0.000020
    18  H   -0.002570   0.000836  -0.000693  -0.000235   0.000020   0.655932
    19  H    0.000199   0.000128   0.001112   0.000000  -0.000001  -0.000019
    20  H   -0.000113   0.000226   0.004496  -0.000000  -0.000008  -0.000005
    21  H   -0.000018   0.000018  -0.000154  -0.000000  -0.000007   0.000001
    22  H    0.000043   0.000168   0.011490  -0.000000  -0.000021  -0.000005
    23  H    0.000000  -0.000004   0.000026  -0.000001   0.004247   0.000005
    24  H    0.000000   0.000006  -0.000026   0.000007   0.001392   0.000010
    25  H    0.374521  -0.006916   0.003696  -0.000000  -0.000000  -0.000481
    26  H    0.376977  -0.027759  -0.002617  -0.000000   0.000000   0.000319
    27  H   -0.005433   0.370509  -0.019526  -0.000000   0.000000   0.000093
    28  H   -0.028853   0.385189  -0.038737  -0.000000  -0.000000   0.001627
              19         20         21         22         23         24
     1  Br  -0.000000  -0.000000   0.000000   0.000000  -0.000000  -0.000000
     2  C    0.000004   0.000013   0.000000   0.000015  -0.000011   0.000058
     3  C   -0.000000   0.000003   0.000010  -0.000017   0.000514  -0.000055
     4  C    0.000047  -0.000346  -0.000498   0.000167  -0.007945  -0.005833
     5  C    0.001501  -0.004594   0.006574  -0.001460  -0.015155  -0.011385
     6  C    0.009673  -0.000928   0.001503  -0.004026   0.007169  -0.004921
     7  C   -0.000504  -0.000329   0.000101  -0.000685  -0.000278  -0.000422
     8  C    0.003208  -0.015182   0.006470  -0.003133   0.000882  -0.000030
     9  C    0.337811   0.369621  -0.009274  -0.028877   0.008376  -0.005213
    10  C   -0.011182  -0.028100   0.358911   0.380905  -0.021826  -0.012508
    11  C    0.007870  -0.001339  -0.013029  -0.021674   0.366067   0.363451
    12  O    0.000132   0.001949  -0.000141   0.000226   0.000001   0.000013
    13  C    0.000199  -0.000113  -0.000018   0.000043   0.000000   0.000000
    14  C    0.000128   0.000226   0.000018   0.000168  -0.000004   0.000006
    15  O    0.001112   0.004496  -0.000154   0.011490   0.000026  -0.000026
    16  H    0.000000  -0.000000  -0.000000  -0.000000  -0.000001   0.000007
    17  H   -0.000001  -0.000008  -0.000007  -0.000021   0.004247   0.001392
    18  H   -0.000019  -0.000005   0.000001  -0.000005   0.000005   0.000010
    19  H    0.669449  -0.022371  -0.007227  -0.006262  -0.000382  -0.000185
    20  H   -0.022371   0.655282  -0.007628   0.008280  -0.000000   0.004987
    21  H   -0.007227  -0.007628   0.677085  -0.026486  -0.002049  -0.010530
    22  H   -0.006262   0.008280  -0.026486   0.650694  -0.010324   0.007373
    23  H   -0.000382  -0.000000  -0.002049  -0.010324   0.653012  -0.020460
    24  H   -0.000185   0.004987  -0.010530   0.007373  -0.020460   0.651214
    25  H    0.000027  -0.000008  -0.000001  -0.000001  -0.000000   0.000000
    26  H    0.001483   0.000344   0.000034   0.000036  -0.000000  -0.000000
    27  H   -0.000488  -0.000035   0.000000  -0.000091   0.000000  -0.000000
    28  H    0.000136   0.000079  -0.000001   0.000096  -0.000000   0.000000
              25         26         27         28
     1  Br   0.000000  -0.000000  -0.000000  -0.000022
     2  C   -0.000031   0.000011   0.000001   0.000374
     3  C   -0.000000   0.000000   0.000000  -0.000009
     4  C    0.000000  -0.000002  -0.000001  -0.000005
     5  C    0.000048   0.000004   0.000004   0.000334
     6  C    0.001449  -0.001244  -0.001166   0.001408
     7  C   -0.000607   0.000328   0.000094   0.000586
     8  C    0.002956   0.010432   0.006596   0.004505
     9  C   -0.000608   0.000590   0.000618  -0.000569
    10  C    0.000030  -0.000766  -0.000002  -0.000129
    11  C    0.000003   0.000003   0.000005   0.000001
    12  O   -0.017977  -0.040759   0.003769  -0.003050
    13  C    0.374521   0.376977  -0.005433  -0.028853
    14  C   -0.006916  -0.027759   0.370509   0.385189
    15  O    0.003696  -0.002617  -0.019526  -0.038737
    16  H   -0.000000  -0.000000  -0.000000  -0.000000
    17  H   -0.000000   0.000000   0.000000  -0.000000
    18  H   -0.000481   0.000319   0.000093   0.001627
    19  H    0.000027   0.001483  -0.000488   0.000136
    20  H   -0.000008   0.000344  -0.000035   0.000079
    21  H   -0.000001   0.000034   0.000000  -0.000001
    22  H   -0.000001   0.000036  -0.000091   0.000096
    23  H   -0.000000  -0.000000   0.000000  -0.000000
    24  H    0.000000  -0.000000  -0.000000   0.000000
    25  H    0.637943  -0.036692   0.002296  -0.007763
    26  H   -0.036692   0.693690  -0.009019   0.007533
    27  H    0.002296  -0.009019   0.644404  -0.037406
    28  H   -0.007763   0.007533  -0.037406   0.686111
 Mulliken charges:
               1
     1  Br  -0.047073
     2  C   -0.040795
     3  C    0.011046
     4  C   -0.050772
     5  C   -0.085048
     6  C    0.064179
     7  C   -0.014790
     8  C    0.154906
     9  C    0.065008
    10  C   -0.037224
    11  C    0.043698
    12  O   -0.394214
    13  C    0.167681
    14  C    0.179865
    15  O   -0.404776
    16  H    0.021232
    17  H    0.010579
    18  H    0.005321
    19  H    0.015841
    20  H    0.035707
    21  H    0.026335
    22  H    0.043569
    23  H    0.038136
    24  H    0.043059
    25  H    0.048116
    26  H    0.027072
    27  H    0.044777
    28  H    0.028564
 Sum of Mulliken charges =  -0.00000
 Mulliken charges with hydrogens summed into heavy atoms:
               1
     1  Br  -0.047073
     2  C   -0.040795
     3  C    0.032278
     4  C   -0.040193
     5  C   -0.085048
     6  C    0.064179
     7  C   -0.009470
     8  C    0.154906
     9  C    0.116556
    10  C    0.032680
    11  C    0.124893
    12  O   -0.394214
    13  C    0.242869
    14  C    0.253206
    15  O   -0.404776
 Electronic spatial extent (au):  <R**2>=           4565.2966
 Charge=              0.0000 electrons
 Dipole moment (field-independent basis, Debye):
    X=              2.3974    Y=             -0.1295    Z=              0.2519  Tot=              2.4141
 Quadrupole moment (field-independent basis, Debye-Ang):
   XX=            -97.0344   YY=            -85.2583   ZZ=           -105.8035
   XY=             -4.1397   XZ=             -0.9224   YZ=             -1.9422
 Traceless Quadrupole moment (field-independent basis, Debye-Ang):
   XX=             -1.0024   YY=             10.7738   ZZ=             -9.7714
   XY=             -4.1397   XZ=             -0.9224   YZ=             -1.9422
 Octapole moment (field-independent basis, Debye-Ang**2):
  XXX=            -67.1493  YYY=            -41.9168  ZZZ=              1.0928  XYY=            -12.8379
  XXY=            -15.4279  XXZ=             -3.1924  XZZ=            -31.2960  YZZ=            -10.6388
  YYZ=              6.1151  XYZ=             -5.4485
 Hexadecapole moment (field-independent basis, Debye-Ang**3):
 XXXX=          -3343.5795 YYYY=          -1515.8061 ZZZZ=           -294.6909 XXXY=             22.8048
 XXXZ=            -10.5278 YYYX=            -26.3595 YYYZ=              3.0364 ZZZX=              7.7243
 ZZZY=             -7.9866 XXYY=           -769.4543 XXZZ=           -638.4419 YYZZ=           -324.2344
 XXYZ=             -7.8644 YYXZ=              9.5300 ZZXY=             19.4818
 N-N= 1.327403547985D+03 E-N=-1.023662914524D+04  KE= 3.179653880770D+03
   1 Symmetry operations used in ECPInt.
 ECPInt:  NShTT=    9180 NPrTT=   34977 LenC2=    8726 LenP2D=   24216.
 LDataN:  DoStor=T MaxTD1= 5 Len=  102
 Calling FoFJK, ICntrl=      2127 FMM=F ISym2X=0 I1Cent= 0 IOpClX= 0 NMat=1 NMatS=1 NMatT=0.
 ***** Axes restored to original set *****
 -------------------------------------------------------------------
 Center     Atomic                   Forces (Hartrees/Bohr)
 Number     Number              X              Y              Z
 -------------------------------------------------------------------
      1       35           0.000160177    0.001071092    0.000110722
      2        6           0.006776198   -0.003965022   -0.000305570
      3        6          -0.003212668   -0.007430450   -0.000785571
      4        6           0.012127354    0.009542453    0.001775174
      5        6           0.000516340   -0.000070405    0.001395351
      6        6          -0.013620535    0.006726957    0.000770464
      7        6          -0.000235480   -0.006225460   -0.000792425
      8        6          -0.000158076   -0.012554943    0.008334638
      9        6          -0.003095838   -0.002249925   -0.008975207
     10        6          -0.002279125    0.002673555    0.004121274
     11        6           0.006574220   -0.000384745   -0.003828840
     12        8           0.000839761    0.005160042   -0.030867199
     13        6          -0.008743109   -0.004461277    0.009966073
     14        6          -0.010761827   -0.004018864   -0.008679249
     15        8           0.009936549    0.005958056    0.024755047
     16        1          -0.002607802    0.002816691   -0.000024017
     17        1          -0.001614806   -0.002578704   -0.000832204
     18        1           0.002325226    0.000606546    0.001937782
     19        1           0.004365094    0.004076221   -0.000099796
     20        1          -0.002094997    0.004168093    0.002647799
     21        1           0.000110607   -0.003050199    0.000035017
     22        1           0.002312162    0.001830101   -0.002242463
     23        1          -0.004830048   -0.000007240   -0.000075622
     24        1          -0.002924998   -0.002256082    0.003004595
     25        1          -0.000572761    0.003126359    0.003730757
     26        1           0.007079482   -0.003547815   -0.001271550
     27        1           0.001499950   -0.002813740   -0.003798097
     28        1           0.002128951    0.007858706   -0.000006883
 -------------------------------------------------------------------
 Cartesian Forces:  Max     0.030867199 RMS     0.006482684

 GradGradGradGradGradGradGradGradGradGradGradGradGradGradGradGradGradGrad
 Berny optimization.
 FormGI is forming the generalized inverse of G from B-inverse, IUseBI=4.
 Internal  Forces:  Max     0.015011958 RMS     0.003352145
 Search for a local minimum.
 Step number   1 out of a maximum of  168
 All quantities printed in internal units (Hartrees-Bohrs-Radians)
 Mixed Optimization -- RFO/linear search
 Second derivative matrix not updated -- first step.
 ITU=  0
     Eigenvalues ---    0.00519   0.00690   0.01083   0.01110   0.01224
     Eigenvalues ---    0.01266   0.01528   0.02068   0.02079   0.02087
     Eigenvalues ---    0.02177   0.02186   0.02200   0.02983   0.03074
     Eigenvalues ---    0.04337   0.04885   0.04925   0.04971   0.05304
     Eigenvalues ---    0.05436   0.05895   0.05956   0.06302   0.07604
     Eigenvalues ---    0.07998   0.08055   0.08099   0.09531   0.09759
     Eigenvalues ---    0.09985   0.11039   0.11118   0.11717   0.12043
     Eigenvalues ---    0.12176   0.13713   0.16000   0.16000   0.16000
     Eigenvalues ---    0.18319   0.18712   0.18844   0.21952   0.22454
     Eigenvalues ---    0.23437   0.23658   0.24676   0.25000   0.27922
     Eigenvalues ---    0.28687   0.28866   0.29750   0.30069   0.30823
     Eigenvalues ---    0.33914   0.33963   0.34011   0.34014   0.34061
     Eigenvalues ---    0.34143   0.34207   0.34244   0.34481   0.34485
     Eigenvalues ---    0.35014   0.35147   0.35240   0.36174   0.37591
     Eigenvalues ---    0.39656   0.40343   0.40956   0.41262   0.44044
     Eigenvalues ---    0.45745   0.45910   0.46937
 RFO step:  Lambda=-9.75111472D-03 EMin= 5.18654713D-03
 Linear search not attempted -- first point.
 Iteration  1 RMS(Cart)=  0.04214870 RMS(Int)=  0.00096157
 Iteration  2 RMS(Cart)=  0.00129065 RMS(Int)=  0.00032609
 Iteration  3 RMS(Cart)=  0.00000075 RMS(Int)=  0.00032609
 Variable       Old X    -DE/DX   Delta X   Delta X   Delta X     New X
                                 (Linear)    (Quad)   (Total)
    R1        3.57294   0.00106   0.00000   0.00541   0.00541   3.57835
    R2        2.62679   0.00222   0.00000   0.00584   0.00582   2.63261
    R3        2.63385  -0.00559   0.00000  -0.01132  -0.01133   2.62252
    R4        2.63484  -0.00392   0.00000  -0.00738  -0.00740   2.62745
    R5        2.05287   0.00358   0.00000   0.00989   0.00989   2.06276
    R6        2.65578  -0.00491   0.00000  -0.01116  -0.01115   2.64463
    R7        2.05653   0.00285   0.00000   0.00791   0.00791   2.06444
    R8        2.66850  -0.00762   0.00000  -0.01941  -0.01936   2.64914
    R9        2.85460   0.00162   0.00000   0.00697   0.00698   2.86158
   R10        2.66084  -0.00942   0.00000  -0.02167  -0.02166   2.63918
   R11        2.87482  -0.00182   0.00000  -0.00910  -0.00907   2.86575
   R12        2.05437   0.00258   0.00000   0.00714   0.00714   2.06151
   R13        2.90152  -0.00690   0.00000  -0.02592  -0.02596   2.87555
   R14        2.72070  -0.01501   0.00000  -0.03835  -0.03793   2.68276
   R15        2.72521  -0.01085   0.00000  -0.02678  -0.02641   2.69880
   R16        2.87917  -0.00016   0.00000   0.00245   0.00246   2.88163
   R17        2.07306   0.00215   0.00000   0.00615   0.00615   2.07921
   R18        2.07475   0.00244   0.00000   0.00700   0.00700   2.08175
   R19        2.88269   0.00133   0.00000   0.00673   0.00668   2.88936
   R20        2.07090   0.00302   0.00000   0.00859   0.00859   2.07949
   R21        2.07312   0.00305   0.00000   0.00872   0.00872   2.08183
   R22        2.07227   0.00290   0.00000   0.00827   0.00827   2.08054
   R23        2.07392   0.00449   0.00000   0.01286   0.01286   2.08678
   R24        2.69467  -0.00697   0.00000  -0.01647  -0.01665   2.67802
   R25        2.84061   0.00333   0.00000   0.00936   0.00898   2.84960
   R26        2.06520   0.00376   0.00000   0.01060   0.01060   2.07580
   R27        2.06982   0.00656   0.00000   0.01864   0.01864   2.08846
   R28        2.69425  -0.00829   0.00000  -0.01761  -0.01782   2.67643
   R29        2.06525   0.00401   0.00000   0.01130   0.01130   2.07655
   R30        2.06921   0.00675   0.00000   0.01918   0.01918   2.08838
    A1        2.09030   0.00062   0.00000   0.00135   0.00137   2.09166
    A2        2.08990  -0.00019   0.00000  -0.00179  -0.00177   2.08813
    A3        2.10299  -0.00043   0.00000   0.00044   0.00039   2.10337
    A4        2.08670  -0.00314   0.00000  -0.01035  -0.01040   2.07630
    A5        2.10832   0.00015   0.00000  -0.00318  -0.00315   2.10517
    A6        2.08816   0.00299   0.00000   0.01352   0.01354   2.10170
    A7        2.10759   0.00342   0.00000   0.01469   0.01466   2.12225
    A8        2.07841  -0.00036   0.00000   0.00059   0.00061   2.07901
    A9        2.09719  -0.00306   0.00000  -0.01528  -0.01526   2.08192
   A10        2.09011  -0.00466   0.00000  -0.02019  -0.02021   2.06990
   A11        2.06598   0.00408   0.00000   0.01939   0.01937   2.08535
   A12        2.12589   0.00060   0.00000   0.00144   0.00139   2.12728
   A13        2.07111   0.00630   0.00000   0.02416   0.02415   2.09526
   A14        2.11439   0.00222   0.00000   0.00140   0.00143   2.11582
   A15        2.09715  -0.00852   0.00000  -0.02562  -0.02564   2.07151
   A16        2.10777  -0.00148   0.00000  -0.00850  -0.00853   2.09924
   A17        2.08751   0.00155   0.00000   0.00902   0.00901   2.09652
   A18        2.08789  -0.00008   0.00000  -0.00056  -0.00057   2.08732
   A19        1.96010  -0.00087   0.00000   0.00370   0.00359   1.96370
   A20        1.92946  -0.00206   0.00000  -0.02101  -0.02159   1.90787
   A21        1.89383   0.00237   0.00000   0.01251   0.01149   1.90532
   A22        1.88665   0.00618   0.00000   0.05395   0.05386   1.94051
   A23        1.88630   0.00123   0.00000   0.00861   0.00927   1.89557
   A24        1.90653  -0.00706   0.00000  -0.05971  -0.05963   1.84690
   A25        1.93370   0.00099   0.00000  -0.00423  -0.00424   1.92946
   A26        1.92019  -0.00407   0.00000  -0.03308  -0.03293   1.88725
   A27        1.92612  -0.00223   0.00000  -0.03056  -0.03065   1.89546
   A28        1.90428   0.00324   0.00000   0.03567   0.03539   1.93967
   A29        1.91994   0.00065   0.00000   0.01327   0.01301   1.93294
   A30        1.85805   0.00148   0.00000   0.02050   0.01928   1.87733
   A31        1.92578  -0.00018   0.00000   0.00361   0.00372   1.92950
   A32        1.92264   0.00099   0.00000   0.00628   0.00621   1.92885
   A33        1.91934  -0.00195   0.00000  -0.02023  -0.02027   1.89906
   A34        1.91232  -0.00033   0.00000   0.00474   0.00472   1.91703
   A35        1.91852   0.00126   0.00000   0.00229   0.00213   1.92066
   A36        1.86432   0.00022   0.00000   0.00335   0.00338   1.86770
   A37        1.98544  -0.00270   0.00000  -0.00601  -0.00612   1.97932
   A38        1.91711  -0.00045   0.00000  -0.00688  -0.00688   1.91023
   A39        1.88146   0.00068   0.00000  -0.00006  -0.00005   1.88141
   A40        1.89702   0.00329   0.00000   0.02827   0.02825   1.92527
   A41        1.90373   0.00097   0.00000   0.00161   0.00169   1.90541
   A42        1.87604  -0.00182   0.00000  -0.01823  -0.01832   1.85773
   A43        1.82786   0.00866   0.00000   0.05066   0.05042   1.87828
   A44        1.80755  -0.00557   0.00000  -0.02894  -0.02868   1.77887
   A45        1.93314   0.00175   0.00000  -0.01823  -0.01787   1.91527
   A46        1.88900   0.00262   0.00000   0.04069   0.04008   1.92907
   A47        1.97815   0.00131   0.00000   0.00925   0.00870   1.98685
   A48        1.94745   0.00074   0.00000  -0.00185  -0.00156   1.94588
   A49        1.90521  -0.00085   0.00000  -0.00042  -0.00035   1.90486
   A50        1.81310  -0.00644   0.00000  -0.03283  -0.03269   1.78041
   A51        1.97703   0.00249   0.00000   0.01137   0.01077   1.98780
   A52        1.94807  -0.00017   0.00000  -0.00325  -0.00280   1.94528
   A53        1.93204   0.00218   0.00000  -0.01467  -0.01425   1.91779
   A54        1.88854   0.00284   0.00000   0.03987   0.03927   1.92780
   A55        1.90210  -0.00092   0.00000  -0.00008  -0.00006   1.90204
   A56        1.83847   0.00922   0.00000   0.05533   0.05521   1.89368
    D1       -3.14099   0.00016   0.00000   0.00679   0.00670  -3.13430
    D2       -0.00328   0.00019   0.00000   0.00483   0.00483   0.00155
    D3       -0.00005  -0.00010   0.00000   0.00133   0.00129   0.00124
    D4        3.13767  -0.00007   0.00000  -0.00064  -0.00058   3.13709
    D5        3.14073  -0.00004   0.00000   0.00200   0.00192  -3.14053
    D6        0.00441   0.00045   0.00000   0.01191   0.01190   0.01631
    D7       -0.00021   0.00023   0.00000   0.00746   0.00732   0.00711
    D8       -3.13654   0.00071   0.00000   0.01737   0.01730  -3.11924
    D9       -0.00771   0.00005   0.00000   0.00181   0.00191  -0.00580
   D10        3.13189   0.00023   0.00000   0.00206   0.00219   3.13408
   D11        3.13772   0.00002   0.00000   0.00379   0.00381   3.14152
   D12       -0.00587   0.00021   0.00000   0.00404   0.00409  -0.00179
   D13        0.01563  -0.00016   0.00000  -0.01385  -0.01368   0.00195
   D14        3.10555   0.00035   0.00000  -0.00008  -0.00001   3.10554
   D15       -3.12395  -0.00035   0.00000  -0.01412  -0.01398  -3.13792
   D16       -0.03402   0.00016   0.00000  -0.00034  -0.00031  -0.03433
   D17       -0.01556   0.00025   0.00000   0.02204   0.02200   0.00645
   D18       -3.12207   0.00051   0.00000   0.02450   0.02436  -3.09771
   D19       -3.10365  -0.00038   0.00000   0.00726   0.00747  -3.09618
   D20        0.07302  -0.00012   0.00000   0.00972   0.00983   0.08285
   D21        2.89565   0.00000   0.00000  -0.00472  -0.00486   2.89079
   D22        0.76498  -0.00204   0.00000  -0.03209  -0.03211   0.73287
   D23       -1.27417  -0.00001   0.00000  -0.00656  -0.00666  -1.28083
   D24       -0.29873   0.00037   0.00000   0.00870   0.00863  -0.29011
   D25       -2.42940  -0.00167   0.00000  -0.01867  -0.01862  -2.44802
   D26        1.81464   0.00035   0.00000   0.00685   0.00682   1.82146
   D27        0.00802  -0.00026   0.00000  -0.01892  -0.01902  -0.01099
   D28       -3.13884  -0.00074   0.00000  -0.02880  -0.02891   3.11544
   D29        3.11490  -0.00030   0.00000  -0.02081  -0.02079   3.09411
   D30       -0.03196  -0.00078   0.00000  -0.03070  -0.03068  -0.06265
   D31       -0.35094   0.00005   0.00000  -0.02299  -0.02316  -0.37409
   D32       -2.45966  -0.00581   0.00000  -0.07970  -0.07927  -2.53893
   D33        1.73312   0.00261   0.00000  -0.00175  -0.00153   1.73159
   D34        2.82625   0.00002   0.00000  -0.02149  -0.02181   2.80444
   D35        0.71753  -0.00584   0.00000  -0.07820  -0.07793   0.63960
   D36       -1.37288   0.00258   0.00000  -0.00025  -0.00019  -1.37306
   D37        0.85480   0.00007   0.00000   0.01479   0.01469   0.86949
   D38        2.96195   0.00209   0.00000   0.03490   0.03452   2.99647
   D39       -1.27602   0.00010   0.00000   0.02166   0.02154  -1.25448
   D40        2.98801   0.00118   0.00000   0.02801   0.02814   3.01615
   D41       -1.18803   0.00320   0.00000   0.04812   0.04797  -1.14006
   D42        0.85719   0.00121   0.00000   0.03488   0.03499   0.89218
   D43       -1.23365  -0.00315   0.00000  -0.00866  -0.00814  -1.24179
   D44        0.87350  -0.00113   0.00000   0.01146   0.01169   0.88519
   D45        2.91872  -0.00312   0.00000  -0.00178  -0.00129   2.91743
   D46       -2.35063  -0.00079   0.00000   0.00785   0.00628  -2.34436
   D47        1.78066  -0.00249   0.00000  -0.01915  -0.02023   1.76043
   D48       -0.26789  -0.00356   0.00000  -0.02698  -0.02668  -0.29456
   D49        1.96231  -0.00550   0.00000  -0.05113  -0.05170   1.91061
   D50       -2.19112  -0.00441   0.00000  -0.03406  -0.03459  -2.22571
   D51       -0.14236  -0.00022   0.00000   0.00238   0.00147  -0.14089
   D52       -1.09505  -0.00061   0.00000   0.00266   0.00281  -1.09224
   D53        3.07448  -0.00073   0.00000  -0.00973  -0.00970   3.06478
   D54        1.02419  -0.00043   0.00000  -0.00540  -0.00532   1.01887
   D55        3.07158   0.00170   0.00000   0.02317   0.02355   3.09512
   D56        0.95792   0.00158   0.00000   0.01078   0.01103   0.96896
   D57       -1.09236   0.00188   0.00000   0.01511   0.01542  -1.07695
   D58        1.03937  -0.00232   0.00000  -0.02975  -0.02990   1.00947
   D59       -1.07428  -0.00245   0.00000  -0.04214  -0.04242  -1.11670
   D60       -3.12457  -0.00214   0.00000  -0.03781  -0.03803   3.12058
   D61        0.79765  -0.00122   0.00000  -0.01547  -0.01552   0.78213
   D62        2.93938  -0.00121   0.00000  -0.00752  -0.00758   2.93179
   D63       -1.30324  -0.00101   0.00000  -0.01259  -0.01263  -1.31587
   D64        2.91744  -0.00031   0.00000  -0.00223  -0.00220   2.91524
   D65       -1.22402  -0.00030   0.00000   0.00572   0.00573  -1.21828
   D66        0.81656  -0.00010   0.00000   0.00065   0.00068   0.81724
   D67       -1.32208   0.00050   0.00000   0.00596   0.00598  -1.31610
   D68        0.81965   0.00051   0.00000   0.01392   0.01391   0.83356
   D69        2.86022   0.00072   0.00000   0.00885   0.00886   2.86908
   D70        0.54814   0.00326   0.00000   0.03320   0.03316   0.58131
   D71        2.67437   0.00241   0.00000   0.01749   0.01826   2.69263
   D72       -1.52084   0.00405   0.00000   0.03151   0.03198  -1.48886
   D73       -0.64435   0.00208   0.00000  -0.00089   0.00022  -0.64413
   D74       -2.74181   0.00223   0.00000   0.03187   0.03247  -2.70934
   D75        1.38662   0.00170   0.00000   0.02587   0.02652   1.41313
   D76       -2.74019   0.00282   0.00000   0.03476   0.03527  -2.70492
   D77        1.44555   0.00297   0.00000   0.06752   0.06752   1.51306
   D78       -0.70921   0.00244   0.00000   0.06152   0.06156  -0.64765
   D79        1.38374   0.00237   0.00000   0.02970   0.03028   1.41403
   D80       -0.71371   0.00252   0.00000   0.06246   0.06253  -0.65118
   D81       -2.86847   0.00199   0.00000   0.05646   0.05658  -2.81189
   D82        0.47312   0.00072   0.00000   0.01160   0.01177   0.48489
   D83        2.60076   0.00098   0.00000  -0.00224  -0.00143   2.59933
   D84       -1.59920   0.00290   0.00000   0.01367   0.01435  -1.58485
         Item               Value     Threshold  Converged?
 Maximum Force            0.015012     0.000450     NO 
 RMS     Force            0.003352     0.000300     NO 
 Maximum Displacement     0.157739     0.001800     NO 
 RMS     Displacement     0.042725     0.001200     NO 
 Predicted change in Energy=-5.357977D-03
 GradGradGradGradGradGradGradGradGradGradGradGradGradGradGradGradGradGrad

                          Input orientation:                          
 ---------------------------------------------------------------------
 Center     Atomic      Atomic             Coordinates (Angstroms)
 Number     Number       Type             X           Y           Z
 ---------------------------------------------------------------------
      1         35           0       -1.854811    4.328186    0.360854
      2          6           0       -1.770961    2.447432    0.157414
      3          6           0       -2.930868    1.727863   -0.121160
      4          6           0       -2.849733    0.346629   -0.258216
      5          6           0       -1.632951   -0.332713   -0.129869
      6          6           0       -0.476006    0.409350    0.145905
      7          6           0       -0.553343    1.795864    0.294488
      8          6           0        0.882222   -0.258391    0.241183
      9          6           0        0.779675   -1.748939    0.529714
     10          6           0       -0.201240   -2.413690   -0.430084
     11          6           0       -1.607014   -1.842639   -0.241687
     12          8           0        1.662178    0.402348    1.226332
     13          6           0        2.954553    0.608790    0.682772
     14          6           0        2.647255    0.826133   -0.777440
     15          8           0        1.580014   -0.079885   -0.992032
     16          1           0       -3.890182    2.238172   -0.225171
     17          1           0       -3.758929   -0.220931   -0.469639
     18          1           0        0.347327    2.363185    0.533272
     19          1           0        1.785007   -2.185952    0.435232
     20          1           0        0.455624   -1.883249    1.573985
     21          1           0       -0.216412   -3.502735   -0.273009
     22          1           0        0.140863   -2.241777   -1.463072
     23          1           0       -2.262380   -2.160386   -1.067321
     24          1           0       -2.045912   -2.257143    0.682966
     25          1           0        3.428372    1.471787    1.169968
     26          1           0        3.586285   -0.285172    0.834881
     27          1           0        3.483015    0.584849   -1.448849
     28          1           0        2.318353    1.863214   -0.971318
 ---------------------------------------------------------------------
                    Distance matrix (angstroms):
                    1          2          3          4          5
     1  Br   0.000000
     2  C    1.893582   0.000000
     3  C    2.855156   1.393115   0.000000
     4  C    4.150411   2.397890   1.390387   0.000000
     5  C    4.691909   2.798354   2.435290   1.399477   0.000000
     6  C    4.159877   2.414709   2.799312   2.408699   1.401867
     7  C    2.847961   1.387777   2.414542   2.771132   2.424143
     8  C    5.342505   3.790498   4.314644   3.813521   2.543482
     9  C    6.625744   4.924823   5.126395   4.264369   2.874285
    10  C    6.986614   5.141954   4.969785   3.829284   2.543697
    11  C    6.205122   4.311713   3.809934   2.517443   1.514283
    12  O    5.341393   4.136593   4.966770   4.750193   3.638334
    13  C    6.088310   5.097753   6.044569   5.885909   4.753105
    14  C    5.816244   4.798249   5.688522   5.542238   4.481344
    15  O    5.749732   4.351734   4.937047   4.510328   3.336224
    16  H    2.975621   2.163622   1.091566   2.159064   3.422516
    17  H    5.000984   3.386056   2.145908   1.092456   2.155857
    18  H    2.956411   2.153023   3.402716   3.861884   3.410149
    19  H    7.462426   5.847251   6.153617   5.326880   3.928902
    20  H    6.737337   5.071405   5.232778   4.388017   3.109570
    21  H    8.025551   6.164932   5.894954   4.663926   3.475071
    22  H    7.104494   5.316929   5.195604   4.134633   2.927179
    23  H    6.656378   4.793064   4.057164   2.699029   2.148345
    24  H    6.595971   4.741817   4.160533   2.882980   2.129476
    25  H    6.060174   5.386113   6.494038   6.536077   5.528362
    26  H    7.149356   6.051955   6.887641   6.558686   5.307864
    27  H    6.766091   5.801168   6.648845   6.448105   5.362344
    28  H    5.026537   4.282270   5.319343   5.433016   4.598145
                    6          7          8          9         10
     6  C    0.000000
     7  C    1.396595   0.000000
     8  C    1.516489   2.506721   0.000000
     9  C    2.526313   3.794456   1.521677   0.000000
    10  C    2.894273   4.285945   2.503958   1.524893   0.000000
    11  C    2.549679   3.825756   2.989866   2.510004   1.528984
    12  O    2.395663   2.778265   1.419657   2.427370   3.761132
    13  C    3.478037   3.723606   2.289445   3.211294   4.509198
    14  C    3.283449   3.511871   2.308491   3.439114   4.327937
    15  O    2.400306   3.118458   1.428145   2.396246   2.989197
    16  H    3.890871   3.405903   5.406121   6.186636   5.940547
    17  H    3.399078   3.863564   4.695418   4.892079   4.179343
    18  H    2.155319   1.090906   2.691484   4.134792   4.903827
    19  H    3.454198   4.619800   2.137327   1.100272   2.178489
    20  H    2.857159   4.023803   2.144413   1.101613   2.174657
    21  H    3.943006   5.339544   3.463692   2.170796   1.100419
    22  H    3.161932   4.457968   2.718073   2.149922   1.101659
    23  H    3.356575   4.519651   3.901063   3.460333   2.172218
    24  H    3.140577   4.336535   3.572695   2.875013   2.160139
    25  H    4.173925   4.089688   3.215437   4.218839   5.552584
    26  H    4.178427   4.664681   2.768600   3.180063   4.525049
    27  H    4.271755   4.560478   3.214247   4.082808   4.858276
    28  H    3.342208   3.139019   2.834403   4.203365   4.993315
                   11         12         13         14         15
    11  C    0.000000
    12  O    4.228790   0.000000
    13  C    5.260420   1.417148   0.000000
    14  C    5.050562   2.272680   1.507943   0.000000
    15  O    3.718530   2.271660   2.273456   1.416306   0.000000
    16  H    4.676125   6.025431   7.094339   6.710957   5.990368
    17  H    2.704189   5.714297   6.862021   6.498483   5.366293
    18  H    4.702017   2.460498   3.146090   3.061073   3.132836
    19  H    3.475901   2.709285   3.039688   3.359569   2.552376
    20  H    2.748233   2.607794   3.639941   4.203951   3.331789
    21  H    2.165796   4.585499   5.279506   5.214801   3.931927
    22  H    2.169370   4.066779   4.543923   4.020469   2.639472
    23  H    1.100972   5.218296   6.160159   5.753942   4.370143
    24  H    1.104277   4.595440   5.763525   5.802172   4.549001
    25  H    6.191389   2.065507   1.098466   2.195316   3.240117
    26  H    5.527662   2.080409   1.105165   2.171717   2.721190
    27  H    5.767003   3.241195   2.196282   1.098864   2.066873
    28  H    5.447404   2.719258   2.171254   1.105125   2.078751
                   16         17         18         19         20
    16  H    0.000000
    17  H    2.474708   0.000000
    18  H    4.306662   4.954273   0.000000
    19  H    7.226117   5.951077   4.771916   0.000000
    20  H    6.253726   4.970125   4.373444   1.776414   0.000000
    21  H    6.815929   4.833045   5.947849   2.498240   2.546715
    22  H    6.152370   4.503232   5.023315   2.511949   3.074302
    23  H    4.765109   2.521580   5.462157   4.317367   3.800111
    24  H    4.943065   2.899841   5.205519   3.839581   2.681677
    25  H    7.489659   7.563789   3.269987   4.076707   4.500747
    26  H    7.961691   7.460433   4.194712   2.649016   3.591819
    27  H    7.654730   7.352134   4.113858   3.756372   4.939041
    28  H    6.264442   6.444276   2.529567   4.319559   4.897378
                   21         22         23         24         25
    21  H    0.000000
    22  H    1.770286   0.000000
    23  H    2.572706   2.436969   0.000000
    24  H    2.410904   3.063935   1.766274   0.000000
    25  H    6.333444   5.615263   7.112159   6.641527   0.000000
    26  H    5.103003   4.580374   6.429750   5.969371   1.795584
    27  H    5.637083   4.377214   6.378984   6.571954   2.765474
    28  H    5.975457   4.672712   6.097679   6.225818   2.443454
                   26         27         28
    26  H    0.000000
    27  H    2.446021   0.000000
    28  H    3.079865   1.794071   0.000000
 Stoichiometry    C12H13BrO2
 Framework group  C1[X(C12H13BrO2)]
 Deg. of freedom    78
 Full point group                 C1      NOp   1
 Largest Abelian subgroup         C1      NOp   1
 Largest concise Abelian subgroup C1      NOp   1
                         Standard orientation:                         
 ---------------------------------------------------------------------
 Center     Atomic      Atomic             Coordinates (Angstroms)
 Number     Number       Type             X           Y           Z
 ---------------------------------------------------------------------
      1         35           0       -3.428543   -0.532666   -0.026945
      2          6           0       -1.786124    0.409388   -0.001492
      3          6           0       -1.784003    1.795383    0.139156
[...]
 00007107,-0.00024796,-0.00007679,-0.00020876,0.00042892,-0.00028103,0.
 00073034,-0.00110440,-0.00023243,-0.00010980,-0.00001652,0.00007284,-0
 .00002196,0.00020160,0.00007848,0.00105576,0.00023489,-0.00049672,0.00
 777150,0.00335177,-0.02068193,-0.08195636,-0.01380834,0.08931063,-0.01
 262808,-0.00573480,0.02749944,-0.00005098,0.00016640,0.00034546,0.0000
 1092,0.00006406,-0.00001404,-0.00056649,-0.00020728,-0.00003855,-0.000
 35112,-0.00057718,0.00019559,-0.00001336,0.00000028,0.00002940,0.00002
 550,-0.00004645,0.00005400,-0.00000764,0.00002121,0.00000973,0.0005153
 7,0.00068792,0.00006902,-0.00226087,-0.00268868,-0.00298932,-0.0006927
 0,0.00007836,0.00009726,0.09287778,-0.00000620,0.00004694,0.00000051,-
 0.00014094,-0.00005026,-0.00005874,0.00003935,0.00017061,0.00007598,0.
 00015200,-0.00020898,0.00020497,-0.00026300,0.00096678,-0.00043562,0.0
 0000444,-0.00002393,-0.00006006,-0.00000947,-0.00019446,0.00010172,0.0
 0116621,0.00026037,-0.00218105,0.00477897,0.00167365,-0.01385968,-0.01
 512450,-0.05805366,0.04311209,0.00462170,0.00223727,-0.01285365,0.0001
 5167,0.00032460,0.00061871,-0.00008446,0.00013455,0.00004907,-0.000744
 64,-0.00037485,0.00015932,-0.00036225,-0.00094973,0.00019443,0.0000017
 0,0.00001169,-0.00002225,-0.00004209,0.00003295,-0.00004203,0.00001455
 ,-0.00001965,-0.00001801,0.00006777,0.00033312,0.00056442,-0.00183044,
 -0.00081896,-0.00224927,-0.01066387,-0.00343200,0.02840429,0.01639087,
 0.05760633,-0.00000021,-0.00002497,0.00000409,-0.00001370,-0.00001514,
 -0.00003001,-0.00001385,0.00001950,0.00000490,0.00002299,-0.00016235,-
 0.00009693,-0.00001514,-0.00006769,0.00027927,-0.00000782,-0.00044138,
 -0.00014130,0.00006253,-0.00002383,0.00001372,0.00141110,0.00146406,-0
 .00177973,0.00703004,0.00214338,-0.02101869,0.08867238,0.03946474,-0.2
 7541459,-0.00089088,0.00030983,0.00056881,-0.00028114,-0.00015112,0.00
 046118,0.00036771,0.00024790,-0.00011305,-0.00050049,-0.00029726,0.000
 47878,0.00060916,0.00118676,0.00106883,0.00000272,-0.00000641,-0.00000
 355,-0.00001540,0.00000942,-0.00000754,0.00000127,-0.00000695,-0.00001
 204,-0.00018044,0.00024131,0.00037950,-0.00325301,-0.00202152,-0.00164
 590,0.00071316,-0.00014909,-0.00267526,-0.09363900,-0.04147099,0.29733
 930,0.00001728,0.00004656,-0.00006016,0.00035525,0.00032130,0.00016138
 ,-0.00010471,-0.00082157,0.00048483,0.00025174,0.00226047,0.00055362,-
 0.00091240,-0.00165980,0.00086168,0.00044179,-0.00008177,-0.00028529,-
 0.00028178,0.00001625,-0.00019737,0.00019318,0.00127336,-0.00015373,-0
 .00488676,0.00381229,0.00175938,-0.01571497,-0.00951892,-0.02308961,-0
 .13030843,-0.03912323,-0.11862922,-0.00008140,-0.00047637,0.00005185,0
 .00014112,0.00007749,-0.00010330,0.00006718,0.00011303,-0.00001636,0.0
 0002084,-0.00024884,0.00023240,-0.00000019,-0.00003491,-0.00002959,0.0
 0004875,0.00014720,-0.00053747,0.00000189,-0.00002838,-0.00001251,-0.0
 0118008,-0.00102820,-0.00108798,0.00019246,0.00013155,0.00007060,0.000
 55426,0.00027764,-0.00003513,0.00076811,-0.00067556,0.00012721,0.14239
 033,0.00006617,-0.00019647,-0.00006356,0.00007973,0.00011707,-0.000108
 24,-0.00028289,-0.00002122,0.00038806,-0.00176105,0.00080430,0.0003822
 7,-0.01880606,-0.01128796,-0.02558278,0.00200322,-0.00403132,-0.000424
 74,-0.00127557,-0.00052142,0.00082908,0.00093604,-0.00048100,-0.000401
 04,0.00240635,-0.00104467,-0.00052522,0.00695138,0.00418105,0.01145089
 ,-0.03895246,-0.06522932,-0.05752148,-0.00015423,0.00024614,-0.0000007
 9,0.00004691,0.00000700,-0.00002379,-0.00002371,-0.00004710,0.00002217
 ,-0.00010619,0.00019155,0.00007819,0.00002168,0.00001391,-0.00002112,0
 .00098345,0.00003913,-0.00022321,0.00004880,-0.00037301,0.00000950,0.0
 0063670,0.00051601,0.00031480,-0.00018507,-0.00015436,-0.00019193,-0.0
 0039472,-0.00000220,0.00031986,-0.00056806,0.00049829,-0.00025270,0.04
 123071,0.07366255,0.00002210,-0.00009564,-0.00003684,0.00054690,0.0001
 1367,0.00014411,-0.00001895,-0.00052633,0.00009235,-0.00073090,0.00075
 300,0.00101154,0.00060734,0.00144610,0.00081850,0.00044092,-0.00020758
 ,-0.00023821,-0.00017741,0.00052715,0.00005921,0.00016576,0.00001895,0
 .00005380,0.00080681,-0.00015485,0.00069652,0.00458927,0.00174828,0.00
 416067,-0.12028105,-0.05866164,-0.21390261,-0.00012119,-0.00003451,-0.
 00001709,0.00007599,0.00001435,-0.00002698,0.00006199,0.00006177,0.000
 01715,-0.00016556,-0.00007727,0.00006605,-0.00000163,-0.00003281,-0.00
 003345,0.00051800,-0.00037999,-0.00023902,0.00001238,-0.00000100,-0.00
 002079,0.00009753,-0.00010115,0.00025275,0.00025954,0.00007671,0.00036
 769,-0.00045591,0.00019684,-0.00013415,0.00000384,0.00027987,0.0009713
 3,0.12846788,0.06220984,0.22524593,-0.00003789,0.00003973,0.00001462,0
 .00124763,0.00025381,0.00031149,-0.00044792,-0.00154677,-0.00038336,-0
 .00054130,0.00235147,0.00002320,0.00054022,-0.00153033,0.00013707,0.00
 014975,-0.00131232,-0.00043764,-0.00073806,0.00085741,-0.00012446,-0.0
 0039042,0.00022349,0.00037612,0.00116081,-0.00009673,0.00144537,-0.014
 34814,-0.00970165,0.02618346,-0.09534302,-0.04159636,0.09184049,0.0000
 3902,-0.00004597,-0.00012401,-0.00006764,-0.00003684,0.00002982,0.0000
 6425,0.00003109,-0.00005920,0.00018515,-0.00020177,-0.00027666,-0.0000
 0899,-0.00001817,-0.00002487,-0.00018731,-0.00006075,0.00012861,-0.000
 02043,-0.00003608,0.00004225,0.00026809,0.00027637,-0.00036494,-0.0001
 5691,-0.00024896,-0.00087436,0.00124229,-0.00001704,-0.00013162,-0.005
 19992,0.00233187,-0.00027967,0.00805179,0.00713652,-0.01468356,0.10453
 810,0.00002479,-0.00046113,0.00003596,-0.00033768,0.00003043,0.0001039
 6,-0.00012731,0.00016357,-0.00116724,-0.00072923,-0.00000193,-0.000896
 27,-0.01420911,-0.01716180,0.02518709,0.00147074,-0.00098853,-0.000138
 90,0.00060104,-0.00039509,-0.00150989,0.00085478,-0.00114212,0.0008188
 0,-0.00062910,-0.00015698,0.00003668,0.00750569,0.00409756,-0.01260907
 ,-0.04393302,-0.07924135,0.08202584,-0.00019038,0.00019055,-0.00005369
 ,0.00005800,0.00000787,-0.00002920,0.00000691,0.00006191,0.00005328,-0
 .00049238,0.00050074,0.00014433,0.00001884,-0.00004265,0.00007822,0.00
 025898,0.00002022,0.00069538,-0.00000172,-0.00017684,-0.00004156,-0.00
 002876,-0.00001492,-0.00009172,-0.00034535,0.00004773,0.00009295,0.000
 04735,0.00064324,-0.00060390,0.00319023,-0.00033401,-0.00007892,0.0040
 6220,0.00307410,-0.00714468,0.04296052,0.09126046,-0.00000451,0.000038
 04,-0.00000918,-0.00012315,-0.00023506,-0.00011005,-0.00010638,0.00041
 308,0.00014097,0.00036336,-0.00020728,0.00103420,-0.00225444,-0.001391
 66,0.00483838,-0.00064780,-0.00038006,-0.00054463,0.00008755,0.0002001
 4,-0.00029821,-0.00007045,-0.00033946,0.00015257,-0.00039563,-0.000235
 05,0.00114270,0.00062928,-0.00033705,-0.00218807,0.09262521,0.07833707
 ,-0.22204970,0.00004619,0.00010963,0.00002459,-0.00003218,-0.00000200,
 0.00001426,-0.00009672,-0.00008803,0.00004224,-0.00006040,0.00006449,0
 .00004496,0.00000700,0.00004089,0.00000877,-0.00003812,0.00022856,-0.0
 0033081,-0.00001692,-0.00000247,0.00002748,0.00006932,0.00002213,0.000
 02224,0.00054224,0.00029317,0.00000067,0.00021169,-0.00041022,0.000512
 33,0.00058009,-0.00058941,0.00124475,0.01142999,0.00934742,-0.01931277
 ,-0.10275354,-0.08489334,0.23559650,0.00001866,0.00007776,0.00001704,0
 .00000120,0.00000946,0.00000016,-0.00000963,0.00004737,0.00000214,-0.0
 0000831,-0.00003304,0.00002480,-0.00013314,0.00021010,-0.00001066,0.00
 012538,-0.00031690,-0.00019490,-0.00016143,-0.00017609,-0.00004316,-0.
 00138160,-0.00337188,0.00378698,-0.00116894,-0.00031318,-0.00129886,0.
 00011920,-0.00063655,0.00021731,0.00011519,0.00002150,0.00001107,-0.02
 151138,-0.02672706,-0.01222497,-0.07035745,-0.06249453,-0.03130947,-0.
 00094039,-0.00309043,-0.00260555,-0.00026768,-0.00076940,0.00031946,0.
 00000546,0.00000837,0.00000174,-0.00002325,0.00001226,-0.00000350,-0.0
 0011502,-0.00000555,-0.00003186,0.00006205,-0.00010574,0.00000569,0.00
 005801,0.00006844,-0.00001185,-0.00016891,-0.00010928,-0.00012318,0.00
 000829,0.00002875,-0.00000006,-0.00001991,0.00000502,-0.00000720,-0.00
 000169,0.00000481,0.00000716,0.08761840,-0.00000689,0.00008171,0.00001
 186,-0.00000356,-0.00016861,-0.00001349,-0.00004148,0.00004869,0.00000
 716,-0.00000416,0.00000314,0.00000011,-0.00000313,0.00004002,0.0000028
 3,-0.00013382,0.00008828,0.00002239,-0.00009760,0.00012823,-0.00000998
 ,0.00207823,-0.00022097,0.00304737,-0.00008454,-0.00020497,-0.00037522
 ,0.00004246,-0.00011285,0.00010699,0.00002563,-0.00000459,-0.00002625,
 -0.00937435,-0.00139152,-0.00074460,-0.07033169,-0.25590130,-0.0983102
 4,0.00307443,0.00545324,0.00282581,0.00139651,0.00191019,0.00130241,-0
 .00000785,0.00000028,-0.00000823,-0.00001256,0.00000019,-0.00000235,-0
 .00021640,-0.00013993,-0.00007336,-0.00001050,0.00009432,0.00000677,-0
 .00004272,0.00005575,-0.00001459,-0.00004740,-0.00003300,-0.00005309,0
 .00000429,-0.00000354,-0.00002064,-0.00002928,0.00000568,-0.00000885,0
 .00000049,-0.00000374,0.00000842,0.08074033,0.26662747,0.00001004,0.00
 002999,-0.00000055,0.00000263,-0.00000738,-0.00002532,-0.00000753,0.00
 003176,0.00000896,0.00004935,0.00000143,-0.00001612,-0.00000593,-0.000
 01022,0.00000961,0.00007110,0.00015689,0.00021990,-0.00011044,-0.00004
 927,-0.00009602,0.00166231,0.00118323,-0.00537741,0.00018801,0.0001799
 5,0.00059513,-0.00002751,0.00016631,-0.00011464,-0.00000778,-0.0000019
 9,0.00002225,0.01334650,0.01609218,0.00856577,-0.03883771,-0.09983172,
 -0.09831946,-0.00705519,-0.02543492,-0.00250468,-0.00588428,-0.0021248
 9,-0.00482311,0.00000225,0.00000093,0.00000540,0.00000192,-0.00000042,
 -0.00000222,-0.00018245,0.00002182,0.00004346,-0.00003664,-0.00000255,
 -0.00002566,0.00000080,-0.00010805,0.00006239,0.00001561,0.00001276,0.
 00008923,0.00002808,0.00006552,0.00009713,0.00000638,0.00000388,-0.000
 00284,-0.00001188,0.00000087,0.00000423,0.03602880,0.10315947,0.097736
 41,-0.00001578,0.00012896,0.00001047,0.00008247,-0.00032133,-0.0000912
 6,-0.00011736,0.00005090,-0.00000453,-0.00012950,-0.00009630,0.0000268
 0,-0.00022461,0.00049353,-0.00001681,-0.00086147,-0.00096023,-0.001066
 60,-0.00010007,0.00005267,0.00000307,0.00090614,0.00523283,0.00460530,
 -0.00053251,0.00018777,-0.00021800,0.00012524,-0.00031503,0.00003780,0
 .00003964,0.00010167,0.00006030,-0.03686238,0.01101602,0.00449889,-0.1
 5444646,0.12045996,-0.03027967,-0.00177462,0.00445594,-0.00013701,0.00
 126200,-0.00034767,-0.00109935,-0.00001748,-0.00000439,-0.00000101,-0.
 00006559,0.00001888,-0.00000971,0.00002027,-0.00033418,0.00011000,0.00
 005162,-0.00041853,0.00001593,0.00011609,0.00005404,-0.00001834,-0.000
 07069,-0.00007257,-0.00004837,-0.00000402,0.00003380,-0.00001053,0.000
 02240,-0.00004354,-0.00001551,0.00000676,-0.00003795,0.00000183,0.0083
 2653,-0.00642557,0.00063791,0.18304268,0.00002170,-0.00001667,0.000000
 67,0.00000567,0.00008685,-0.00000902,0.00001768,-0.00000585,0.00000410
 ,-0.00000036,-0.00000757,0.00001078,-0.00004989,0.00004104,0.00000441,
 -0.00024621,-0.00009542,-0.00019354,-0.00013341,-0.00010040,-0.0000880
 2,-0.00091815,0.00076091,-0.00001047,0.00056986,-0.00006462,0.00063744
 ,0.00004794,0.00012908,-0.00009807,0.00002586,-0.00000464,0.00000972,-
 0.00837015,0.01514271,-0.00265841,0.12352513,-0.19640146,0.02768873,-0
 .00027019,-0.00288771,-0.00004042,0.00094165,0.00149603,-0.00042762,0.
 00000612,0.00000019,0.00000586,0.00000022,0.00000350,0.00000070,-0.000
 15192,-0.00000608,0.00002564,-0.00015680,-0.00017810,0.00004192,-0.000
 03381,0.00001040,-0.00002058,0.00004027,0.00004477,0.00002564,-0.00000
 838,-0.00002870,-0.00000243,0.00001350,0.00000009,0.00000330,-0.000000
 31,0.00000967,-0.00000533,0.01724915,-0.01714926,0.00567865,-0.1321191
 3,0.19751425,0.00000440,-0.00005972,0.00000336,-0.00001905,0.00007669,
 0.00005240,0.00005774,-0.00001811,-0.00000137,0.00005166,0.00002329,-0
 .00002446,0.00011066,-0.00016440,0.00002847,0.00042689,0.00036907,0.00
 078281,0.00002088,0.00001638,-0.00001126,-0.00054351,-0.00184731,-0.00
 259950,0.00001044,0.00010625,0.00015719,0.00003536,0.00005980,-0.00008
 407,-0.00001920,-0.00000402,0.00002103,0.01901870,-0.00841552,0.004300
 02,-0.03044130,0.02603943,-0.05830282,-0.01921492,0.02758723,-0.005908
 78,0.00100502,-0.00124463,0.00215152,0.00000552,-0.00000069,-0.0000038
 0,0.00002681,-0.00000723,-0.00000164,-0.00011526,0.00007790,-0.0001638
 6,-0.00003367,-0.00004913,0.00007156,0.00001521,-0.00004311,-0.0000155
 0,0.00002222,0.00003481,0.00003276,-0.00000696,0.00000954,0.00000759,0
 .00001827,0.00000510,0.00000536,0.00000061,0.00000609,-0.00000273,0.00
 804087,-0.01046902,0.00376434,0.02362659,-0.03190067,0.06021475,-0.000
 01068,0.00009371,0.00000779,-0.00016882,-0.00015604,-0.00015288,0.0000
 0841,0.00021726,0.00002576,0.00013763,-0.00014714,-0.00007225,-0.00022
 656,0.00017635,-0.00008156,0.00016144,0.00000197,0.00081138,0.00006510
 ,0.00008752,0.00004635,-0.00287667,-0.00059975,-0.00507436,-0.00016054
 ,0.00018211,0.00042170,0.00003855,0.00005968,0.00007835,0.00000111,0.0
 0001950,0.00004111,0.00222361,0.00108767,-0.00379160,0.01047342,-0.001
 95086,-0.00537901,-0.19772872,0.04896741,0.12699923,-0.02177790,-0.006
 88807,0.01775777,-0.00001198,-0.00000001,0.00001593,-0.00002913,-0.000
 00496,0.00000898,-0.00006516,-0.00005938,0.00000489,0.00003747,-0.0000
 2126,-0.00004416,-0.00001436,-0.00026434,0.00002478,-0.00002040,-0.000
 03890,-0.00000183,0.00003993,0.00006130,0.00001390,-0.00001720,-0.0000
 1463,-0.00001283,0.00001129,-0.00003384,-0.00000411,-0.00037026,-0.000
 48001,0.00018732,0.00059095,-0.00003383,0.00042497,0.21653096,0.000012
 88,0.00000933,-0.00000010,-0.00006455,0.00013732,-0.00010375,-0.000032
 38,0.00009448,0.00003669,0.00011941,-0.00000891,-0.00004894,-0.0001282
 1,0.00015213,-0.00001853,-0.00021276,-0.00016558,0.00092692,-0.0001706
 9,-0.00029302,-0.00032280,-0.00403882,-0.00184359,-0.00110373,-0.00027
 184,0.00022186,0.00057332,0.00007373,0.00004846,0.00004273,0.00001079,
 0.00001040,0.00004557,-0.00108719,0.00051330,-0.00033442,-0.00010102,-
 0.00010929,0.00327770,0.05619501,-0.06509822,-0.04664032,-0.02544675,0
 .00068620,0.02072778,0.00001393,0.00000620,0.00001493,-0.00001256,0.00
 000696,-0.00000489,-0.00000254,0.00017994,0.00026234,0.00005410,-0.000
 02914,-0.00002771,0.00000542,-0.00026841,0.00001600,-0.00001681,-0.000
 01826,-0.00000800,-0.00000759,0.00002164,-0.00002729,-0.00000132,0.000
 00148,-0.00000656,0.00001227,-0.00001861,-0.00000847,-0.00005365,0.000
 00418,0.00027655,-0.00048463,0.00050920,0.00021144,-0.04387744,0.06909
 589,0.00000410,-0.00004031,-0.00000261,-0.00009512,0.00006992,-0.00001
 075,0.00006021,0.00005097,0.00000876,0.00006991,-0.00006520,0.00000351
 ,-0.00007047,-0.00008833,-0.00004727,0.00045015,0.00009107,0.00013724,
 0.00010470,0.00000372,0.00002271,-0.00231514,-0.00172411,-0.00274474,0
 .00016108,0.00005328,0.00029893,-0.00003422,0.00011520,-0.00001716,-0.
 00002680,-0.00000439,0.00000317,0.00265562,0.00257826,-0.00550348,0.02
 215638,-0.00634383,-0.00895774,0.13069522,-0.03819107,-0.16212098,-0.0
 0629005,0.00085720,0.00619092,0.00000274,-0.00000012,0.00000333,0.0000
 1280,-0.00000682,0.00000691,-0.00006481,0.00005934,-0.00004568,-0.0000
 1318,-0.00000953,-0.00002756,-0.00003496,-0.00006143,0.00002707,0.0000
 3962,0.00003169,0.00001766,0.00001313,-0.00001423,0.00000371,0.0000097
 2,-0.00000053,0.00000673,-0.00000086,-0.00000331,-0.00000659,-0.000627
 94,-0.00008657,-0.00111653,-0.00012320,0.00046555,0.00108377,-0.140763
 62,0.03970865,0.16707445,0.00002501,-0.00005183,-0.00002596,-0.0004641
 7,0.00023353,-0.00018248,0.00015629,0.00022299,0.00006435,0.00016068,-
 0.00018567,0.00000901,-0.00023857,-0.00005991,-0.00014376,0.00043558,0
 .00010291,-0.00024702,-0.00008210,0.00024842,0.00002350,0.00195271,-0.
 00213238,-0.00249684,-0.00055580,-0.00001956,0.00070712,0.00007698,0.0
 0002567,0.00003064,0.00003405,-0.00003447,0.00001841,0.00189529,0.0002
 8382,0.00077136,-0.00586494,0.00800341,-0.00135478,-0.09596359,0.09785
 369,-0.01960432,0.00688227,-0.03345587,0.00613034,0.00000585,0.0000053
 9,0.00001395,-0.00000013,-0.00000474,0.00001887,-0.00010308,0.00008188
 ,0.00040421,-0.00004070,0.00008875,-0.00006103,-0.00016636,-0.00023375
 ,0.00017945,-0.00003435,-0.00001572,0.00000464,0.00009750,0.00010247,0
 .00006715,-0.00001054,0.00001548,-0.00000452,-0.00001552,0.00003095,0.
 00000343,0.00018062,-0.00000885,-0.00007166,0.00062975,0.00002778,-0.0
 0252895,-0.00684148,0.01951319,-0.00597501,0.09784876,-0.00001856,0.00
 010008,0.00001460,0.00013087,0.00012741,-0.00003413,-0.00013101,0.0000
 3312,0.00002722,0.00007119,0.00011804,-0.00002767,-0.00000557,0.000031
 61,0.00003547,-0.00050914,0.00009134,0.00069833,-0.00025102,-0.0005742
 7,-0.00050506,0.00351064,-0.00195979,-0.00511054,-0.00062033,0.0000635
 2,0.00090879,0.00016712,0.00005738,0.00006846,0.00009552,-0.00004139,0
 .00005400,-0.00011090,0.00094580,0.00111054,0.00068672,0.00154778,-0.0
 0159676,0.09520432,-0.24507618,0.04832921,-0.01052966,-0.03071868,0.00
 447203,0.00001521,0.00001432,0.00000994,-0.00001365,0.00000757,-0.0000
 1502,0.00023456,0.00026778,0.00017286,-0.00009536,0.00022759,-0.000142
 81,-0.00023155,-0.00040058,0.00020108,-0.00007826,-0.00004503,0.000011
 43,0.00016677,0.00017392,0.00013377,-0.00005539,0.00003171,-0.00001697
 ,-0.00002497,0.00003164,0.00002186,-0.00028002,0.00079292,0.00050922,-
 0.00030593,0.00119780,-0.00039945,0.00361598,-0.00384595,0.00255491,-0
 .09063759,0.27680053,-0.00003680,0.00006819,0.00000820,0.00010647,-0.0
 0030203,0.00009002,-0.00010540,-0.00004683,-0.00005741,-0.00009467,0.0
 0004935,-0.00002660,0.00013607,0.00003072,-0.00005681,-0.00029148,0.00
 011577,0.00024350,0.00027797,0.00021857,0.00017597,-0.00021866,0.00008
 670,-0.00071265,-0.00000040,0.00006941,0.00025149,-0.00000788,-0.00001
 200,-0.00001940,-0.00002993,0.00001485,0.00003789,0.00051826,-0.001196
 95,0.00159718,-0.01662311,0.02735011,-0.00613680,-0.01776117,0.0467174
 3,-0.06659298,0.00156251,-0.00447840,0.00571589,-0.00001613,-0.0000064
 9,-0.00001761,-0.00001367,-0.00000455,0.00000051,0.00023903,-0.0001509
 6,-0.00051562,0.00005427,-0.00005646,-0.00006646,-0.00002126,-0.000051
 16,0.00003723,0.00000749,-0.00000807,0.00000150,0.00002554,0.00001456,
 0.00001570,0.00000253,-0.00001994,-0.00000493,-0.00000248,-0.00001775,
 0.00000090,0.00002997,-0.00028510,0.00120036,-0.00049499,0.00085148,-0
 .00555713,0.00850799,-0.01746514,0.00571221,0.02424991,-0.05148530,0.0
 6467582\\-0.00000194,-0.00000049,-0.00000061,0.00000018,0.00000017,-0.
 00000133,-0.00000291,-0.00000232,-0.00000141,-0.00000060,0.00000087,0.
 00000118,-0.00000018,-0.00000119,-0.00000202,-0.00000470,-0.00000202,-
 0.00000203,-0.00000008,0.00000218,0.00000212,0.00000272,-0.00000553,-0
 .00001641,0.00000207,-0.00000227,0.00000577,-0.00000038,0.00000056,0.0
 0000168,0.00000247,-0.00000101,0.00000235,0.00000355,0.00000381,0.0000
 0243,-0.00000380,-0.00000455,0.00000028,0.00000118,0.00000435,-0.00000
 799,-0.00000058,0.00000656,0.00001330,-0.00000019,-0.00000198,0.000000
 90,0.00000004,-0.00000224,0.00000094,-0.00000036,0.00000058,-0.0000017
 5,0.00000049,0.00000063,0.00000062,-0.00000002,-0.00000038,0.00000004,
 0.00000216,0.00000027,0.00000011,0.00000064,0.00000009,0.00000118,0.00
 000002,-0.00000072,0.00000180,0.00000135,-0.00000205,0.00000049,-0.000
 00149,0.00000096,-0.00000245,0.00000377,0.00000273,0.00000019,-0.00000
 175,0.00000070,0.00000089,-0.00000166,0.00000231,-0.00000028\\\@
 The archive entry for this job was punched.


 THE CHYMISTS ARE A STRANGE CLASS OF MORTALS IMPELLED
 BY AN ALMOST INSANE IMPULSE TO SEEK THEIR PLEASURE
 AMONG SMOKE AND VAPOR, SOOT AND FLAME, POISONS AND
 POVERTY; YET AMONG ALL THESE EVILS I SEEM TO LIVE
 SO SWEETLY, THAT I MAY DIE IF I WOULD CHANGE PLACES
 WITH THE PERSIAN KING.
   --  JOHANN JOACHIM BECHER, 1635-1682
 ACTA LABORATORII CHYMICA MONACENSIS, 1669
 Job cpu time:       0 days  1 hours 40 minutes  3.1 seconds.
 Elapsed time:       0 days  0 hours  4 minutes 13.8 seconds.
 File lengths (MBytes):  RWF=    300 Int=      0 D2E=      0 Chk=      9 Scr=      1
 Normal termination of Gaussian 16 at Mon Sep 23 06:56:53 2024.
