 Entering Gaussian System, Link 0=/usr/local/Gaussian/G16C/g16/g16
 Input=arbr35_wb97xd.com
 Output=arbr35_wb97xd.log
 Initial command:
 /usr/local/Gaussian/G16C/g16/l1.exe "/home/rpaton/opt/dzvp/Gau-2239941.inp" -scrdir="/home/rpaton/opt/dzvp/"
 Entering Link 1 = /usr/local/Gaussian/G16C/g16/l1.exe PID=   2239942.
  
 Copyright (c) 1988-2019, Gaussian, Inc.  All Rights Reserved.
  
 This is part of the Gaussian(R) 16 program.  It is based on
 the Gaussian(R) 09 system (copyright 2009, Gaussian, Inc.),
 the Gaussian(R) 03 system (copyright 2003, Gaussian, Inc.),
 the Gaussian(R) 98 system (copyright 1998, Gaussian, Inc.),
 the Gaussian(R) 94 system (copyright 1995, Gaussian, Inc.),
 the Gaussian 92(TM) system (copyright 1992, Gaussian, Inc.),
 the Gaussian 90(TM) system (copyright 1990, Gaussian, Inc.),
 the Gaussian 88(TM) system (copyright 1988, Gaussian, Inc.),
 the Gaussian 86(TM) system (copyright 1986, Carnegie Mellon
 University), and the Gaussian 82(TM) system (copyright 1983,
 Carnegie Mellon University). Gaussian is a federally registered
 trademark of Gaussian, Inc.
  
 This software contains proprietary and confidential information,
 including trade secrets, belonging to Gaussian, Inc.
  
 This software is provided under written license and may be
 used, copied, transmitted, or stored only in accord with that
 written license.
  
 The following legend is applicable only to US Government
 contracts under FAR:
  
                    RESTRICTED RIGHTS LEGEND
  
 Use, reproduction and disclosure by the US Government is
 subject to restrictions as set forth in subparagraphs (a)
 and (c) of the Commercial Computer Software - Restricted
 Rights clause in FAR 52.227-19.
  
 Gaussian, Inc.
 340 Quinnipiac St., Bldg. 40, Wallingford CT 06492
  
  
 ---------------------------------------------------------------
 Warning -- This program may not be used in any manner that
 competes with the business of Gaussian, Inc. or will provide
 assistance to any competitor of Gaussian, Inc.  The licensee
 of this program is prohibited from giving any competitor of
 Gaussian, Inc. access to this program.  By using this program,
 the user acknowledges that Gaussian, Inc. is engaged in the
 business of creating and licensing software in the field of
 computational chemistry and represents and warrants to the
 licensee that it is not a competitor of Gaussian, Inc. and that
 it will not use this program in any manner prohibited above.
 ---------------------------------------------------------------
  

 Cite this work as:
 Gaussian 16, Revision C.01,
 M. J. Frisch, G. W. Trucks, H. B. Schlegel, G. E. Scuseria, 
 M. A. Robb, J. R. Cheeseman, G. Scalmani, V. Barone, 
 G. A. Petersson, H. Nakatsuji, X. Li, M. Caricato, A. V. Marenich, 
 J. Bloino, B. G. Janesko, R. Gomperts, B. Mennucci, H. P. Hratchian, 
 J. V. Ortiz, A. F. Izmaylov, J. L. Sonnenberg, D. Williams-Young, 
 F. Ding, F. Lipparini, F. Egidi, J. Goings, B. Peng, A. Petrone, 
 T. Henderson, D. Ranasinghe, V. G. Zakrzewski, J. Gao, N. Rega, 
 G. Zheng, W. Liang, M. Hada, M. Ehara, K. Toyota, R. Fukuda, 
 J. Hasegawa, M. Ishida, T. Nakajima, Y. Honda, O. Kitao, H. Nakai, 
 T. Vreven, K. Throssell, J. A. Montgomery, Jr., J. E. Peralta, 
 F. Ogliaro, M. J. Bearpark, J. J. Heyd, E. N. Brothers, K. N. Kudin, 
 V. N. Staroverov, T. A. Keith, R. Kobayashi, J. Normand, 
 K. Raghavachari, A. P. Rendell, J. C. Burant, S. S. Iyengar, 
 J. Tomasi, M. Cossi, J. M. Millam, M. Klene, C. Adamo, R. Cammi, 
 J. W. Ochterski, R. L. Martin, K. Morokuma, O. Farkas, 
 J. B. Foresman, and D. J. Fox, Gaussian, Inc., Wallingford CT, 2019.
 
 ******************************************
 Gaussian 16:  ES64L-G16RevC.01  3-Jul-2019
                23-Sep-2024 
 ******************************************
 %nprocshared=24
 Will use up to   24 processors via shared memory.
 %mem=96GB
 -------------------------
 # opt freq wb97xd/def2svp
 -------------------------
 1/18=20,19=15,26=3,38=1/1,3;
 2/9=110,12=2,17=6,18=5,40=1/2;
 3/5=43,7=101,11=2,25=1,30=1,71=1,74=-58/1,2,3;
 4//1;
 5/5=2,38=5/2;
 6/7=2,8=2,9=2,10=2,28=1/1;
 7//1,2,3,16;
 1/18=20,19=15,26=3/3(2);
 2/9=110/2;
 99//99;
 2/9=110/2;
 3/5=43,7=101,11=2,25=1,30=1,71=1,74=-58/1,2,3;
 4/5=5,16=3,69=1/1;
 5/5=2,38=5/2;
 7//1,2,3,16;
 1/18=20,19=15,26=3/3(-5);
 2/9=110/2;
 6/7=2,8=2,9=2,10=2,19=2,28=1/1;
 99/9=1/99;
 --------------------------
 arbr35_rdkit_conf_1_wb97xd
 --------------------------
 Symbolic Z-matrix:
 Charge =  0 Multiplicity = 1
 Br                   -5.2305    0.793    -0.522 
 C                    -3.416     0.323    -0.1576 
 C                    -3.1242   -0.8798    0.5186 
 C                    -1.7938   -1.2361    0.7922 
 C                    -0.7815   -0.3706    0.3775 
 C                    -1.0599    0.8101   -0.2859 
 C                    -2.3768    1.1782   -0.5651 
 C                     0.1947    1.5625   -0.6243 
 C                     1.2311    0.6364   -0.0558 
 C                     2.617     0.7996   -0.0637 
 C                     3.4154   -0.1949    0.5283 
 I                     5.5136    0.0134    0.5376 
 C                     2.8197   -1.3303    1.1154 
 C                     1.4235   -1.48      1.1152 
 C                     0.6539   -0.4794    0.5216 
 H                    -3.9275   -1.5347    0.8302 
 H                    -1.5643   -2.1577    1.3107 
 H                    -2.5907    2.1033   -1.0846 
 H                     0.2179    2.5474   -0.1118 
 H                     0.3128    1.6641   -1.7238 
 H                     3.0653    1.6743   -0.5166 
 H                     3.4389   -2.0928    1.5696 
 H                     0.9612   -2.3492    1.5643 
 

 GradGradGradGradGradGradGradGradGradGradGradGradGradGradGradGradGradGrad
 Berny optimization.
 Initialization pass.
                           ----------------------------
                           !    Initial Parameters    !
                           ! (Angstroms and Degrees)  !
 --------------------------                            --------------------------
 ! Name  Definition              Value          Derivative Info.                !
 --------------------------------------------------------------------------------
 ! R1    R(1,2)                  1.9095         estimate D2E/DX2                !
 ! R2    R(2,3)                  1.4104         estimate D2E/DX2                !
 ! R3    R(2,7)                  1.4062         estimate D2E/DX2                !
 ! R4    R(3,4)                  1.4042         estimate D2E/DX2                !
 ! R5    R(3,16)                 1.0823         estimate D2E/DX2                !
 ! R6    R(4,5)                  1.3949         estimate D2E/DX2                !
 ! R7    R(4,17)                 1.0821         estimate D2E/DX2                !
 ! R8    R(5,6)                  1.3826         estimate D2E/DX2                !
 ! R9    R(5,15)                 1.4467         estimate D2E/DX2                !
 ! R10   R(6,7)                  1.3956         estimate D2E/DX2                !
 ! R11   R(6,8)                  1.5015         estimate D2E/DX2                !
 ! R12   R(7,18)                 1.0823         estimate D2E/DX2                !
 ! R13   R(8,9)                  1.5017         estimate D2E/DX2                !
 ! R14   R(8,19)                 1.1105         estimate D2E/DX2                !
 ! R15   R(8,20)                 1.1105         estimate D2E/DX2                !
 ! R16   R(9,10)                 1.3955         estimate D2E/DX2                !
 ! R17   R(9,15)                 1.3826         estimate D2E/DX2                !
 ! R18   R(10,11)                1.406          estimate D2E/DX2                !
 ! R19   R(10,21)                1.0822         estimate D2E/DX2                !
 ! R20   R(11,12)                2.1085         estimate D2E/DX2                !
 ! R21   R(11,13)                1.4102         estimate D2E/DX2                !
 ! R22   R(13,14)                1.4042         estimate D2E/DX2                !
 ! R23   R(13,22)                1.0822         estimate D2E/DX2                !
 ! R24   R(14,15)                1.3949         estimate D2E/DX2                !
 ! R25   R(14,23)                1.0821         estimate D2E/DX2                !
 ! A1    A(1,2,3)              119.8691         estimate D2E/DX2                !
 ! A2    A(1,2,7)              119.8191         estimate D2E/DX2                !
 ! A3    A(3,2,7)              120.3118         estimate D2E/DX2                !
 ! A4    A(2,3,4)              120.387          estimate D2E/DX2                !
 ! A5    A(2,3,16)             120.0359         estimate D2E/DX2                !
 ! A6    A(4,3,16)             119.5771         estimate D2E/DX2                !
 ! A7    A(3,4,5)              118.1773         estimate D2E/DX2                !
 ! A8    A(3,4,17)             120.6921         estimate D2E/DX2                !
 ! A9    A(5,4,17)             121.1306         estimate D2E/DX2                !
 ! A10   A(4,5,6)              121.7603         estimate D2E/DX2                !
 ! A11   A(4,5,15)             130.0723         estimate D2E/DX2                !
 ! A12   A(6,5,15)             108.1674         estimate D2E/DX2                !
 ! A13   A(5,6,7)              120.7458         estimate D2E/DX2                !
 ! A14   A(5,6,8)              111.5797         estimate D2E/DX2                !
 ! A15   A(7,6,8)              127.6744         estimate D2E/DX2                !
 ! A16   A(2,7,6)              118.6178         estimate D2E/DX2                !
 ! A17   A(2,7,18)             120.8547         estimate D2E/DX2                !
 ! A18   A(6,7,18)             120.5275         estimate D2E/DX2                !
 ! A19   A(6,8,9)              100.5047         estimate D2E/DX2                !
 ! A20   A(6,8,19)             110.9686         estimate D2E/DX2                !
 ! A21   A(6,8,20)             110.9678         estimate D2E/DX2                !
 ! A22   A(9,8,19)             110.9669         estimate D2E/DX2                !
 ! A23   A(9,8,20)             110.969          estimate D2E/DX2                !
 ! A24   A(19,8,20)            111.9361         estimate D2E/DX2                !
 ! A25   A(8,9,10)             127.6732         estimate D2E/DX2                !
 ! A26   A(8,9,15)             111.573          estimate D2E/DX2                !
 ! A27   A(10,9,15)            120.7538         estimate D2E/DX2                !
 ! A28   A(9,10,11)            118.6091         estimate D2E/DX2                !
 ! A29   A(9,10,21)            120.5497         estimate D2E/DX2                !
 ! A30   A(11,10,21)           120.8413         estimate D2E/DX2                !
 ! A31   A(10,11,12)           119.8042         estimate D2E/DX2                !
 ! A32   A(10,11,13)           120.3246         estimate D2E/DX2                !
 ! A33   A(12,11,13)           119.8712         estimate D2E/DX2                !
 ! A34   A(11,13,14)           120.3837         estimate D2E/DX2                !
 ! A35   A(11,13,22)           120.0216         estimate D2E/DX2                !
 ! A36   A(14,13,22)           119.5947         estimate D2E/DX2                !
 ! A37   A(13,14,15)           118.1743         estimate D2E/DX2                !
 ! A38   A(13,14,23)           120.6884         estimate D2E/DX2                !
 ! A39   A(15,14,23)           121.1373         estimate D2E/DX2                !
 ! A40   A(5,15,9)             108.1751         estimate D2E/DX2                !
 ! A41   A(5,15,14)            130.0703         estimate D2E/DX2                !
 ! A42   A(9,15,14)            121.7546         estimate D2E/DX2                !
 ! D1    D(1,2,3,4)           -179.9995         estimate D2E/DX2                !
 ! D2    D(1,2,3,16)            -0.0055         estimate D2E/DX2                !
 ! D3    D(7,2,3,4)              0.007          estimate D2E/DX2                !
 ! D4    D(7,2,3,16)          -179.9991         estimate D2E/DX2                !
 ! D5    D(1,2,7,6)           -179.9975         estimate D2E/DX2                !
 ! D6    D(1,2,7,18)             0.0043         estimate D2E/DX2                !
 ! D7    D(3,2,7,6)             -0.0039         estimate D2E/DX2                !
 ! D8    D(3,2,7,18)           179.9979         estimate D2E/DX2                !
 ! D9    D(2,3,4,5)             -0.0057         estimate D2E/DX2                !
 ! D10   D(2,3,4,17)           179.9979         estimate D2E/DX2                !
 ! D11   D(16,3,4,5)          -179.9997         estimate D2E/DX2                !
 ! D12   D(16,3,4,17)            0.0039         estimate D2E/DX2                !
 ! D13   D(3,4,5,6)              0.0017         estimate D2E/DX2                !
 ! D14   D(3,4,5,15)          -179.9978         estimate D2E/DX2                !
 ! D15   D(17,4,5,6)           179.998          estimate D2E/DX2                !
 ! D16   D(17,4,5,15)           -0.0015         estimate D2E/DX2                !
 ! D17   D(4,5,6,7)              0.0013         estimate D2E/DX2                !
 ! D18   D(4,5,6,8)            179.9978         estimate D2E/DX2                !
 ! D19   D(15,5,6,7)          -179.9991         estimate D2E/DX2                !
 ! D20   D(15,5,6,8)            -0.0026         estimate D2E/DX2                !
 ! D21   D(4,5,15,9)          -179.9974         estimate D2E/DX2                !
 ! D22   D(4,5,15,14)            0.0002         estimate D2E/DX2                !
 ! D23   D(6,5,15,9)             0.0031         estimate D2E/DX2                !
 ! D24   D(6,5,15,14)         -179.9993         estimate D2E/DX2                !
 ! D25   D(5,6,7,2)             -0.0001         estimate D2E/DX2                !
 ! D26   D(5,6,7,18)           179.998          estimate D2E/DX2                !
 ! D27   D(8,6,7,2)           -179.9961         estimate D2E/DX2                !
 ! D28   D(8,6,7,18)             0.0021         estimate D2E/DX2                !
 ! D29   D(5,6,8,9)              0.0011         estimate D2E/DX2                !
 ! D30   D(5,6,8,19)          -117.4375         estimate D2E/DX2                !
 ! D31   D(5,6,8,20)           117.4419         estimate D2E/DX2                !
 ! D32   D(7,6,8,9)            179.9974         estimate D2E/DX2                !
 ! D33   D(7,6,8,19)            62.5587         estimate D2E/DX2                !
 ! D34   D(7,6,8,20)           -62.5619         estimate D2E/DX2                !
 ! D35   D(6,8,9,10)           179.9959         estimate D2E/DX2                !
 ! D36   D(6,8,9,15)             0.0008         estimate D2E/DX2                !
 ! D37   D(19,8,9,10)          -62.5642         estimate D2E/DX2                !
 ! D38   D(19,8,9,15)          117.4407         estimate D2E/DX2                !
 ! D39   D(20,8,9,10)           62.556          estimate D2E/DX2                !
 ! D40   D(20,8,9,15)         -117.4391         estimate D2E/DX2                !
 ! D41   D(8,9,10,11)          179.9993         estimate D2E/DX2                !
 ! D42   D(8,9,10,21)            0.0044         estimate D2E/DX2                !
 ! D43   D(15,9,10,11)          -0.006          estimate D2E/DX2                !
 ! D44   D(15,9,10,21)         179.999          estimate D2E/DX2                !
 ! D45   D(8,9,15,5)            -0.0024         estimate D2E/DX2                !
 ! D46   D(8,9,15,14)          179.9997         estimate D2E/DX2                !
 ! D47   D(10,9,15,5)         -179.9979         estimate D2E/DX2                !
 ! D48   D(10,9,15,14)           0.0043         estimate D2E/DX2                !
 ! D49   D(9,10,11,12)        -179.9998         estimate D2E/DX2                !
 ! D50   D(9,10,11,13)           0.004          estimate D2E/DX2                !
 ! D51   D(21,10,11,12)         -0.0049         estimate D2E/DX2                !
 ! D52   D(21,10,11,13)        179.9989         estimate D2E/DX2                !
 ! D53   D(10,11,13,14)         -0.0001         estimate D2E/DX2                !
 ! D54   D(10,11,13,22)        179.994          estimate D2E/DX2                !
 ! D55   D(12,11,13,14)       -179.9963         estimate D2E/DX2                !
 ! D56   D(12,11,13,22)         -0.0022         estimate D2E/DX2                !
 ! D57   D(11,13,14,15)         -0.0018         estimate D2E/DX2                !
 ! D58   D(11,13,14,23)       -179.9991         estimate D2E/DX2                !
 ! D59   D(22,13,14,15)       -179.9959         estimate D2E/DX2                !
 ! D60   D(22,13,14,23)          0.0068         estimate D2E/DX2                !
 ! D61   D(13,14,15,5)        -179.9976         estimate D2E/DX2                !
 ! D62   D(13,14,15,9)          -0.0002         estimate D2E/DX2                !
 ! D63   D(23,14,15,5)          -0.0004         estimate D2E/DX2                !
 ! D64   D(23,14,15,9)         179.997          estimate D2E/DX2                !
 --------------------------------------------------------------------------------
 Trust Radius=3.00D-01 FncErr=1.00D-07 GrdErr=1.00D-06 EigMax=2.50D+02 EigMin=1.00D-04
 Number of steps in this run=    138 maximum allowed number of steps=    138.
 GradGradGradGradGradGradGradGradGradGradGradGradGradGradGradGradGradGrad

                          Input orientation:                          
 ---------------------------------------------------------------------
 Center     Atomic      Atomic             Coordinates (Angstroms)
 Number     Number       Type             X           Y           Z
 ---------------------------------------------------------------------
      1         35           0       -5.230500    0.793000   -0.522000
      2          6           0       -3.416000    0.323000   -0.157600
      3          6           0       -3.124200   -0.879800    0.518600
      4          6           0       -1.793800   -1.236100    0.792200
      5          6           0       -0.781500   -0.370600    0.377500
      6          6           0       -1.059900    0.810100   -0.285900
      7          6           0       -2.376800    1.178200   -0.565100
      8          6           0        0.194700    1.562500   -0.624300
      9          6           0        1.231100    0.636400   -0.055800
     10          6           0        2.617000    0.799600   -0.063700
     11          6           0        3.415400   -0.194900    0.528300
     12         53           0        5.513600    0.013400    0.537600
     13          6           0        2.819700   -1.330300    1.115400
     14          6           0        1.423500   -1.480000    1.115200
     15          6           0        0.653900   -0.479400    0.521600
     16          1           0       -3.927500   -1.534700    0.830200
     17          1           0       -1.564300   -2.157700    1.310700
     18          1           0       -2.590700    2.103300   -1.084600
     19          1           0        0.217900    2.547400   -0.111800
     20          1           0        0.312800    1.664100   -1.723800
     21          1           0        3.065300    1.674300   -0.516600
     22          1           0        3.438900   -2.092800    1.569600
     23          1           0        0.961200   -2.349200    1.564300
 ---------------------------------------------------------------------
                    Distance matrix (angstroms):
                    1          2          3          4          5
     1  Br   0.000000
     2  C    1.909476   0.000000
     3  C    2.884026   1.410362   0.000000
     4  C    4.201818   2.442221   1.404198   0.000000
     5  C    4.685794   2.776329   2.401549   1.394926   0.000000
     6  C    4.177313   2.409343   2.786452   2.426488   1.382627
     7  C    2.879903   1.406186   2.443026   2.830370   2.415007
     8  C    5.480455   3.845949   4.276230   3.713861   2.386094
     9  C    6.480289   4.658768   4.647304   3.657237   2.291802
    10  C    7.860874   6.052525   6.010061   4.932727   3.621302
    11  C    8.765310   6.885253   6.575375   5.318788   4.203282
    12  I   10.824334   8.961970   8.683879   7.417828   6.308833
    13  C    8.484999   6.575552   5.990749   4.625766   3.799232
    14  C    7.219603   5.318984   4.625770   3.242659   2.576237
    15  C    6.110177   4.203480   3.799259   2.576248   1.446712
    16  H    2.990726   2.165278   1.082257   2.154828   3.384875
    17  H    5.050390   3.426160   2.166504   1.082062   2.162722
    18  H    3.000325   2.170234   3.428375   3.912674   3.395751
    19  H    5.738575   4.260902   4.828326   4.379386   3.122970
    20  H    5.738581   4.260925   4.828328   4.379404   3.122973
    21  H    8.342483   6.630395   6.775321   5.813281   4.447348
    22  H    9.373427   7.470540   6.756497   5.359052   4.711566
    23  H    7.250049   5.409757   4.465772   3.070042   2.891428
                    6          7          8          9         10
     6  C    0.000000
     7  C    1.395592   0.000000
     8  C    1.501546   2.600731   0.000000
     9  C    2.309069   3.683731   1.501659   0.000000
    10  C    3.683623   5.033168   2.600736   1.395498   0.000000
    11  C    4.658461   6.052314   3.845757   2.409024   1.406036
    12  I    6.672615   8.051777   5.660426   4.368073   3.061040
    13  C    4.647177   6.010014   4.276152   2.786264   2.442916
    14  C    3.657173   4.932719   3.713841   2.426398   2.830340
    15  C    2.291719   3.621284   2.386065   1.382592   2.414990
    16  H    3.868707   3.422186   5.357308   5.666553   7.005604
    17  H    3.407549   3.912418   4.547328   4.181935   5.302628
    18  H    2.157229   1.082332   2.874508   4.220945   5.464614
    19  H    2.163630   2.968612   1.110506   2.163708   2.968636
    20  H    2.163603   2.968608   1.110482   2.163716   2.968607
    21  H    4.221059   5.464881   2.874794   2.157281   1.082216
    22  H    5.666472   7.005623   5.357168   3.868441   3.421866
    23  H    4.182016   5.302748   4.547405   3.407547   3.912416
                   11         12         13         14         15
    11  C    0.000000
    12  I    2.108535   0.000000
    13  C    1.410205   3.065368   0.000000
    14  C    2.442048   4.392355   1.404202   0.000000
    15  C    2.776125   4.884649   2.401524   1.394936   0.000000
    16  H    7.470233   9.571656   6.756318   5.358864   4.711488
    17  H    5.409450   7.443657   4.465668   3.069926   2.891329
    18  H    6.629963   8.525192   6.775104   5.813171   4.447207
    19  H    4.260744   5.906548   4.828244   4.379378   3.122949
    20  H    4.260747   5.906527   4.828254   4.379377   3.122941
    21  H    2.169861   3.140716   3.428026   3.912529   3.395752
    22  H    2.164921   3.131371   1.082180   2.154957   3.384906
    23  H    3.425989   5.230711   2.166493   1.082091   2.162824
                   16         17         18         19         20
    16  H    0.000000
    17  H    2.490728   0.000000
    18  H    4.323024   4.994705   0.000000
    19  H    5.893661   5.228548   3.005295   0.000000
    20  H    5.893673   5.228561   3.005293   1.840589   0.000000
    21  H    7.810941   6.281437   5.700614   3.005637   3.005610
    22  H    7.424422   5.010315   7.810769   5.893505   5.893495
    23  H    5.010160   2.545415   6.281514   5.228623   5.228633
                   21         22         23
    21  H    0.000000
    22  H    4.322366   0.000000
    23  H    4.994590   2.490937   0.000000
 Stoichiometry    C13H8BrI
 Framework group  C1[X(C13H8BrI)]
 Deg. of freedom    63
 Full point group                 C1      NOp   1
 Largest Abelian subgroup         C1      NOp   1
 Largest concise Abelian subgroup C1      NOp   1
                         Standard orientation:                         
 ---------------------------------------------------------------------
 Center     Atomic      Atomic             Coordinates (Angstroms)
 Number     Number       Type             X           Y           Z
 ---------------------------------------------------------------------
      1         35           0        5.920244   -0.314682   -0.000009
      2          6           0        4.053359    0.086368    0.000036
      3          6           0        3.623510    1.429630   -0.000028
      4          6           0        2.253356    1.736954    0.000016
      5          6           0        1.341525    0.681311    0.000001
      6          6           0        1.755454   -0.637901   -0.000021
      7          6           0        3.113471   -0.959562   -0.000002
      8          6           0        0.588534   -1.582855    0.000019
      9          6           0       -0.553417   -0.607701    0.000039
     10          6           0       -1.919267   -0.893828   -0.000002
     11          6           0       -2.831306    0.176276    0.000041
     12         53           0       -4.903612   -0.212910   -0.000011
     13          6           0       -2.366729    1.507759    0.000040
     14          6           0       -0.989027    1.779275   -0.000004
     15          6           0       -0.105064    0.700175   -0.000006
     16          1           0        4.350753    2.231126   -0.000013
     17          1           0        1.918083    2.765764    0.000000
     18          1           0        3.433561   -1.993480    0.000013
     19          1           0        0.580429   -2.204283    0.920337
     20          1           0        0.580414   -2.204309   -0.920252
     21          1           0       -2.266564   -1.918804    0.000017
     22          1           0       -3.073041    2.327659   -0.000025
     23          1           0       -0.627114    2.799049    0.000010
 ---------------------------------------------------------------------
 Rotational constants (GHZ):           1.9697060           0.0756627           0.0728996
 Standard basis: def2SVP (5D, 7F)
 There are   298 symmetry adapted cartesian basis functions of A   symmetry.
 There are   280 symmetry adapted basis functions of A   symmetry.
   280 basis functions,   528 primitive gaussians,   298 cartesian basis functions
    73 alpha electrons       73 beta electrons
       nuclear repulsion energy      1305.6881355023 Hartrees.
 NAtoms=   23 NActive=   23 NUniq=   23 SFac= 1.00D+00 NAtFMM=   60 NAOKFM=F Big=F
 Integral buffers will be    131072 words long.
 Raffenetti 2 integral format.
 Two-electron integral symmetry is turned on.
 Nuclear repulsion after empirical dispersion term =     1305.6720812971 Hartrees.
 One-electron integrals computed using PRISM.
   1 Symmetry operations used in ECPInt.
 ECPInt:  NShTT=    7750 NPrTT=   31390 LenC2=    7109 LenP2D=   20418.
 LDataN:  DoStor=T MaxTD1= 6 Len=  172
 NBasis=   280 RedAO= T EigKep=  2.37D-04  NBF=   280
 NBsUse=   280 1.00D-06 EigRej= -1.00D+00 NBFU=   280
 Defaulting to unpruned grid for atomic number  53.
 ExpMin= 1.11D-01 ExpMax= 1.13D+05 ExpMxC= 1.70D+04 IAcc=3 IRadAn=         5 AccDes= 0.00D+00
 Harris functional with IExCor= 4639 and IRadAn=       5 diagonalized for initial guess.
 HarFok:  IExCor= 4639 AccDes= 0.00D+00 IRadAn=         5 IDoV= 1 UseB2=F ITyADJ=14
 ICtDFT=  3500011 ScaDFX=  1.000000  1.000000  1.000000  1.000000
 Defaulting to unpruned grid for atomic number  53.
 FoFCou: FMM=F IPFlag=           0 FMFlag=      100000 FMFlg1=           0
         NFxFlg=           0 DoJE=T BraDBF=F KetDBF=T FulRan=T
         wScrn=  0.000000 ICntrl=       500 IOpCl=  0 I1Cent=   200000004 NGrid=           0
         NMat0=    1 NMatS0=      1 NMatT0=    0 NMatD0=    1 NMtDS0=    0 NMtDT0=    0
 Petite list used in FoFCou.
 Requested convergence on RMS density matrix=1.00D-08 within 128 cycles.
 Requested convergence on MAX density matrix=1.00D-06.
 Requested convergence on             energy=1.00D-06.
 No special actions if energy rises.
 Integral accuracy reduced to 1.0D-05 until final iterations.
 Defaulting to unpruned grid for atomic number  53.
 Defaulting to unpruned grid for atomic number  53.
 Defaulting to unpruned grid for atomic number  53.
 Defaulting to unpruned grid for atomic number  53.
 Defaulting to unpruned grid for atomic number  53.
 Defaulting to unpruned grid for atomic number  53.
 Defaulting to unpruned grid for atomic number  53.
 Defaulting to unpruned grid for atomic number  53.
 Defaulting to unpruned grid for atomic number  53.
 Defaulting to unpruned grid for atomic number  53.
 Defaulting to unpruned grid for atomic number  53.
 Defaulting to unpruned grid for atomic number  53.
 Defaulting to unpruned grid for atomic number  53.
 Defaulting to unpruned grid for atomic number  53.
 Defaulting to unpruned grid for atomic number  53.
 Defaulting to unpruned grid for atomic number  53.
 Defaulting to unpruned grid for atomic number  53.
 Defaulting to unpruned grid for atomic number  53.
 Defaulting to unpruned grid for atomic number  53.
 Defaulting to unpruned grid for atomic number  53.
 Defaulting to unpruned grid for atomic number  53.
 Defaulting to unpruned grid for atomic number  53.
 Defaulting to unpruned grid for atomic number  53.
 Defaulting to unpruned grid for atomic number  53.
 Initial convergence to 1.0D-05 achieved.  Increase integral accuracy.
 SCF Done:  E(RwB97XD) =  -3371.36821018     A.U. after   16 cycles
            NFock= 16  Conv=0.62D-08     -V/T= 2.0605

 **********************************************************************

            Population analysis using the SCF Density.

 **********************************************************************

 Orbital symmetries:
       Occupied  (A) (A) (A) (A) (A) (A) (A) (A) (A) (A) (A) (A)
                 (A) (A) (A) (A) (A) (A) (A) (A) (A) (A) (A) (A)
                 (A) (A) (A) (A) (A) (A) (A) (A) (A) (A) (A) (A)
                 (A) (A) (A) (A) (A) (A) (A) (A) (A) (A) (A) (A)
                 (A) (A) (A) (A) (A) (A) (A) (A) (A) (A) (A) (A)
                 (A) (A) (A) (A) (A) (A) (A) (A) (A) (A) (A) (A)
                 (A)
       Virtual   (A) (A) (A) (A) (A) (A) (A) (A) (A) (A) (A) (A)
                 (A) (A) (A) (A) (A) (A) (A) (A) (A) (A) (A) (A)
                 (A) (A) (A) (A) (A) (A) (A) (A) (A) (A) (A) (A)
                 (A) (A) (A) (A) (A) (A) (A) (A) (A) (A) (A) (A)
                 (A) (A) (A) (A) (A) (A) (A) (A) (A) (A) (A) (A)
                 (A) (A) (A) (A) (A) (A) (A) (A) (A) (A) (A) (A)
                 (A) (A) (A) (A) (A) (A) (A) (A) (A) (A) (A) (A)
                 (A) (A) (A) (A) (A) (A) (A) (A) (A) (A) (A) (A)
                 (A) (A) (A) (A) (A) (A) (A) (A) (A) (A) (A) (A)
                 (A) (A) (A) (A) (A) (A) (A) (A) (A) (A) (A) (A)
                 (A) (A) (A) (A) (A) (A) (A) (A) (A) (A) (A) (A)
                 (A) (A) (A) (A) (A) (A) (A) (A) (A) (A) (A) (A)
                 (A) (A) (A) (A) (A) (A) (A) (A) (A) (A) (A) (A)
                 (A) (A) (A) (A) (A) (A) (A) (A) (A) (A) (A) (A)
                 (A) (A) (A) (A) (A) (A) (A) (A) (A) (A) (A) (A)
                 (A) (A) (A) (A) (A) (A) (A) (A) (A) (A) (A) (A)
                 (A) (A) (A) (A) (A) (A) (A) (A) (A) (A) (A) (A)
                 (A) (A) (A)
 The electronic state is 1-A.
 Alpha  occ. eigenvalues -- -483.06357 -62.64554 -56.45332 -56.44963 -56.44956
 Alpha  occ. eigenvalues --  -10.36605 -10.35776 -10.32634 -10.32411 -10.32399
 Alpha  occ. eigenvalues --  -10.32363 -10.32358 -10.32245 -10.32171 -10.32152
 Alpha  occ. eigenvalues --  -10.32088 -10.31673 -10.31653  -8.81496  -6.96417
 Alpha  occ. eigenvalues --   -6.64063  -6.62718  -6.62698  -4.98713  -4.97113
 Alpha  occ. eigenvalues --   -4.97112  -2.74430  -2.74042  -2.74029  -2.72955
 Alpha  occ. eigenvalues --   -2.72955  -2.02106  -2.01600  -2.01588  -2.00233
 Alpha  occ. eigenvalues --   -2.00233  -1.01154  -0.96747  -0.93115  -0.89354
 Alpha  occ. eigenvalues --   -0.87383  -0.85398  -0.82437  -0.79965  -0.77757
 Alpha  occ. eigenvalues --   -0.73531  -0.69520  -0.67869  -0.67425  -0.62538
 Alpha  occ. eigenvalues --   -0.59170  -0.56636  -0.56171  -0.55190  -0.54523
 Alpha  occ. eigenvalues --   -0.53918  -0.51322  -0.50717  -0.49222  -0.48168
 Alpha  occ. eigenvalues --   -0.47571  -0.45430  -0.44270  -0.43749  -0.42395
 Alpha  occ. eigenvalues --   -0.41807  -0.37801  -0.37367  -0.34908  -0.34359
 Alpha  occ. eigenvalues --   -0.33940  -0.33573  -0.29330
 Alpha virt. eigenvalues --    0.00793   0.03083   0.03914   0.05295   0.07625
 Alpha virt. eigenvalues --    0.08387   0.14520   0.15339   0.16870   0.16893
 Alpha virt. eigenvalues --    0.18889   0.19675   0.20473   0.23846   0.24434
 Alpha virt. eigenvalues --    0.25645   0.27248   0.28259   0.29552   0.30015
 Alpha virt. eigenvalues --    0.31395   0.31980   0.33481   0.35470   0.36860
 Alpha virt. eigenvalues --    0.38156   0.39916   0.40669   0.41275   0.42003
 Alpha virt. eigenvalues --    0.43515   0.43704   0.44210   0.45868   0.46881
 Alpha virt. eigenvalues --    0.47191   0.48494   0.49271   0.49476   0.50270
 Alpha virt. eigenvalues --    0.51935   0.52129   0.53145   0.53468   0.53832
 Alpha virt. eigenvalues --    0.54742   0.55038   0.56139   0.56553   0.57782
 Alpha virt. eigenvalues --    0.58259   0.58293   0.59458   0.60014   0.61270
 Alpha virt. eigenvalues --    0.62579   0.63175   0.64121   0.67014   0.67237
 Alpha virt. eigenvalues --    0.68375   0.69444   0.70692   0.70995   0.71308
 Alpha virt. eigenvalues --    0.72789   0.73111   0.73576   0.74113   0.74943
 Alpha virt. eigenvalues --    0.75509   0.75819   0.76097   0.76781   0.77239
 Alpha virt. eigenvalues --    0.78200   0.79258   0.79818   0.80891   0.81459
 Alpha virt. eigenvalues --    0.82049   0.83633   0.84620   0.85470   0.86185
 Alpha virt. eigenvalues --    0.86353   0.90020   0.90240   0.92661   0.96605
 Alpha virt. eigenvalues --    0.98385   0.99866   1.03256   1.07262   1.07878
 Alpha virt. eigenvalues --    1.10391   1.13846   1.17464   1.20166   1.23664
 Alpha virt. eigenvalues --    1.26033   1.26785   1.27230   1.27490   1.29668
 Alpha virt. eigenvalues --    1.30587   1.31851   1.32289   1.34355   1.34556
 Alpha virt. eigenvalues --    1.36362   1.37743   1.38029   1.45336   1.46322
 Alpha virt. eigenvalues --    1.51467   1.54308   1.55254   1.55595   1.60917
 Alpha virt. eigenvalues --    1.62745   1.69106   1.75863   1.76465   1.77307
 Alpha virt. eigenvalues --    1.78323   1.78867   1.79397   1.80784   1.81686
 Alpha virt. eigenvalues --    1.81878   1.83722   1.85822   1.87658   1.88053
 Alpha virt. eigenvalues --    1.89639   1.89913   1.91547   1.93020   1.93527
 Alpha virt. eigenvalues --    1.94583   1.95145   1.98933   2.02026   2.02869
 Alpha virt. eigenvalues --    2.03738   2.05700   2.08140   2.09930   2.10829
 Alpha virt. eigenvalues --    2.15980   2.17304   2.19428   2.21631   2.22848
 Alpha virt. eigenvalues --    2.23328   2.24112   2.24842   2.25653   2.30598
 Alpha virt. eigenvalues --    2.34469   2.35139   2.35280   2.37515   2.38698
 Alpha virt. eigenvalues --    2.40274   2.42132   2.43998   2.44513   2.45415
 Alpha virt. eigenvalues --    2.52340   2.52843   2.53526   2.65486   2.65739
 Alpha virt. eigenvalues --    2.65989   2.67979   2.72499   2.72678   2.73390
 Alpha virt. eigenvalues --    2.77283   2.77485   2.78947   2.86200   2.92163
 Alpha virt. eigenvalues --    2.94761   2.95094   2.97166   2.98120   3.00916
 Alpha virt. eigenvalues --    3.02873   3.05167   3.09810   3.21297   3.23795
 Alpha virt. eigenvalues --    3.41145   3.51426   3.52255   3.55815   3.59985
 Alpha virt. eigenvalues --    3.69076   3.72301   3.92513  18.77465  18.97172
 Alpha virt. eigenvalues --   19.36850  56.54149
          Condensed to atoms (all electrons):
               1          2          3          4          5          6
     1  Br  34.921514   0.225704  -0.055382   0.002411   0.000888   0.002488
     2  C    0.225704   5.266226   0.328732   0.059274  -0.147913   0.080533
     3  C   -0.055382   0.328732   4.947958   0.377647   0.076245  -0.120675
     4  C    0.002411   0.059274   0.377647   5.039356   0.347649  -0.025289
     5  C    0.000888  -0.147913   0.076245   0.347649   5.326657   0.341661
     6  C    0.002488   0.080533  -0.120675  -0.025289   0.341661   5.313037
     7  C   -0.056852   0.335861   0.044368  -0.085401   0.030555   0.376781
     8  C   -0.000115   0.013233  -0.001560   0.021160  -0.113075   0.309752
     9  C    0.000001  -0.001863   0.000448   0.012821  -0.024742  -0.098349
    10  C   -0.000000   0.000008   0.000005  -0.000573   0.016522   0.014478
    11  C    0.000000  -0.000000   0.000002   0.000071   0.002751  -0.001894
    12  I   -0.000000   0.000000  -0.000000  -0.000001   0.000033   0.000003
    13  C    0.000000   0.000002  -0.000013  -0.000187   0.013278   0.000375
    14  C   -0.000000   0.000075  -0.000216  -0.010140  -0.088740   0.012821
    15  C    0.000018   0.003032   0.012767  -0.088074   0.193968  -0.023389
    16  H   -0.000350  -0.061597   0.434055  -0.047673   0.012907  -0.000893
    17  H   -0.000126   0.013219  -0.066567   0.446862  -0.051874   0.016479
    18  H    0.000261  -0.064512   0.011493  -0.001450   0.015812  -0.046520
    19  H    0.000001  -0.000230   0.000075  -0.000473   0.001753   0.005540
    20  H    0.000001  -0.000230   0.000075  -0.000473   0.001757   0.005542
    21  H    0.000000  -0.000000  -0.000000   0.000002  -0.000939   0.001167
    22  H    0.000000   0.000000  -0.000000   0.000007  -0.000447   0.000013
    23  H   -0.000000  -0.000016   0.000216   0.004530  -0.024118  -0.000435
               7          8          9         10         11         12
     1  Br  -0.056852  -0.000115   0.000001  -0.000000   0.000000  -0.000000
     2  C    0.335861   0.013233  -0.001863   0.000008  -0.000000   0.000000
     3  C    0.044368  -0.001560   0.000448   0.000005   0.000002  -0.000000
     4  C   -0.085401   0.021160   0.012821  -0.000573   0.000071  -0.000001
     5  C    0.030555  -0.113075  -0.024742   0.016522   0.002751   0.000033
     6  C    0.376781   0.309752  -0.098349   0.014478  -0.001894   0.000003
     7  C    4.982428  -0.088249   0.014483  -0.000453   0.000007  -0.000000
     8  C   -0.088249   4.849932   0.310419  -0.087861   0.013347  -0.000183
     9  C    0.014483   0.310419   5.298447   0.395313   0.063648   0.004291
    10  C   -0.000453  -0.087861   0.395313   4.973538   0.332060  -0.066065
    11  C    0.000007   0.013347   0.063648   0.332060   5.400282   0.258945
    12  I   -0.000000  -0.000183   0.004291  -0.066065   0.258945  24.804764
    13  C    0.000006  -0.001358  -0.111287   0.033878   0.324531  -0.064209
    14  C   -0.000579   0.021105  -0.034535  -0.077610   0.044724   0.003636
    15  C    0.015965  -0.114741   0.348210   0.025093  -0.143000   0.000910
    16  H    0.011247   0.000017   0.000012  -0.000000   0.000000   0.000000
    17  H   -0.002275  -0.000518  -0.000406   0.000034  -0.000016  -0.000000
    18  H    0.437479  -0.017195   0.001161   0.000013  -0.000000  -0.000000
    19  H   -0.003101   0.331061   0.005438  -0.003147  -0.000253   0.000001
    20  H   -0.003101   0.331064   0.005439  -0.003147  -0.000253   0.000001
    21  H    0.000013  -0.017123  -0.046470   0.441362  -0.067169  -0.002596
    22  H   -0.000000   0.000010  -0.000828   0.010860  -0.064155  -0.002916
    23  H    0.000033  -0.000513   0.016519  -0.002221   0.013355  -0.000189
              13         14         15         16         17         18
     1  Br   0.000000  -0.000000   0.000018  -0.000350  -0.000126   0.000261
     2  C    0.000002   0.000075   0.003032  -0.061597   0.013219  -0.064512
     3  C   -0.000013  -0.000216   0.012767   0.434055  -0.066567   0.011493
     4  C   -0.000187  -0.010140  -0.088074  -0.047673   0.446862  -0.001450
     5  C    0.013278  -0.088740   0.193968   0.012907  -0.051874   0.015812
     6  C    0.000375   0.012821  -0.023389  -0.000893   0.016479  -0.046520
     7  C    0.000006  -0.000579   0.015965   0.011247  -0.002275   0.437479
     8  C   -0.001358   0.021105  -0.114741   0.000017  -0.000518  -0.017195
     9  C   -0.111287  -0.034535   0.348210   0.000012  -0.000406   0.001161
    10  C    0.033878  -0.077610   0.025093  -0.000000   0.000034   0.000013
    11  C    0.324531   0.044724  -0.143000   0.000000  -0.000016  -0.000000
    12  I   -0.064209   0.003636   0.000910   0.000000  -0.000000  -0.000000
    13  C    4.941026   0.393769   0.069873  -0.000000   0.000215  -0.000000
    14  C    0.393769   5.027770   0.355402   0.000008   0.004503   0.000002
    15  C    0.069873   0.355402   5.318763  -0.000442  -0.024092  -0.000922
    16  H   -0.000000   0.000008  -0.000442   0.640294  -0.010635  -0.000189
    17  H    0.000215   0.004503  -0.024092  -0.010635   0.665396   0.000020
    18  H   -0.000000   0.000002  -0.000922  -0.000189   0.000020   0.654132
    19  H    0.000077  -0.000474   0.001863  -0.000000   0.000011   0.001828
    20  H    0.000077  -0.000474   0.001859  -0.000000   0.000011   0.001829
    21  H    0.011069  -0.001334   0.015764   0.000000   0.000000   0.000000
    22  H    0.437550  -0.047551   0.012938  -0.000000   0.000007   0.000000
    23  H   -0.067100   0.446806  -0.051749   0.000007   0.000345   0.000000
              19         20         21         22         23
     1  Br   0.000001   0.000001   0.000000   0.000000  -0.000000
     2  C   -0.000230  -0.000230  -0.000000   0.000000  -0.000016
     3  C    0.000075   0.000075  -0.000000  -0.000000   0.000216
     4  C   -0.000473  -0.000473   0.000002   0.000007   0.004530
     5  C    0.001753   0.001757  -0.000939  -0.000447  -0.024118
     6  C    0.005540   0.005542   0.001167   0.000013  -0.000435
     7  C   -0.003101  -0.003101   0.000013  -0.000000   0.000033
     8  C    0.331061   0.331064  -0.017123   0.000010  -0.000513
     9  C    0.005438   0.005439  -0.046470  -0.000828   0.016519
    10  C   -0.003147  -0.003147   0.441362   0.010860  -0.002221
    11  C   -0.000253  -0.000253  -0.067169  -0.064155   0.013355
    12  I    0.000001   0.000001  -0.002596  -0.002916  -0.000189
    13  C    0.000077   0.000077   0.011069   0.437550  -0.067100
    14  C   -0.000474  -0.000474  -0.001334  -0.047551   0.446806
    15  C    0.001863   0.001859   0.015764   0.012938  -0.051749
    16  H   -0.000000  -0.000000   0.000000  -0.000000   0.000007
    17  H    0.000011   0.000011   0.000000   0.000007   0.000345
    18  H    0.001828   0.001829   0.000000   0.000000   0.000000
    19  H    0.596428  -0.012107   0.001870  -0.000000   0.000011
    20  H   -0.012107   0.596429   0.001869  -0.000000   0.000011
    21  H    0.001870   0.001869   0.655371  -0.000165   0.000018
    22  H   -0.000000  -0.000000  -0.000165   0.640725  -0.010446
    23  H    0.000011   0.000011   0.000018  -0.010446   0.666093
 Mulliken charges:
               1
     1  Br  -0.040462
     2  C   -0.049538
     3  C    0.010328
     4  C   -0.052057
     5  C    0.069410
     6  C   -0.163226
     7  C   -0.009216
     8  C    0.241392
     9  C   -0.158170
    10  C   -0.002086
    11  C   -0.176982
    12  I    0.063576
    13  C    0.018429
    14  C   -0.048965
    15  C    0.069985
    16  H    0.023235
    17  H    0.009407
    18  H    0.006757
    19  H    0.073829
    20  H    0.073822
    21  H    0.007290
    22  H    0.024399
    23  H    0.008844
 Sum of Mulliken charges =  -0.00000
 Mulliken charges with hydrogens summed into heavy atoms:
               1
     1  Br  -0.040462
     2  C   -0.049538
     3  C    0.033562
     4  C   -0.042650
     5  C    0.069410
     6  C   -0.163226
     7  C   -0.002459
     8  C    0.389044
     9  C   -0.158170
    10  C    0.005203
    11  C   -0.176982
    12  I    0.063576
    13  C    0.042828
    14  C   -0.040122
    15  C    0.069985
 Electronic spatial extent (au):  <R**2>=           8965.4810
 Charge=             -0.0000 electrons
 Dipole moment (field-independent basis, Debye):
    X=             -0.2055    Y=              0.0466    Z=             -0.0000  Tot=              0.2107
 Quadrupole moment (field-independent basis, Debye-Ang):
   XX=           -130.1359   YY=           -107.1366   ZZ=           -124.1222
   XY=              0.7829   XZ=              0.0002   YZ=             -0.0001
 Traceless Quadrupole moment (field-independent basis, Debye-Ang):
   XX=             -9.6710   YY=             13.3283   ZZ=             -3.6573
   XY=              0.7829   XZ=              0.0002   YZ=             -0.0001
 Octapole moment (field-independent basis, Debye-Ang**2):
  XXX=           -113.1011  YYY=            -10.8307  ZZZ=             -0.0010  XYY=            -12.7230
  XXY=             -3.1034  XXZ=             -0.0027  XZZ=            -22.4162  YZZ=            -12.5807
  YYZ=             -0.0005  XYZ=              0.0001
 Hexadecapole moment (field-independent basis, Debye-Ang**3):
 XXXX=         -10076.8831 YYYY=           -759.8439 ZZZZ=           -151.6451 XXXY=             36.6098
 XXXZ=              0.0027 YYYX=             -2.2093 YYYZ=             -0.0004 ZZZX=              0.0016
 ZZZY=             -0.0002 XXYY=          -1776.2416 XXZZ=          -1788.8016 YYZZ=           -171.5074
 XXYZ=              0.0001 YYXZ=              0.0009 ZZXY=             -5.2667
 N-N= 1.305672081297D+03 E-N=-1.055054646077D+04  KE= 3.178894482699D+03
   1 Symmetry operations used in ECPInt.
 ECPInt:  NShTT=    7750 NPrTT=   31390 LenC2=    7109 LenP2D=   20418.
 LDataN:  DoStor=T MaxTD1= 7 Len=  274
 Calling FoFJK, ICntrl=      2127 FMM=F ISym2X=0 I1Cent= 0 IOpClX= 0 NMat=1 NMatS=1 NMatT=0.
 Defaulting to unpruned grid for atomic number  53.
 Defaulting to unpruned grid for atomic number  53.
 Defaulting to unpruned grid for atomic number  53.
 Defaulting to unpruned grid for atomic number  53.
 Defaulting to unpruned grid for atomic number  53.
 Defaulting to unpruned grid for atomic number  53.
 Defaulting to unpruned grid for atomic number  53.
 Defaulting to unpruned grid for atomic number  53.
 Defaulting to unpruned grid for atomic number  53.
 Defaulting to unpruned grid for atomic number  53.
 Defaulting to unpruned grid for atomic number  53.
 Defaulting to unpruned grid for atomic number  53.
 Defaulting to unpruned grid for atomic number  53.
 Defaulting to unpruned grid for atomic number  53.
 Defaulting to unpruned grid for atomic number  53.
 Defaulting to unpruned grid for atomic number  53.
 Defaulting to unpruned grid for atomic number  53.
 Defaulting to unpruned grid for atomic number  53.
 Defaulting to unpruned grid for atomic number  53.
 Defaulting to unpruned grid for atomic number  53.
 Defaulting to unpruned grid for atomic number  53.
 Defaulting to unpruned grid for atomic number  53.
 Defaulting to unpruned grid for atomic number  53.
 Defaulting to unpruned grid for atomic number  53.
 ***** Axes restored to original set *****
 -------------------------------------------------------------------
 Center     Atomic                   Forces (Hartrees/Bohr)
 Number     Number              X              Y              Z
 -------------------------------------------------------------------
      1       35           0.007964333   -0.002232052    0.001694009
      2        6           0.008932020   -0.002369136    0.001808774
      3        6           0.008163729    0.005794367   -0.002679581
      4        6          -0.013068344    0.014161262   -0.008538221
      5        6          -0.007555938   -0.015681418    0.008145782
      6        6          -0.022850787    0.016360307   -0.010302477
      7        6          -0.004262740   -0.010084091    0.005279543
      8        6          -0.000456101   -0.002973181    0.001614713
      9        6           0.026250062    0.013057522   -0.005623742
     10        6           0.000575101   -0.010892397    0.006015541
     11        6          -0.011623290   -0.001302851    0.000023189
     12       53          -0.002021681   -0.000324229    0.000059625
     13        6          -0.007572267    0.007104199   -0.004346769
     14        6           0.016061836    0.011413828   -0.005303570
     15        6           0.003652893   -0.016550312    0.009292574
     16        1          -0.005615487   -0.003104681    0.001368849
     17        1           0.000212582   -0.005787316    0.003184769
     18        1          -0.002626057    0.005422906   -0.003126478
     19        1           0.000590507   -0.002600786   -0.007974346
     20        1          -0.000256284    0.005330603    0.006484938
     21        1           0.003256360    0.005384185   -0.002760580
     22        1           0.004061200   -0.004460821    0.002687824
     23        1          -0.001811649   -0.005665906    0.002995631
 -------------------------------------------------------------------
 Cartesian Forces:  Max     0.026250062 RMS     0.008208826

 GradGradGradGradGradGradGradGradGradGradGradGradGradGradGradGradGradGrad
 Berny optimization.
 FormGI is forming the generalized inverse of G from B-inverse, IUseBI=4.
 Internal  Forces:  Max     0.018673789 RMS     0.004478330
 Search for a local minimum.
 Step number   1 out of a maximum of  138
 All quantities printed in internal units (Hartrees-Bohrs-Radians)
 Mixed Optimization -- RFO/linear search
 Second derivative matrix not updated -- first step.
 ITU=  0
     Eigenvalues ---    0.01069   0.01481   0.01644   0.01882   0.01912
     Eigenvalues ---    0.01976   0.01978   0.01995   0.01999   0.02000
     Eigenvalues ---    0.02005   0.02057   0.02081   0.02083   0.02093
     Eigenvalues ---    0.02095   0.02101   0.02102   0.05481   0.07510
     Eigenvalues ---    0.08046   0.08852   0.13714   0.16000   0.16000
     Eigenvalues ---    0.16000   0.16000   0.16000   0.16000   0.17796
     Eigenvalues ---    0.22454   0.22456   0.23455   0.23530   0.23927
     Eigenvalues ---    0.24624   0.24715   0.25000   0.25000   0.25000
     Eigenvalues ---    0.31095   0.31326   0.32547   0.32549   0.35714
     Eigenvalues ---    0.35723   0.35728   0.35732   0.35743   0.35746
     Eigenvalues ---    0.37462   0.39750   0.41064   0.41491   0.41529
     Eigenvalues ---    0.44218   0.44503   0.44787   0.45741   0.45750
     Eigenvalues ---    0.45916   0.46224   0.47546
 RFO step:  Lambda=-7.96644432D-03 EMin= 1.06880705D-02
 Linear search not attempted -- first point.
 Iteration  1 RMS(Cart)=  0.02248035 RMS(Int)=  0.00019114
 Iteration  2 RMS(Cart)=  0.00022904 RMS(Int)=  0.00010792
 Iteration  3 RMS(Cart)=  0.00000002 RMS(Int)=  0.00010792
 Variable       Old X    -DE/DX   Delta X   Delta X   Delta X     New X
                                 (Linear)    (Quad)   (Total)
    R1        3.60839  -0.00844   0.00000  -0.04540  -0.04540   3.56298
    R2        2.66520  -0.00979   0.00000  -0.02422  -0.02420   2.64100
    R3        2.65731  -0.00997   0.00000  -0.02336  -0.02335   2.63395
    R4        2.65355  -0.01007   0.00000  -0.02293  -0.02293   2.63062
    R5        2.04517   0.00644   0.00000   0.01764   0.01764   2.06281
    R6        2.63603   0.00015   0.00000   0.00170   0.00169   2.63772
    R7        2.04480   0.00650   0.00000   0.01779   0.01779   2.06260
    R8        2.61279   0.01660   0.00000   0.03689   0.03683   2.64962
    R9        2.73389   0.01867   0.00000   0.05188   0.05172   2.78561
   R10        2.63729  -0.00435   0.00000  -0.00833  -0.00833   2.62895
   R11        2.83751   0.00932   0.00000   0.02407   0.02419   2.86170
   R12        2.04531   0.00665   0.00000   0.01822   0.01822   2.06353
   R13        2.83772   0.00947   0.00000   0.02445   0.02457   2.86230
   R14        2.09855  -0.00597   0.00000  -0.01792  -0.01792   2.08063
   R15        2.09851  -0.00596   0.00000  -0.01787  -0.01787   2.08063
   R16        2.63711  -0.00404   0.00000  -0.00767  -0.00767   2.62944
   R17        2.61272   0.01652   0.00000   0.03647   0.03642   2.64914
   R18        2.65702  -0.00802   0.00000  -0.01890  -0.01890   2.63812
   R19        2.04509   0.00686   0.00000   0.01878   0.01878   2.06387
   R20        3.98455  -0.00204   0.00000  -0.01408  -0.01408   3.97048
   R21        2.66490  -0.00786   0.00000  -0.01973  -0.01973   2.64517
   R22        2.65356  -0.00970   0.00000  -0.02212  -0.02211   2.63145
   R23        2.04502   0.00659   0.00000   0.01805   0.01805   2.06307
   R24        2.63605  -0.00018   0.00000   0.00086   0.00086   2.63691
   R25        2.04486   0.00657   0.00000   0.01797   0.01797   2.06283
    A1        2.09211  -0.00421   0.00000  -0.01329  -0.01330   2.07881
    A2        2.09124  -0.00353   0.00000  -0.01063  -0.01064   2.08060
    A3        2.09984   0.00774   0.00000   0.02392   0.02395   2.12378
    A4        2.10115  -0.00037   0.00000  -0.00749  -0.00746   2.09369
    A5        2.09502  -0.00109   0.00000  -0.00383  -0.00385   2.09117
    A6        2.08701   0.00146   0.00000   0.01132   0.01131   2.09832
    A7        2.06258   0.00271   0.00000   0.01351   0.01351   2.07610
    A8        2.10648  -0.00257   0.00000  -0.01401  -0.01402   2.09246
    A9        2.11413  -0.00013   0.00000   0.00050   0.00050   2.11463
   A10        2.12512  -0.00640   0.00000  -0.02189  -0.02187   2.10325
   A11        2.27019   0.00632   0.00000   0.01683   0.01688   2.28707
   A12        1.88788   0.00007   0.00000   0.00506   0.00498   1.89286
   A13        2.10741  -0.00136   0.00000   0.00257   0.00247   2.10988
   A14        1.94743  -0.00418   0.00000  -0.02255  -0.02237   1.92507
   A15        2.22834   0.00554   0.00000   0.01998   0.01990   2.24824
   A16        2.07027  -0.00233   0.00000  -0.01061  -0.01060   2.05967
   A17        2.10931  -0.00021   0.00000  -0.00287  -0.00287   2.10644
   A18        2.10360   0.00254   0.00000   0.01348   0.01347   2.11708
   A19        1.75414   0.00822   0.00000   0.03481   0.03462   1.78876
   A20        1.93677  -0.00095   0.00000   0.00758   0.00707   1.94384
   A21        1.93675  -0.00095   0.00000   0.00761   0.00710   1.94386
   A22        1.93674  -0.00094   0.00000   0.00780   0.00730   1.94403
   A23        1.93677  -0.00094   0.00000   0.00777   0.00727   1.94404
   A24        1.95365  -0.00335   0.00000  -0.05538  -0.05527   1.89838
   A25        2.22832   0.00547   0.00000   0.02012   0.02003   2.24834
   A26        1.94732  -0.00419   0.00000  -0.02261  -0.02243   1.92488
   A27        2.10755  -0.00128   0.00000   0.00249   0.00241   2.10996
   A28        2.07012  -0.00149   0.00000  -0.00683  -0.00683   2.06329
   A29        2.10399   0.00121   0.00000   0.00618   0.00618   2.11017
   A30        2.10908   0.00028   0.00000   0.00065   0.00065   2.10973
   A31        2.09098  -0.00260   0.00000  -0.00724  -0.00724   2.08374
   A32        2.10006   0.00573   0.00000   0.01656   0.01656   2.11662
   A33        2.09215  -0.00314   0.00000  -0.00932  -0.00932   2.08283
   A34        2.10109   0.00048   0.00000  -0.00361  -0.00360   2.09749
   A35        2.09477  -0.00061   0.00000  -0.00036  -0.00037   2.09440
   A36        2.08732   0.00012   0.00000   0.00398   0.00397   2.09129
   A37        2.06253   0.00279   0.00000   0.01335   0.01337   2.07590
   A38        2.10641  -0.00253   0.00000  -0.01340  -0.01341   2.09300
   A39        2.11424  -0.00027   0.00000   0.00005   0.00003   2.11428
   A40        1.88801   0.00008   0.00000   0.00529   0.00520   1.89321
   A41        2.27016   0.00616   0.00000   0.01667   0.01670   2.28686
   A42        2.12502  -0.00623   0.00000  -0.02196  -0.02190   2.10312
    D1       -3.14158  -0.00000   0.00000  -0.00001  -0.00001  -3.14159
    D2       -0.00010   0.00000   0.00000   0.00009   0.00009  -0.00001
    D3        0.00012  -0.00000   0.00000  -0.00013  -0.00013  -0.00001
    D4       -3.14158  -0.00000   0.00000  -0.00003  -0.00003   3.14158
    D5       -3.14155  -0.00000   0.00000  -0.00004  -0.00004   3.14159
    D6        0.00008  -0.00000   0.00000  -0.00007  -0.00007   0.00000
    D7       -0.00007   0.00000   0.00000   0.00008   0.00008   0.00001
    D8        3.14156   0.00000   0.00000   0.00005   0.00005  -3.14158
    D9       -0.00010   0.00000   0.00000   0.00011   0.00010   0.00000
   D10        3.14156   0.00000   0.00000   0.00004   0.00004  -3.14159
   D11       -3.14159   0.00000   0.00000   0.00001   0.00001  -3.14158
   D12        0.00007  -0.00000   0.00000  -0.00006  -0.00006   0.00001
   D13        0.00003  -0.00000   0.00000  -0.00003  -0.00003  -0.00000
   D14       -3.14155  -0.00000   0.00000  -0.00005  -0.00005   3.14158
   D15        3.14156   0.00000   0.00000   0.00003   0.00003   3.14159
   D16       -0.00003   0.00000   0.00000   0.00001   0.00001  -0.00002
   D17        0.00002  -0.00000   0.00000  -0.00002  -0.00002   0.00000
   D18        3.14156   0.00000   0.00000   0.00002   0.00002   3.14158
   D19       -3.14158  -0.00000   0.00000  -0.00000  -0.00000  -3.14158
   D20       -0.00005   0.00000   0.00000   0.00004   0.00004  -0.00000
   D21       -3.14155  -0.00000   0.00000  -0.00003  -0.00003  -3.14158
   D22        0.00000   0.00000   0.00000   0.00001   0.00001   0.00002
   D23        0.00005  -0.00000   0.00000  -0.00005  -0.00005  -0.00000
   D24       -3.14158  -0.00000   0.00000  -0.00001  -0.00001  -3.14159
   D25       -0.00000  -0.00000   0.00000  -0.00000  -0.00000  -0.00001
   D26        3.14156   0.00000   0.00000   0.00003   0.00003   3.14158
   D27       -3.14152  -0.00000   0.00000  -0.00006  -0.00006  -3.14158
   D28        0.00004  -0.00000   0.00000  -0.00003  -0.00003   0.00001
   D29        0.00002  -0.00000   0.00000  -0.00002  -0.00002   0.00000
   D30       -2.04967  -0.00288   0.00000  -0.03043  -0.03061  -2.08028
   D31        2.04975   0.00288   0.00000   0.03038   0.03056   2.08031
   D32        3.14155   0.00000   0.00000   0.00003   0.00003   3.14158
   D33        1.09186  -0.00288   0.00000  -0.03038  -0.03056   1.06129
   D34       -1.09191   0.00288   0.00000   0.03043   0.03061  -1.06130
   D35        3.14152   0.00000   0.00000   0.00005   0.00005   3.14157
   D36        0.00001  -0.00000   0.00000  -0.00002  -0.00002  -0.00000
   D37       -1.09195   0.00287   0.00000   0.03030   0.03049  -1.06146
   D38        2.04973   0.00287   0.00000   0.03023   0.03042   2.08015
   D39        1.09181  -0.00287   0.00000  -0.03023  -0.03041   1.06140
   D40       -2.04970  -0.00287   0.00000  -0.03030  -0.03048  -2.08018
   D41        3.14158   0.00000   0.00000   0.00002   0.00002  -3.14158
   D42        0.00008  -0.00000   0.00000  -0.00005  -0.00005   0.00002
   D43       -0.00011   0.00000   0.00000   0.00010   0.00010  -0.00001
   D44        3.14158   0.00000   0.00000   0.00002   0.00002  -3.14159
   D45       -0.00004   0.00000   0.00000   0.00005   0.00004   0.00000
   D46        3.14159   0.00000   0.00000   0.00001   0.00001  -3.14159
   D47       -3.14156  -0.00000   0.00000  -0.00002  -0.00002  -3.14157
   D48        0.00007  -0.00000   0.00000  -0.00006  -0.00006   0.00002
   D49       -3.14159  -0.00000   0.00000  -0.00001  -0.00001   3.14159
   D50        0.00007  -0.00000   0.00000  -0.00007  -0.00007  -0.00000
   D51       -0.00009   0.00000   0.00000   0.00007   0.00007  -0.00001
   D52        3.14157   0.00000   0.00000   0.00001   0.00001   3.14158
   D53       -0.00000   0.00000   0.00000   0.00000   0.00000   0.00000
   D54        3.14149   0.00000   0.00000   0.00009   0.00009   3.14158
   D55       -3.14153  -0.00000   0.00000  -0.00006  -0.00006  -3.14159
   D56       -0.00004   0.00000   0.00000   0.00003   0.00003  -0.00001
   D57       -0.00003   0.00000   0.00000   0.00004   0.00004   0.00001
   D58       -3.14158  -0.00000   0.00000  -0.00001  -0.00001  -3.14159
   D59       -3.14152  -0.00000   0.00000  -0.00005  -0.00005  -3.14157
   D60        0.00012  -0.00000   0.00000  -0.00010  -0.00010   0.00002
   D61       -3.14155  -0.00000   0.00000  -0.00006  -0.00006   3.14158
   D62       -0.00000  -0.00000   0.00000  -0.00001  -0.00001  -0.00001
   D63       -0.00001  -0.00000   0.00000  -0.00001  -0.00001  -0.00002
   D64        3.14154   0.00000   0.00000   0.00004   0.00004   3.14158
         Item               Value     Threshold  Converged?
 Maximum Force            0.018674     0.000450     NO 
 RMS     Force            0.004478     0.000300     NO 
 Maximum Displacement     0.091969     0.001800     NO 
 RMS     Displacement     0.022515     0.001200     NO 
 Predicted change in Energy=-4.122978D-03
 GradGradGradGradGradGradGradGradGradGradGradGradGradGradGradGradGradGrad

                          Input orientation:                          
 ---------------------------------------------------------------------
 Center     Atomic      Atomic             Coordinates (Angstroms)
 Number     Number       Type             X           Y           Z
 ---------------------------------------------------------------------
      1         35           0       -5.210885    0.781295   -0.514422
      2          6           0       -3.417768    0.321166   -0.156746
      3          6           0       -3.143383   -0.873718    0.514166
      4          6           0       -1.825948   -1.230861    0.787412
      5          6           0       -0.797008   -0.379507    0.381462
      6          6           0       -1.086209    0.816419   -0.290888
      7          6           0       -2.400100    1.180385   -0.567663
      8          6           0        0.193272    1.556188   -0.620923
      9          6           0        1.257366    0.638516   -0.055430
     10          6           0        2.639630    0.797915   -0.061422
     11          6           0        3.421312   -0.196441    0.529455
     12         53           0        5.512508    0.006831    0.541145
     13          6           0        2.838857   -1.326804    1.114576
     14          6           0        1.454734   -1.479309    1.116679
     15          6           0        0.665553   -0.490314    0.528286
     16          1           0       -3.964206   -1.524044    0.822221
     17          1           0       -1.612968   -2.164321    1.311451
     18          1           0       -2.633002    2.110143   -1.090840
     19          1           0        0.219905    2.546181   -0.139823
     20          1           0        0.312217    1.687100   -1.707646
     21          1           0        3.100907    1.677274   -0.516117
     22          1           0        3.470055   -2.091807    1.570905
     23          1           0        1.004959   -2.362486    1.574163
 ---------------------------------------------------------------------
                    Distance matrix (angstroms):
                    1          2          3          4          5
     1  Br   0.000000
     2  C    1.885449   0.000000
     3  C    2.841061   1.397555   0.000000
     4  C    4.147450   2.415391   1.392066   0.000000
     5  C    4.651063   2.765682   2.401526   1.395821   0.000000
     6  C    4.130878   2.387350   2.781481   2.429259   1.402117
     7  C    2.839475   1.393828   2.437655   2.824887   2.429816
     8  C    5.460468   3.844522   4.280903   3.718641   2.394232
     9  C    6.486087   4.686988   4.688057   3.702942   2.334031
    10  C    7.863592   6.076879   6.047222   4.977734   3.659638
    11  C    8.749884   6.892881   6.599557   5.354466   4.224883
    12  I   10.803017   8.963019   8.700606   7.446171   6.323350
    13  C    8.479155   6.593742   6.029343   4.677248   3.828099
    14  C    7.225047   5.348327   4.676798   3.306511   2.611599
    15  C    6.102193   4.219157   3.828210   2.612113   1.474083
    16  H    2.942008   2.159114   1.091592   2.158545   3.396377
    17  H    4.995546   3.404490   2.154876   1.091479   2.171688
    18  H    2.956954   2.165371   3.426363   3.916819   3.425917
    19  H    5.722642   4.264229   4.840983   4.394465   3.140939
    20  H    5.722668   4.264254   4.841013   4.394492   3.140959
    21  H    8.359945   6.667932   6.823504   5.867737   4.497749
    22  H    9.378808   7.499955   6.807202   5.422429   4.749166
    23  H    7.272019   5.455140   4.533074   3.148585   2.932886
                    6          7          8          9         10
     6  C    0.000000
     7  C    1.391182   0.000000
     8  C    1.514348   2.621000   0.000000
     9  C    2.362082   3.732702   1.514662   0.000000
    10  C    3.732944   5.079513   2.621582   1.391438   0.000000
    11  C    4.692184   6.081789   3.849068   2.392051   1.396032
    12  I    6.700058   8.075646   5.660847   4.342945   3.040120
    13  C    4.687737   6.046702   4.280505   2.780740   2.436616
    14  C    3.702432   4.977020   3.718170   2.428575   2.824473
    15  C    2.333938   3.659313   2.394139   1.401865   2.429871
    16  H    3.872938   3.419377   5.371696   5.719419   7.055705
    17  H    3.424876   3.916338   4.564949   4.238287   5.361363
    18  H    2.169381   1.091974   2.918134   4.286341   5.530126
    19  H    2.172747   2.985444   1.101024   2.173161   2.986243
    20  H    2.172760   2.985463   1.101023   2.173166   2.986228
    21  H    4.280624   5.523644   2.912043   2.165617   1.092152
    22  H    5.716957   7.052620   5.371153   3.872419   3.421197
    23  H    4.237550   5.360390   4.564345   3.424222   3.916047
                   11         12         13         14         15
    11  C    0.000000
    12  I    2.101085   0.000000
    13  C    1.399765   3.042337   0.000000
    14  C    2.420333   4.359517   1.392501   0.000000
    15  C    2.771384   4.872401   2.401396   1.395393   0.000000
    16  H    7.509602   9.603682   6.812198   5.427119   4.752859
    17  H    5.461506   7.488637   4.534197   3.149281   2.933821
    18  H    6.678353   8.569518   6.827716   5.870851   4.501601
    19  H    4.268362   5.909625   4.840707   4.394106   3.140903
    20  H    4.268351   5.909602   4.840709   4.394121   3.140919
    21  H    2.169491   3.118333   3.428166   3.916622   3.423473
    22  H    2.163194   3.104239   1.091731   2.154761   3.393680
    23  H    3.409095   5.196036   2.155699   1.091600   2.171193
                   16         17         18         19         20
    16  H    0.000000
    17  H    2.485482   0.000000
    18  H    4.317317   5.008245   0.000000
    19  H    5.915999   5.258750   3.038690   0.000000
    20  H    5.916035   5.258777   3.038706   1.790142   0.000000
    21  H    7.871177   6.349684   5.778875   3.032618   3.032595
    22  H    7.493405   5.090157   7.873283   5.916164   5.916163
    23  H    5.095194   2.638527   6.351489   5.258238   5.258261
                   21         22         23
    21  H    0.000000
    22  H    4.324108   0.000000
    23  H    5.008187   2.479915   0.000000
 Stoichiometry    C13H8BrI
 Framework group  C1[X(C13H8BrI)]
 Deg. of freedom    63
 Full point group                 C1      NOp   1
 Largest Abelian subgroup         C1      NOp   1
 Largest concise Abelian subgroup C1      NOp   1
                         Standard orientation:                         
 ---------------------------------------------------------------------
 Center     Atomic      Atomic             Coordinates (Angstroms)
 Number     Number       Type             X           Y           Z
 ---------------------------------------------------------------------
      1         35           0        5.903155   -0.308975   -0.000004
      2          6           0        4.058869    0.082848   -0.000007
      3          6           0        3.647639    1.418531   -0.000002
      4          6           0        2.290421    1.728055   -0.000004
      5          6           0        1.360088    0.687480   -0.000005
      6          6           0        1.786238   -0.648308   -0.000005
      7          6           0        3.140700   -0.965829   -0.000003
      8          6           0        0.592787   -1.580470    0.000014
      9          6           0       -0.575632   -0.616625    0.000019
     10          6           0       -1.938358   -0.897830    0.000013
     11          6           0       -2.833416    0.173513    0.000007
     12         53           0       -4.899399   -0.208944   -0.000006
     13          6           0       -2.381177    1.498209    0.000010
     14          6           0       -1.015802    1.771728    0.000015
     15          6           0       -0.113866    0.707006    0.000011
     16          1           0        4.393107    2.215934    0.000009
     17          1           0        1.970536    2.771606   -0.000005
     18          1           0        3.480062   -2.003731    0.000005
     19          1           0        0.584377   -2.221569    0.895097
     20          1           0        0.584350   -2.221602   -0.895046
     21          1           0       -2.298329   -1.928955    0.000024
     22          1           0       -3.099572    2.320270   -0.000007
     23          1           0       -0.667763    2.806358    0.000021
 ---------------------------------------------------------------------
 Rotational constants (GHZ):           1.9786154           0.0757596           0.0729998
 Standard basis: def2SVP (5D, 7F)
 There are   298 symmetry adapted cartesian basis functions of A   symmetry.
 There are   280 symmetry adapted basis functions of A   symmetry.
   280 basis functions,   528 primitive gaussians,   298 cartesian basis functions
    73 alpha electrons       73 beta electrons
       nuclear repulsion energy      1307.1758095264 Hartrees.
 NAtoms=   23 NActive=   23 NUniq=   23 SFac= 1.00D+00 NAtFMM=   60 NAOKFM=F Big=F
 Integral buffers will be    131072 words long.
 Raffenetti 2 integral format.
 Two-electron integral symmetry is turned on.
 Nuclear repulsion after empirical dispersion term =     1307.1599540024 Hartrees.
 One-electron integrals computed using PRISM.
   1 Symmetry operations used in ECPInt.
 ECPInt:  NShTT=    7750 NPrTT=   31390 LenC2=    7111 LenP2D=   20420.
 LDataN:  DoStor=T MaxTD1= 6 Len=  172
 NBasis=   280 RedAO= T EigKep=  2.41D-04  NBF=   280
 NBsUse=   280 1.00D-06 EigRej= -1.00D+00 NBFU=   280
 Defaulting to unpruned grid for atomic number  53.
 Initial guess from the checkpoint file:  "/home/rpaton/opt/dzvp/Gau-2239942.chk"
 B after Tr=     0.000000    0.000000    0.000000
         Rot=    1.000000   -0.000000   -0.000000    0.000076 Ang=   0.01 deg.
 ExpMin= 1.11D-01 ExpMax= 1.13D+05 ExpMxC= 1.70D+04 IAcc=3 IRadAn=         5 AccDes= 0.00D+00
 Harris functional with IExCor= 4639 and IRadAn=       5 diagonalized for initial guess.
 HarFok:  IExCor= 4639 AccDes= 0.00D+00 IRadAn=         5 IDoV= 1 UseB2=F ITyADJ=14
 ICtDFT=  3500011 ScaDFX=  1.000000  1.000000  1.000000  1.000000
 Defaulting to unpruned grid for atomic number  53.
 FoFCou: FMM=F IPFlag=           0 FMFlag=      100000 FMFlg1=           0
         NFxFlg=           0 DoJE=T BraDBF=F KetDBF=T FulRan=T
         wScrn=  0.000000 ICntrl=       500 IOpCl=  0 I1Cent=   200000004 NGrid=           0
         NMat0=    1 NMatS0=      1 NMatT0=    0 NMatD0=    1 NMtDS0=    0 NMtDT0=    0
 Petite list used in FoFCou.
 Requested convergence on RMS density matrix=1.00D-08 within 128 cycles.
 Requested convergence on MAX density matrix=1.00D-06.
 Requested convergence on             energy=1.00D-06.
 No special actions if energy rises.
 Integral accuracy reduced to 1.0D-05 until final iterations.
 Defaulting to unpruned grid for atomic number  53.
 Defaulting to unpruned grid for atomic number  53.
 Defaulting to unpruned grid for atomic number  53.
 Defaulting to unpruned grid for atomic number  53.
 Defaulting to unpruned grid for atomic number  53.
 Defaulting to unpruned grid for atomic number  53.
 Defaulting to unpruned grid for atomic number  53.
 Defaulting to unpruned grid for atomic number  53.
 Defaulting to unpruned grid for atomic number  53.
 Defaulting to unpruned grid for atomic number  53.
 Defaulting to unpruned grid for atomic number  53.
 Defaulting to unpruned grid for atomic number  53.
 Defaulting to unpruned grid for atomic number  53.
 Defaulting to unpruned grid for atomic number  53.
 Defaulting to unpruned grid for atomic number  53.
 Defaulting to unpruned grid for atomic number  53.
 Defaulting to unpruned grid for atomic number  53.
 Defaulting to unpruned grid for atomic number  53.
 Defaulting to unpruned grid for atomic number  53.
 Defaulting to unpruned grid for atomic number  53.
 Defaulting to unpruned grid for atomic number  53.
 Defaulting to unpruned grid for atomic number  53.
 Defaulting to unpruned grid for atomic number  53.
 Defaulting to unpruned grid for atomic number  53.
 Initial convergence to 1.0D-05 achieved.  Increase integral accuracy.
 SCF Done:  E(RwB97XD) =  -3371.37206762     A.U. after   14 cycles
            NFock= 14  Conv=0.70D-08     -V/T= 2.0606
   1 Symmetry operations used in ECPInt.
 ECPInt:  NShTT=    7750 NPrTT=   31390 LenC2=    7111 LenP2D=   20420.
 LDataN:  DoStor=T MaxTD1= 7 Len=  274
 Calling FoFJK, ICntrl=      2127 FMM=F ISym2X=0 I1Cent= 0 IOpClX= 0 NMat=1 NMatS=1 NMatT=0.
 Defaulting to unpruned grid for atomic number  53.
 Defaulting to unpruned grid for atomic number  53.
 Defaulting to unpruned grid for atomic number  53.
 Defaulting to unpruned grid for atomic number  53.
 Defaulting to unpruned grid for atomic number  53.
 Defaulting to unpruned grid for atomic number  53.
 Defaulting to unpruned grid for atomic number  53.
 Defaulting to unpruned grid for atomic number  53.
 Defaulting to unpruned grid for atomic number  53.
 Defaulting to unpruned grid for atomic number  53.
 Defaulting to unpruned grid for atomic number  53.
 Defaulting to unpruned grid for atomic number  53.
 Defaulting to unpruned grid for atomic number  53.
 Defaulting to unpruned grid for atomic number  53.
 Defaulting to unpruned grid for atomic number  53.
 Defaulting to unpruned grid for atomic number  53.
 Defaulting to unpruned grid for atomic number  53.
 Defaulting to unpruned grid for atomic number  53.
 Defaulting to unpruned grid for atomic number  53.
 Defaulting to unpruned grid for atomic number  53.
 Defaulting to unpruned grid for atomic number  53.
 Defaulting to unpruned grid for atomic number  53.
 Defaulting to unpruned grid for atomic number  53.
 Defaulting to unpruned grid for atomic number  53.
 ***** Axes restored to original set *****
 -------------------------------------------------------------------
 Center     Atomic                   Forces (Hartrees/Bohr)
 Number     Number              X              Y              Z
 -------------------------------------------------------------------
      1       35          -0.003203416    0.000872278   -0.000666578
      2        6           0.000647265   -0.001036747    0.000607224
      3        6          -0.000717427   -0.001216726    0.000624294
      4        6           0.001569829    0.001684551   -0.000830906
      5        6           0.002231025   -0.003044718    0.001800642
      6        6           0.000801843    0.003060926   -0.001629573
      7        6           0.003029941    0.000435155   -0.000060796
      8        6          -0.000641949   -0.005417138    0.002931734
      9        6           0.000154627    0.003129373   -0.001707840
     10        6          -0.001741151    0.000356146   -0.000295852
     11        6          -0.001325759   -0.000996541    0.000468089
     12       53           0.001783108    0.000192939   -0.000000794
     13        6           0.001462604   -0.000570773    0.000397844
     14        6          -0.001050051    0.001882813   -0.001093658
     15        6          -0.003069449   -0.002649659    0.001271316
     16        1           0.000173014    0.000461976   -0.000243539
     17        1           0.000176631   -0.000240737    0.000142680
     18        1          -0.000150765   -0.000419871    0.000220921
     19        1           0.000280666    0.001490166   -0.001703993
     20        1           0.000198529    0.002249431   -0.000317210
     21        1          -0.000222451   -0.000246724    0.000121459
     22        1          -0.000252488    0.000236453   -0.000143527
     23        1          -0.000134178   -0.000212574    0.000108060
 -------------------------------------------------------------------
 Cartesian Forces:  Max     0.005417138 RMS     0.001521277

 GradGradGradGradGradGradGradGradGradGradGradGradGradGradGradGradGradGrad
 Berny optimization.
 Using GEDIIS/GDIIS optimizer.
 FormGI is forming the generalized inverse of G from B-inverse, IUseBI=4.
 Internal  Forces:  Max     0.003385067 RMS     0.000701064
 Search for a local minimum.
 Step number   2 out of a maximum of  138
 All quantities printed in internal units (Hartrees-Bohrs-Radians)
 Mixed Optimization -- En-DIIS/RFO-DIIS
 Update second derivatives using D2CorX and points    1    2
 DE= -3.86D-03 DEPred=-4.12D-03 R= 9.36D-01
 TightC=F SS=  1.41D+00  RLast= 1.80D-01 DXNew= 5.0454D-01 5.3966D-01
 Trust test= 9.36D-01 RLast= 1.80D-01 DXMaxT set to 5.05D-01
 ITU=  1  0
 Use linear search instead of GDIIS.
     Eigenvalues ---    0.01060   0.01479   0.01643   0.01878   0.01908
     Eigenvalues ---    0.01976   0.01978   0.01994   0.01999   0.02001
     Eigenvalues ---    0.02005   0.02053   0.02082   0.02083   0.02093
     Eigenvalues ---    0.02095   0.02101   0.02102   0.05155   0.06941
     Eigenvalues ---    0.08440   0.09242   0.13774   0.15964   0.16000
     Eigenvalues ---    0.16000   0.16000   0.16000   0.16010   0.18342
     Eigenvalues ---    0.22165   0.22450   0.23526   0.23692   0.24184
     Eigenvalues ---    0.24620   0.24697   0.25000   0.25000   0.25003
     Eigenvalues ---    0.31268   0.31393   0.32548   0.32687   0.35599
     Eigenvalues ---    0.35717   0.35726   0.35730   0.35744   0.35818
     Eigenvalues ---    0.39050   0.39767   0.41293   0.41515   0.41987
     Eigenvalues ---    0.44244   0.44787   0.45218   0.45569   0.45741
     Eigenvalues ---    0.45847   0.46240   0.47081
 RFO step:  Lambda=-2.76877761D-04 EMin= 1.06029763D-02
 Quartic linear search produced a step of -0.02479.
 Iteration  1 RMS(Cart)=  0.00334478 RMS(Int)=  0.00001624
 Iteration  2 RMS(Cart)=  0.00001517 RMS(Int)=  0.00000359
 Iteration  3 RMS(Cart)=  0.00000000 RMS(Int)=  0.00000359
 Variable       Old X    -DE/DX   Delta X   Delta X   Delta X     New X
                                 (Linear)    (Quad)   (Total)
    R1        3.56298   0.00339   0.00113   0.01597   0.01710   3.58008
    R2        2.64100   0.00066   0.00060   0.00025   0.00085   2.64185
    R3        2.63395   0.00197   0.00058   0.00309   0.00367   2.63763
    R4        2.63062   0.00091   0.00057   0.00074   0.00131   2.63193
    R5        2.06281  -0.00047  -0.00044  -0.00030  -0.00074   2.06207
    R6        2.63772  -0.00139  -0.00004  -0.00293  -0.00297   2.63475
    R7        2.06260   0.00031  -0.00044   0.00185   0.00141   2.06400
    R8        2.64962   0.00187  -0.00091   0.00578   0.00487   2.65449
    R9        2.78561  -0.00303  -0.00128  -0.00424  -0.00552   2.78009
   R10        2.62895  -0.00104   0.00021  -0.00270  -0.00249   2.62646
   R11        2.86170  -0.00172  -0.00060  -0.00434  -0.00493   2.85677
   R12        2.06353  -0.00043  -0.00045  -0.00016  -0.00061   2.06292
   R13        2.86230  -0.00177  -0.00061  -0.00444  -0.00505   2.85725
   R14        2.08063   0.00060   0.00044   0.00080   0.00124   2.08187
   R15        2.08063   0.00060   0.00044   0.00080   0.00124   2.08188
   R16        2.62944  -0.00121   0.00019  -0.00303  -0.00283   2.62660
   R17        2.64914   0.00183  -0.00090   0.00579   0.00489   2.65403
   R18        2.63812   0.00109   0.00047   0.00135   0.00182   2.63994
   R19        2.06387  -0.00034  -0.00047   0.00012  -0.00034   2.06353
   R20        3.97048   0.00179   0.00035   0.01194   0.01229   3.98277
   R21        2.64517  -0.00028   0.00049  -0.00165  -0.00116   2.64401
   R22        2.63145   0.00081   0.00055   0.00056   0.00111   2.63255
   R23        2.06307  -0.00037  -0.00045  -0.00001  -0.00045   2.06262
   R24        2.63691  -0.00132  -0.00002  -0.00275  -0.00277   2.63414
   R25        2.06283   0.00027  -0.00045   0.00174   0.00130   2.06412
[...]
 .00248554,-0.00042602,-0.00011155,0.00886796,0.00573005,-0.00057054,-0
 .00337768,0.00304048,-0.00065539,0.00073679,0.00056421,-0.00017982,-0.
 00181403,-0.00230878,0.00452841,-0.00979500,-0.03719846,0.02451723,0.0
 2169861,-0.01062602,0.00456677,-0.02547260,0.02049198,-0.00684585,-0.0
 0278992,-0.00106842,0.00220454,-0.05976730,-0.11727753,0.02507889,0.03
 512994,0.61316623,0.00006912,-0.00000295,0.00002270,0.00020412,-0.0000
 8810,0.00005036,-0.00031092,0.00033501,-0.00031209,0.00159590,0.000146
 83,-0.00034912,-0.00625098,0.00040908,0.00314411,0.00151419,-0.0007854
 9,0.00272679,-0.00048015,-0.00014941,0.00021052,0.00055195,0.00469151,
 0.00361190,0.00888554,0.02695227,-0.00564948,-0.01523152,0.00473292,-0
 .00811281,0.01224471,-0.01022603,0.01705918,0.00146530,0.00239676,0.00
 202736,0.01559225,0.02907873,-0.08010599,0.01361836,-0.25610388,0.2831
 5321,0.00091133,-0.00027787,0.00022623,-0.00175385,0.00267742,-0.00151
 770,0.00558116,-0.00540491,0.00290905,-0.02754490,-0.00359507,0.000138
 56,-0.24390323,0.01810921,-0.02022287,-0.02398209,0.02774371,-0.017097
 56,0.00218347,0.00040279,-0.00037775,0.00493606,0.00812817,-0.00453514
 ,-0.15005555,-0.09343952,0.04713372,-0.01597070,-0.02788682,0.01380086
 ,0.00066447,0.00769049,-0.00370858,-0.00094275,-0.00010766,0.00004020,
 -0.03966321,0.01802989,-0.01274693,-0.19353203,0.11129850,-0.06821256,
 0.68447172,0.00019158,0.00002738,-0.00019288,-0.00013195,-0.00026619,-
 0.00035222,-0.00233632,-0.00200467,0.00450941,-0.02022778,0.01011648,-
 0.00477898,0.00185051,-0.09421284,0.01396562,0.02874415,-0.00959642,0.
 01145076,-0.00074036,-0.00349797,0.00453159,0.00336049,-0.02364847,0.0
 1661578,-0.03045127,-0.23795203,0.08423847,-0.07340073,0.02286232,-0.0
 1182079,0.00462360,-0.06464780,0.03135492,-0.00018067,0.00035265,-0.00
 054550,0.06662552,0.04243924,-0.01437537,0.05938226,-0.23691042,0.0945
 2724,-0.05358970,0.60530595,-0.00003102,-0.00022051,-0.00022618,0.0000
 2174,-0.00018685,-0.00079113,0.00122756,0.00432878,0.00417592,0.009252
 68,-0.00379993,0.00619490,-0.01131364,0.01492265,-0.07776817,-0.017645
 84,0.01139190,0.00093179,0.00024864,0.00459889,0.00234606,-0.00192248,
 0.01689638,-0.00305839,0.01261847,0.08053077,-0.12433585,0.03874073,-0
 .00914174,0.01646449,-0.00202805,0.03153545,-0.02532314,0.00008021,-0.
 00054122,-0.00032219,-0.03937555,-0.01723581,0.01617494,-0.03976441,0.
 09758316,-0.12659440,0.05980504,-0.24314737,0.30408799,0.00081084,0.00
 083916,-0.00027325,0.00647777,0.00701888,-0.00362256,-0.22238415,-0.13
 361909,0.06233858,-0.01441571,-0.01827155,0.00891829,-0.00407977,0.002
 31308,-0.00194004,-0.00014579,0.00079171,-0.00039100,0.00054009,0.0015
 3752,-0.00113836,0.00000653,0.00002331,0.00001311,-0.00041549,0.000110
 42,-0.00006873,0.00000264,-0.00011656,0.00006717,0.00004168,0.00002075
 ,-0.00000893,-0.00003359,-0.00000219,-0.00000092,-0.00003468,0.0000253
 3,-0.00001390,-0.00002238,-0.00007526,0.00004010,0.00002924,-0.0009355
 0,0.00049179,0.23225771,-0.00023283,-0.00017201,-0.00121202,-0.0206031
 2,-0.01030441,0.00590231,-0.13180326,-0.15712526,0.05776277,0.00825178
 ,0.00889954,-0.00210735,0.00217884,0.00193882,0.00309103,0.00100666,-0
 .00041807,-0.00019027,0.00205463,-0.00213879,0.00434289,-0.00004294,-0
 .00006654,-0.00020344,0.00011713,-0.00006388,-0.00010920,0.00000140,0.
 00003371,-0.00004761,-0.00000173,0.00000380,-0.00000204,-0.00000292,0.
 00000009,0.00000110,-0.00000489,-0.00002533,-0.00000521,-0.00000627,0.
 00001163,-0.00000842,0.00013967,0.00043424,-0.00001978,0.13995837,0.16
 004955,0.00031416,-0.00114892,-0.00171080,0.01151333,0.00752826,-0.000
 76733,0.06134355,0.05765587,-0.06553560,-0.00561554,-0.00366862,0.0058
 4706,-0.00186648,0.00309893,0.00553772,-0.00050878,-0.00020292,-0.0007
 9220,-0.00142171,0.00431245,0.00311923,0.00004941,-0.00019955,-0.00032
 095,-0.00007241,-0.00010960,-0.00021995,0.00000253,-0.00005456,-0.0000
 2328,0.00000338,-0.00000072,0.00000085,-0.00000052,0.00000114,0.000001
 76,0.00000266,-0.00000343,-0.00003228,0.00000230,-0.00001249,0.0000039
 1,-0.00009736,-0.00008307,0.00042293,-0.06453074,-0.06540457,0.0576964
 3,-0.00081355,0.00079461,-0.00048657,-0.00396819,0.00064647,-0.0010270
 6,-0.00063530,0.02566575,-0.01435392,-0.07009845,0.04584333,-0.0269563
 4,0.01100120,-0.01933686,0.01098985,-0.00311727,-0.00265707,0.00086451
 ,-0.00110231,-0.00027977,0.00013920,0.00030155,-0.00082335,0.00047160,
 0.00022325,-0.00014084,0.00008749,0.00007678,0.00011135,-0.00006521,-0
 .00003034,0.00004913,-0.00002695,0.00004017,0.00002287,-0.00001135,-0.
 00010004,0.00024862,-0.00013815,-0.00000693,-0.00071478,0.00039379,0.0
 0056324,0.00082689,-0.00019327,0.00091193,-0.00009234,0.00037127,0.067
 48226,0.00008501,-0.00014032,0.00011227,0.00084210,0.00293425,0.002530
 50,-0.00187528,-0.00203380,0.00335549,0.04771459,-0.26444998,0.1263960
 3,0.00654922,-0.01014146,0.00830380,-0.00319509,0.00120166,0.00295129,
 -0.00040630,0.00018218,-0.00059646,0.00038879,-0.00049625,0.00026987,-
 0.00003341,-0.00020291,0.00013553,0.00009086,0.00006952,0.00004842,0.0
 0000291,0.00008076,-0.00006044,0.00000018,0.00001482,0.00000286,-0.000
 13501,0.00015243,-0.00012852,-0.00031183,-0.00010294,0.00001450,0.0011
 3361,-0.00051747,-0.00175985,0.00013944,-0.00057224,-0.00216371,-0.050
 43461,0.27417609,-0.00009773,0.00015404,-0.00003472,-0.00113425,0.0025
 1897,0.00601469,0.00073759,0.00497666,0.00160758,-0.02798171,0.1262859
 0,-0.10975862,-0.00319483,0.00678002,0.00040562,0.00115933,0.00298296,
 0.00536447,0.00020854,-0.00058901,-0.00052763,-0.00019262,0.00019852,-
 0.00016565,0.00002862,0.00012921,-0.00002109,-0.00005399,0.00004963,0.
 00011776,-0.00000162,-0.00005771,0.00000168,0.00000109,0.00000420,0.00
 001780,0.00007207,-0.00010594,-0.00000531,0.00017299,-0.00000921,-0.00
 002774,-0.00036135,-0.00177790,-0.00289789,0.00024427,-0.00217735,-0.0
 0332835,0.03009585,-0.13912475,0.10370752,0.00053252,-0.00065431,0.000
 53156,0.00728881,-0.01971520,0.01107079,-0.00332196,-0.00264775,0.0008
 9752,-0.00112504,-0.00032282,0.00015846,-0.00470859,0.00019075,-0.0008
 4521,0.00061556,0.02506947,-0.01396587,-0.07009726,0.05435038,-0.03165
 132,0.00148134,-0.00016693,0.00039346,0.00000574,0.00014928,-0.0000720
 8,0.00006163,-0.00011254,0.00006264,-0.00000644,0.00001155,-0.00000611
 ,-0.00000651,-0.00000888,0.00000471,-0.00001911,0.00007893,-0.00004592
 ,-0.00043266,-0.00017898,0.00008116,0.00014303,0.00126352,-0.00067760,
 0.00048476,-0.00098650,0.00055369,0.00006278,0.00007723,0.00002042,0.0
 6956049,0.00037352,0.00005601,-0.00132750,0.00754582,-0.01055701,0.007
 73235,-0.00337961,0.00093164,0.00262137,-0.00022049,0.00031597,-0.0006
 3097,0.00055812,0.00295797,0.00272683,-0.00076134,-0.00139022,0.003183
 15,0.05139261,-0.26381576,0.12657654,-0.00028191,-0.00048700,-0.001749
 24,0.00009987,-0.00011278,-0.00001963,-0.00002738,0.00003703,0.0000027
 8,-0.00001039,-0.00003542,0.00001320,0.00002144,0.00000207,-0.00000201
 ,0.00003734,0.00000502,0.00001386,0.00006283,0.00003725,-0.00009637,-0
 .00017881,-0.00016963,0.00002342,0.00026009,-0.00049586,0.00043048,0.0
 0003903,-0.00028390,-0.00039173,-0.05619701,0.27292807,-0.00003166,-0.
 00138800,-0.00164801,-0.00386728,0.00612764,-0.00084194,0.00129856,0.0
 0266444,0.00469493,0.00010238,-0.00063700,-0.00045675,-0.00104650,0.00
 270520,0.00633033,0.00018852,0.00470365,0.00193427,-0.03003058,0.12675
 068,-0.10956534,0.00045647,-0.00174247,-0.00266727,-0.00004501,-0.0000
 1672,-0.00015282,0.00001598,-0.00000224,0.00004720,0.00000591,0.000014
 49,-0.00001781,-0.00001190,-0.00000380,-0.00000253,-0.00002313,0.00001
 631,0.00001600,-0.00005134,-0.00011061,-0.00008778,0.00011274,0.000108
 32,-0.00016040,-0.00012940,0.00035710,0.00005851,0.00004135,-0.0003894
 8,-0.00078711,0.03339516,-0.13896046,0.10348251,-0.00000348,-0.0000118
 4,-0.00006807,0.00041867,0.00030481,0.00092207,-0.00031552,-0.00042776
 ,-0.00004049,0.00016028,0.00014793,0.00108178,-0.00314106,-0.00056782,
 0.00105725,0.00030937,-0.02526580,-0.01242766,0.00054125,0.00016918,0.
 00091900,-0.04404113,-0.00591085,-0.00348237,0.00139526,0.02121845,0.0
 1110078,0.00047564,-0.00007323,-0.00085350,0.00054499,-0.00035637,-0.0
 0062379,0.00000422,0.00000949,0.00004315,-0.00029227,0.00047160,-0.000
 04904,0.00034007,-0.00022173,-0.00077378,-0.00253560,0.00066937,-0.001
 52546,0.00001283,0.00001542,-0.00003004,-0.00017891,-0.00011126,0.0001
 6815,-0.00019059,0.00006689,-0.00067738,0.04669647,-0.00002739,0.00000
 228,-0.00002641,-0.00032830,-0.00028797,0.00078111,-0.00006122,0.00023
 257,-0.00023064,0.00002363,-0.00006827,0.00066923,-0.00103239,-0.00078
 648,-0.00029944,-0.00068853,-0.01013449,-0.00358375,0.00126111,0.00067
 314,0.00046251,-0.00573774,-0.26427935,-0.10938560,-0.00034535,-0.0136
 5174,-0.00530809,-0.00130140,0.00087207,0.00032647,0.00004211,-0.00025
 824,0.00093092,0.00002374,-0.00000706,-0.00002220,0.00018837,0.0001418
 1,-0.00020678,-0.00021793,-0.00001728,0.00079376,0.00133641,-0.0010656
 2,0.00012392,-0.00001483,-0.00004188,-0.00009572,-0.00008277,-0.000047
 68,0.00007592,-0.00018130,-0.00021274,-0.00046676,0.00668084,0.2847837
 5,0.00000558,0.00001210,0.00001179,-0.00008344,-0.00020299,-0.00012271
 ,-0.00019708,0.00009909,-0.00005868,0.00021736,0.00007268,-0.00063993,
 0.00032733,0.00087638,-0.00036179,-0.00009763,0.00812176,0.00274911,-0
 .00017629,-0.00021763,0.00056665,-0.00335839,-0.10742468,-0.09170253,0
 .00105754,0.01269706,0.00523010,0.00013795,-0.00027879,0.00042483,0.00
 018906,-0.00027652,-0.00023895,-0.00000585,0.00001102,0.00001578,0.000
 16286,0.00016289,-0.00002839,-0.00000428,0.00004883,-0.00085144,-0.000
 63375,0.00107788,-0.00072322,0.00000256,0.00003157,0.00003679,0.000051
 31,0.00004856,-0.00003402,-0.00016560,-0.00004542,0.00011020,0.0034916
 2,0.11332382,0.09736104,-0.00001095,0.00005121,0.00004479,0.00048928,-
 0.00062876,-0.00069656,-0.00035808,-0.00018711,0.00034068,0.00028166,-
 0.00079379,-0.00067157,-0.00306451,-0.00128271,-0.00037936,-0.00207835
 ,-0.00308563,0.02751862,0.00068001,-0.00070358,-0.00062788,-0.04712573
 ,-0.00323133,0.02924361,0.00354220,0.00225263,-0.02401408,0.00034450,0
 .00065905,0.00050844,0.00048505,0.00031720,0.00069867,0.00000922,-0.00
 003067,-0.00003114,-0.00024654,0.00030330,-0.00040378,0.00024173,0.000
 57775,0.00064308,-0.00260709,0.00158408,0.00001782,0.00001016,0.000035
 60,0.00000428,-0.00016669,-0.00020855,-0.00001438,-0.00027183,0.000594
 87,0.00030394,0.00020816,0.00007382,-0.00093053,0.04999012,-0.00002249
 ,0.00001702,0.00002093,-0.00003279,-0.00046711,-0.00033780,0.00011049,
 0.00008191,0.00003409,-0.00007964,-0.00085751,-0.00044711,-0.00102347,
 -0.00085404,0.00080622,-0.00138141,-0.00323447,0.01395514,0.00086172,0
 .00049382,-0.00029193,-0.00342017,-0.04351713,0.03437683,-0.00244737,-
 0.00357152,0.01777205,-0.00077564,0.00052653,-0.00054186,-0.00004423,-
 0.00052967,-0.00043230,0.00001512,0.00001351,0.00002455,-0.00005946,0.
 00005327,0.00007481,0.00000017,-0.00096725,-0.00054765,0.00110464,-0.0
 0122884,0.00099878,-0.00001945,0.00004409,0.00008468,-0.00009265,-0.00
 010910,0.00001025,-0.00000594,0.00027975,0.00026630,0.00316960,0.00450
 934,-0.02816733,0.00401153,0.04906692,0.00002004,-0.00001232,0.0000045
 2,0.00032927,0.00064848,-0.00001420,0.00013335,-0.00033472,0.00013454,
 -0.00013036,0.00011469,0.00002793,0.00046300,-0.00035752,-0.00037085,0
 .00078744,0.00070260,-0.00176300,-0.00098861,0.00023180,0.00060723,0.0
 2912825,0.03241691,-0.30938070,0.00042066,0.00131288,-0.00699695,0.000
 97612,0.00022014,0.00090153,-0.00013445,0.00077295,0.00009241,-0.00001
 504,-0.00001221,-0.00000980,-0.00026170,-0.00025682,0.00001444,0.00018
 798,0.00023104,0.00019688,-0.00097663,0.00003377,-0.00048854,0.0000184
 2,-0.00003759,-0.00004652,0.00002334,0.00002910,0.00001517,0.00025739,
 -0.00010507,-0.00030104,0.00141132,0.00262473,-0.01195969,-0.03132616,
 -0.03808400,0.32978449,-0.00001783,0.00001721,-0.00001018,-0.00000067,
 -0.00002487,0.00001400,-0.00004565,-0.00007201,0.00003508,-0.00038461,
 0.00026098,-0.00015687,-0.00014280,-0.00127456,0.00069853,-0.00005503,
 -0.00014897,0.00008750,0.00009186,0.00010535,-0.00005501,0.00158599,0.
 00017698,0.00020990,-0.00603883,-0.02530583,0.01323025,-0.10852485,-0.
 10098124,0.05121956,0.00901237,0.01559552,-0.00812118,0.00022310,0.001
 12280,-0.00049415,-0.00166184,0.00257036,-0.00188332,-0.00091631,0.000
 67369,-0.00037656,-0.00477587,0.00039702,-0.00096270,-0.00004127,0.000
 01226,-0.00001028,0.00002275,0.00000654,-0.00000223,-0.00003345,0.0000
 0251,-0.00000324,-0.00031150,0.00028715,0.00007220,-0.00024569,0.00003
 353,-0.00026420,0.11158227,-0.00003301,0.00000727,-0.00000878,0.000009
 39,-0.00003702,0.00001702,-0.00003083,0.00002569,-0.00000016,0.0000216
 8,0.00000899,-0.00008539,0.00016169,-0.00001914,-0.00005936,-0.0001080
 6,-0.00008260,-0.00004591,0.00002116,0.00001628,0.00001736,0.00033254,
 -0.00053217,-0.00167656,0.00077102,0.00205177,0.00153671,-0.09822582,-
 0.24058126,0.10488413,-0.01137324,-0.01182251,0.00679463,-0.00010959,-
 0.00012595,-0.00094261,0.00320759,0.00008780,0.00365071,0.00050727,0.0
 0022099,-0.00052446,0.00001626,0.00296006,0.00269890,-0.00000519,0.000
 00517,0.00000745,0.00000594,-0.00000255,0.00000156,0.00000313,0.000004
 69,-0.00000341,-0.00006064,-0.00023685,-0.00007791,-0.00048335,0.00035
 601,-0.00017324,0.10587642,0.24851672,0.00001735,-0.00000583,-0.000001
 00,-0.00000477,0.00001500,-0.00001547,0.00001252,-0.00000258,0.0000308
 7,-0.00002574,-0.00007131,-0.00011161,-0.00008848,-0.00014390,-0.00007
 119,0.00006508,-0.00004831,-0.00012447,-0.00000888,0.00002232,0.000032
 94,0.00012465,-0.00168572,-0.00269645,-0.00105893,0.00000178,0.0047100
 4,0.04970972,0.10472198,-0.09308092,0.00665672,0.00838205,-0.00240225,
 0.00018116,-0.00087007,-0.00134696,-0.00223250,0.00361318,0.00429425,-
 0.00028537,-0.00051466,-0.00052538,-0.00075408,0.00272129,0.00634806,-
 0.00000072,0.00000848,0.00001464,-0.00000189,0.00000159,-0.00000133,-0
 .00000357,-0.00000345,-0.00000019,0.00051236,-0.00050829,0.00025212,-0
 .00023053,0.00030803,-0.00040655,-0.05294652,-0.11600122,0.08589666,-0
 .00005320,0.00001200,-0.00000986,0.00004868,-0.00002679,0.00001754,-0.
 00003536,-0.00002009,0.00001080,0.00000402,0.00007582,-0.00004130,0.00
 024437,0.00098247,-0.00054403,-0.00045476,-0.00002519,0.00000309,0.000
 03455,0.00012313,-0.00006240,0.00002572,0.00000470,0.00002779,-0.00059
 984,-0.00076431,0.00043409,-0.00055271,-0.00265319,0.00107397,0.008783
 68,-0.01179276,0.00687566,0.00033538,-0.00107687,0.00071661,-0.1535140
 9,0.11938999,-0.07222864,-0.01118012,0.02203451,-0.01299230,-0.0052006
 8,-0.00178873,0.00023987,-0.00002150,0.00000440,-0.00000397,0.00000164
 ,-0.00002720,0.00001229,-0.00004193,0.00001042,-0.00000928,0.00000834,
 0.00002596,-0.00000385,0.00000940,0.00000713,-0.00001251,0.00062587,-0
 .00049599,0.00029246,0.16062376,0.00001328,-0.00000292,0.00000375,-0.0
 0000502,0.00000921,-0.00000536,0.00000866,-0.00002392,-0.00000381,0.00
 000800,-0.00000319,0.00000207,-0.00010650,0.00028801,0.00002268,-0.000
 03022,-0.00003959,-0.00012950,0.00000597,0.00001551,-0.00003644,0.0000
 7229,-0.00008652,-0.00021693,-0.00091749,-0.00011756,-0.00046047,-0.00
 307148,-0.00136999,0.00380343,0.01554082,-0.01201368,0.00846001,0.0001
 8171,-0.00031718,-0.00080960,0.11777913,-0.19659412,0.09391022,-0.0046
 9428,0.00660668,-0.00147486,-0.00162116,0.00256286,0.00254186,-0.00000
 085,0.00000212,0.00000153,-0.00000581,0.00000609,0.00002161,-0.0000062
 1,0.00000502,0.00000711,-0.00002522,-0.00004331,0.00002837,-0.00002624
 ,0.00004951,-0.00004158,0.00071581,-0.00053706,0.00048688,-0.12405790,
 0.20218502,-0.00001056,0.00000368,-0.00000013,0.00000562,-0.00000664,0
 .00000394,-0.00000496,-0.00000551,-0.00002909,-0.00000413,0.00000607,-
 0.00000383,0.00005268,0.00008677,0.00029639,0.00000584,-0.00012920,-0.
 00020152,0.00000180,-0.00002954,-0.00003533,-0.00000924,-0.00022091,-0
 .00036966,0.00051802,-0.00045146,-0.00058146,0.00130318,0.00382804,0.0
 0388006,-0.00810210,0.00685109,-0.00247510,0.00002696,-0.00088368,-0.0
 0132836,-0.07134599,0.09400505,-0.09357617,0.00165409,0.00009845,0.004
 46281,0.00014805,0.00253200,0.00599703,-0.00000109,0.00000184,0.000003
 93,0.00000056,0.00002035,0.00003504,-0.00000016,0.00000809,0.00001422,
 0.00001691,-0.00009807,0.00004389,0.00001306,0.00008983,-0.00005000,-0
 .00037156,0.00041555,0.00002500,0.07591700,-0.10397187,0.08721012,0.00
 004597,-0.00003366,0.00001971,-0.00003759,-0.00001392,0.00000764,-0.00
 012265,-0.00018463,0.00009796,0.00026240,0.00065614,-0.00034136,0.0001
 3566,-0.00056650,0.00054445,0.00023223,0.00005092,-0.00001667,0.000021
 99,-0.00011092,0.00005335,0.00036459,0.00064790,-0.00033187,-0.0016322
 7,0.00246078,-0.00185510,-0.00087206,0.00057339,-0.00031853,-0.0042510
 2,-0.00023496,-0.00055281,-0.00084851,-0.00050327,0.00022117,-0.006966
 33,-0.02559131,0.01336013,-0.10722223,-0.09445127,0.04772918,0.0129838
 5,0.01426403,-0.00730453,0.00000815,0.00000066,-0.00000273,-0.00046956
 ,-0.00029193,0.00011352,0.00001869,-0.00000840,0.00000569,-0.00010551,
 0.00007603,-0.00005869,-0.00011604,0.00009080,-0.00004689,0.00005200,-
 0.00000836,0.00006998,0.00090876,0.00024272,0.00018601,0.10760948,-0.0
 0000508,0.00002436,-0.00000020,0.00002354,0.00007547,-0.00006072,0.000
 20600,0.00016160,-0.00011376,0.00024637,-0.00025523,0.00012885,-0.0008
 5892,-0.00025141,-0.00201704,-0.00006147,-0.00022057,0.00013994,-0.000
 08914,0.00010323,0.00001936,-0.00057429,-0.00052978,0.00024066,0.00300
 113,0.00036967,0.00379656,0.00067724,0.00004666,-0.00042323,-0.0003521
 4,0.00300776,0.00234652,0.00006750,-0.00000537,0.00005026,0.00199129,0
 .00155032,0.00162168,-0.09623946,-0.24247094,0.10592899,-0.01170923,-0
 .01134280,0.00787819,0.00002240,0.00000149,0.00002707,0.00040687,0.000
 28279,0.00004415,-0.00000988,-0.00000018,-0.00000032,0.00010895,-0.000
 07599,0.00007928,0.00020069,-0.00015506,0.00007597,-0.00004665,-0.0002
 8434,-0.00042725,0.00005849,-0.00058101,-0.00214994,0.10293578,0.25054
 931,0.00000405,-0.00000189,0.00002581,-0.00001289,-0.00006293,-0.00000
 414,-0.00011609,-0.00013675,-0.00000003,-0.00011681,0.00015296,-0.0001
 3725,0.00070469,-0.00199983,-0.00270282,0.00004491,0.00014656,-0.00003
 624,0.00004142,0.00001808,0.00014067,0.00033785,0.00031259,-0.00018031
 ,-0.00215118,0.00376478,0.00478625,-0.00037544,-0.00042934,-0.00058530
 ,-0.00048860,0.00235343,0.00600953,-0.00009159,0.00001666,0.00006458,-
 0.00175406,-0.00000190,0.00419368,0.04870902,0.10603424,-0.09405350,0.
 00692780,0.00940701,-0.00045464,-0.00001465,0.00002579,0.00003349,-0.0
 0026940,0.00000302,0.00030214,0.00000649,-0.00000023,0.00000082,-0.000
 17281,0.00011937,-0.00008093,-0.00001102,0.00002748,0.00000866,0.00009
 096,-0.00042500,-0.00082080,0.00028696,-0.00213910,-0.00332178,-0.0515
 7961,-0.11718502,0.08681212\\0.00002057,-0.00004355,0.00002511,0.00014
 440,0.00013285,-0.00006434,0.00007251,-0.00017549,0.00010043,-0.000137
 63,0.00015758,-0.00009441,0.00008440,-0.00004124,0.00002757,0.00005937
 ,-0.00013060,0.00007516,-0.00008613,-0.00004375,0.00001890,0.00001770,
 0.00018970,-0.00010312,-0.00011492,-0.00010104,0.00004859,0.00012061,-
 0.00007334,0.00004732,-0.00013768,0.00015568,-0.00009332,-0.00001964,-
 0.00002210,0.00001093,-0.00006570,-0.00012858,0.00006655,0.00016131,0.
 00012303,-0.00005803,-0.00009981,-0.00001226,0.00000093,-0.00004110,0.
 00003139,-0.00001965,0.00001822,-0.00003861,0.00002227,0.00002359,0.00
 000012,0.00000127,0.00000108,-0.00001665,-0.00003928,-0.00000322,0.000
 02421,0.00003515,-0.00003630,0.00001879,-0.00001249,0.00004547,0.00002
 160,-0.00000910,-0.00002708,-0.00002774,0.00001357\\\@
 The archive entry for this job was punched.


 THE PROMISED LAND ALWAYS LIES ON THE OTHER SIDE OF A WILDERNESS.

                         -- HAVELOCK ELLIS
 Job cpu time:       0 days  1 hours 17 minutes 36.1 seconds.
 Elapsed time:       0 days  0 hours  3 minutes 15.5 seconds.
 File lengths (MBytes):  RWF=    247 Int=      0 D2E=      0 Chk=      8 Scr=      1
 Normal termination of Gaussian 16 at Mon Sep 23 05:23:17 2024.
