 Entering Gaussian System, Link 0=/usr/local/Gaussian/G16C/g16/g16
 Input=arbr47_wb97xd.com
 Output=arbr47_wb97xd.log
 Initial command:
 /usr/local/Gaussian/G16C/g16/l1.exe "/home/rpaton/opt/dzvp/Gau-2325000.inp" -scrdir="/home/rpaton/opt/dzvp/"
 Entering Link 1 = /usr/local/Gaussian/G16C/g16/l1.exe PID=   2325001.
  
 Copyright (c) 1988-2019, Gaussian, Inc.  All Rights Reserved.
  
 This is part of the Gaussian(R) 16 program.  It is based on
 the Gaussian(R) 09 system (copyright 2009, Gaussian, Inc.),
 the Gaussian(R) 03 system (copyright 2003, Gaussian, Inc.),
 the Gaussian(R) 98 system (copyright 1998, Gaussian, Inc.),
 the Gaussian(R) 94 system (copyright 1995, Gaussian, Inc.),
 the Gaussian 92(TM) system (copyright 1992, Gaussian, Inc.),
 the Gaussian 90(TM) system (copyright 1990, Gaussian, Inc.),
 the Gaussian 88(TM) system (copyright 1988, Gaussian, Inc.),
 the Gaussian 86(TM) system (copyright 1986, Carnegie Mellon
 University), and the Gaussian 82(TM) system (copyright 1983,
 Carnegie Mellon University). Gaussian is a federally registered
 trademark of Gaussian, Inc.
  
 This software contains proprietary and confidential information,
 including trade secrets, belonging to Gaussian, Inc.
  
 This software is provided under written license and may be
 used, copied, transmitted, or stored only in accord with that
 written license.
  
 The following legend is applicable only to US Government
 contracts under FAR:
  
                    RESTRICTED RIGHTS LEGEND
  
 Use, reproduction and disclosure by the US Government is
 subject to restrictions as set forth in subparagraphs (a)
 and (c) of the Commercial Computer Software - Restricted
 Rights clause in FAR 52.227-19.
  
 Gaussian, Inc.
 340 Quinnipiac St., Bldg. 40, Wallingford CT 06492
  
  
 ---------------------------------------------------------------
 Warning -- This program may not be used in any manner that
 competes with the business of Gaussian, Inc. or will provide
 assistance to any competitor of Gaussian, Inc.  The licensee
 of this program is prohibited from giving any competitor of
 Gaussian, Inc. access to this program.  By using this program,
 the user acknowledges that Gaussian, Inc. is engaged in the
 business of creating and licensing software in the field of
 computational chemistry and represents and warrants to the
 licensee that it is not a competitor of Gaussian, Inc. and that
 it will not use this program in any manner prohibited above.
 ---------------------------------------------------------------
  

 Cite this work as:
 Gaussian 16, Revision C.01,
 M. J. Frisch, G. W. Trucks, H. B. Schlegel, G. E. Scuseria, 
 M. A. Robb, J. R. Cheeseman, G. Scalmani, V. Barone, 
 G. A. Petersson, H. Nakatsuji, X. Li, M. Caricato, A. V. Marenich, 
 J. Bloino, B. G. Janesko, R. Gomperts, B. Mennucci, H. P. Hratchian, 
 J. V. Ortiz, A. F. Izmaylov, J. L. Sonnenberg, D. Williams-Young, 
 F. Ding, F. Lipparini, F. Egidi, J. Goings, B. Peng, A. Petrone, 
 T. Henderson, D. Ranasinghe, V. G. Zakrzewski, J. Gao, N. Rega, 
 G. Zheng, W. Liang, M. Hada, M. Ehara, K. Toyota, R. Fukuda, 
 J. Hasegawa, M. Ishida, T. Nakajima, Y. Honda, O. Kitao, H. Nakai, 
 T. Vreven, K. Throssell, J. A. Montgomery, Jr., J. E. Peralta, 
 F. Ogliaro, M. J. Bearpark, J. J. Heyd, E. N. Brothers, K. N. Kudin, 
 V. N. Staroverov, T. A. Keith, R. Kobayashi, J. Normand, 
 K. Raghavachari, A. P. Rendell, J. C. Burant, S. S. Iyengar, 
 J. Tomasi, M. Cossi, J. M. Millam, M. Klene, C. Adamo, R. Cammi, 
 J. W. Ochterski, R. L. Martin, K. Morokuma, O. Farkas, 
 J. B. Foresman, and D. J. Fox, Gaussian, Inc., Wallingford CT, 2019.
 
 ******************************************
 Gaussian 16:  ES64L-G16RevC.01  3-Jul-2019
                23-Sep-2024 
 ******************************************
 %nprocshared=24
 Will use up to   24 processors via shared memory.
 %mem=96GB
 -------------------------
 # opt freq wb97xd/def2svp
 -------------------------
 1/18=20,19=15,26=3,38=1/1,3;
 2/9=110,12=2,17=6,18=5,40=1/2;
 3/5=43,7=101,11=2,25=1,30=1,71=1,74=-58/1,2,3;
 4//1;
 5/5=2,38=5/2;
 6/7=2,8=2,9=2,10=2,28=1/1;
 7//1,2,3,16;
 1/18=20,19=15,26=3/3(2);
 2/9=110/2;
 99//99;
 2/9=110/2;
 3/5=43,7=101,11=2,25=1,30=1,71=1,74=-58/1,2,3;
 4/5=5,16=3,69=1/1;
 5/5=2,38=5/2;
 7//1,2,3,16;
 1/18=20,19=15,26=3/3(-5);
 2/9=110/2;
 6/7=2,8=2,9=2,10=2,19=2,28=1/1;
 99/9=1/99;
 --------------------------
 arbr47_rdkit_conf_1_wb97xd
 --------------------------
 Symbolic Z-matrix:
 Charge =  0 Multiplicity = 1
 O                    -3.5967   -0.5784   -0.2191 
 C                    -2.4383   -0.2242    0.0026 
 C                    -2.0827    1.2009    0.3647 
 O                    -0.9061    1.6887   -0.2618 
 C                     0.1612    0.8367   -0.1928 
 C                     1.4195    1.423    -0.3391 
 C                     2.571     0.6368   -0.2903 
 C                     2.4558   -0.7384   -0.1059 
 Br                    4.0116   -1.8097   -0.0394 
 C                     1.1999   -1.3333    0.0218 
 C                     0.0376   -0.5471   -0.0275 
 C                    -1.3066   -1.2119    0.0645 
 H                    -2.909     1.8497    0.056 
 H                    -1.9821    1.279     1.4536 
 H                     1.5033    2.4971   -0.486 
 H                     3.5456    1.105    -0.3988 
 H                     1.1214   -2.4111    0.1496 
 H                    -1.3836   -1.7486    1.0162 
 H                    -1.4218   -1.9141   -0.7683 
 

 GradGradGradGradGradGradGradGradGradGradGradGradGradGradGradGradGradGrad
 Berny optimization.
 Initialization pass.
                           ----------------------------
                           !    Initial Parameters    !
                           ! (Angstroms and Degrees)  !
 --------------------------                            --------------------------
 ! Name  Definition              Value          Derivative Info.                !
 --------------------------------------------------------------------------------
 ! R1    R(1,2)                  1.2315         estimate D2E/DX2                !
 ! R2    R(2,3)                  1.5128         estimate D2E/DX2                !
 ! R3    R(2,12)                 1.5034         estimate D2E/DX2                !
 ! R4    R(3,4)                  1.4195         estimate D2E/DX2                !
 ! R5    R(3,13)                 1.095          estimate D2E/DX2                !
 ! R6    R(3,14)                 1.0963         estimate D2E/DX2                !
 ! R7    R(4,5)                  1.3674         estimate D2E/DX2                !
 ! R8    R(5,6)                  1.3959         estimate D2E/DX2                !
 ! R9    R(5,11)                 1.3991         estimate D2E/DX2                !
 ! R10   R(6,7)                  1.3952         estimate D2E/DX2                !
 ! R11   R(6,15)                 1.0873         estimate D2E/DX2                !
 ! R12   R(7,8)                  1.3923         estimate D2E/DX2                !
 ! R13   R(7,16)                 1.0867         estimate D2E/DX2                !
 ! R14   R(8,9)                  1.8901         estimate D2E/DX2                !
 ! R15   R(8,10)                 1.3955         estimate D2E/DX2                !
 ! R16   R(10,11)                1.4041         estimate D2E/DX2                !
 ! R17   R(10,17)                1.0882         estimate D2E/DX2                !
 ! R18   R(11,12)                1.5024         estimate D2E/DX2                !
 ! R19   R(12,18)                1.0953         estimate D2E/DX2                !
 ! R20   R(12,19)                1.0954         estimate D2E/DX2                !
 ! A1    A(1,2,3)              122.3553         estimate D2E/DX2                !
 ! A2    A(1,2,12)             121.7732         estimate D2E/DX2                !
 ! A3    A(3,2,12)             115.6014         estimate D2E/DX2                !
 ! A4    A(2,3,4)              114.3896         estimate D2E/DX2                !
 ! A5    A(2,3,13)             108.2589         estimate D2E/DX2                !
 ! A6    A(2,3,14)             109.0517         estimate D2E/DX2                !
 ! A7    A(4,3,13)             107.3051         estimate D2E/DX2                !
 ! A8    A(4,3,14)             109.7451         estimate D2E/DX2                !
 ! A9    A(13,3,14)            107.8813         estimate D2E/DX2                !
 ! A10   A(3,4,5)              114.2423         estimate D2E/DX2                !
 ! A11   A(4,5,6)              115.8875         estimate D2E/DX2                !
 ! A12   A(4,5,11)             123.5916         estimate D2E/DX2                !
 ! A13   A(6,5,11)             120.4938         estimate D2E/DX2                !
 ! A14   A(5,6,7)              120.242          estimate D2E/DX2                !
 ! A15   A(5,6,15)             119.9037         estimate D2E/DX2                !
 ! A16   A(7,6,15)             119.8533         estimate D2E/DX2                !
 ! A17   A(6,7,8)              119.5347         estimate D2E/DX2                !
 ! A18   A(6,7,16)             119.6007         estimate D2E/DX2                !
 ! A19   A(8,7,16)             120.8645         estimate D2E/DX2                !
 ! A20   A(7,8,9)              119.761          estimate D2E/DX2                !
 ! A21   A(7,8,10)             120.5069         estimate D2E/DX2                !
 ! A22   A(9,8,10)             119.7308         estimate D2E/DX2                !
 ! A23   A(8,10,11)            120.2028         estimate D2E/DX2                !
 ! A24   A(8,10,17)            119.8605         estimate D2E/DX2                !
 ! A25   A(11,10,17)           119.9337         estimate D2E/DX2                !
 ! A26   A(5,11,10)            119.0011         estimate D2E/DX2                !
 ! A27   A(5,11,12)            121.5952         estimate D2E/DX2                !
 ! A28   A(10,11,12)           119.3867         estimate D2E/DX2                !
 ! A29   A(2,12,11)            112.3502         estimate D2E/DX2                !
 ! A30   A(2,12,18)            107.7449         estimate D2E/DX2                !
 ! A31   A(2,12,19)            108.1007         estimate D2E/DX2                !
 ! A32   A(11,12,18)           109.4459         estimate D2E/DX2                !
 ! A33   A(11,12,19)           109.3408         estimate D2E/DX2                !
 ! A34   A(18,12,19)           109.821          estimate D2E/DX2                !
 ! D1    D(1,2,3,4)           -138.7151         estimate D2E/DX2                !
 ! D2    D(1,2,3,13)           -19.1434         estimate D2E/DX2                !
 ! D3    D(1,2,3,14)            97.9857         estimate D2E/DX2                !
 ! D4    D(12,2,3,4)            47.1606         estimate D2E/DX2                !
 ! D5    D(12,2,3,13)          166.7322         estimate D2E/DX2                !
 ! D6    D(12,2,3,14)          -76.1387         estimate D2E/DX2                !
 ! D7    D(1,2,12,11)          164.4831         estimate D2E/DX2                !
 ! D8    D(1,2,12,18)          -74.8857         estimate D2E/DX2                !
 ! D9    D(1,2,12,19)           43.7445         estimate D2E/DX2                !
 ! D10   D(3,2,12,11)          -21.3552         estimate D2E/DX2                !
 ! D11   D(3,2,12,18)           99.276          estimate D2E/DX2                !
 ! D12   D(3,2,12,19)         -142.0938         estimate D2E/DX2                !
 ! D13   D(2,3,4,5)            -47.507          estimate D2E/DX2                !
 ! D14   D(13,3,4,5)          -167.612          estimate D2E/DX2                !
 ! D15   D(14,3,4,5)            75.4179         estimate D2E/DX2                !
 ! D16   D(3,4,5,6)           -157.6231         estimate D2E/DX2                !
 ! D17   D(3,4,5,11)            24.266          estimate D2E/DX2                !
 ! D18   D(4,5,6,7)           -179.6894         estimate D2E/DX2                !
 ! D19   D(4,5,6,15)             0.659          estimate D2E/DX2                !
 ! D20   D(11,5,6,7)            -1.5156         estimate D2E/DX2                !
 ! D21   D(11,5,6,15)          178.8328         estimate D2E/DX2                !
 ! D22   D(4,5,11,10)          179.5699         estimate D2E/DX2                !
 ! D23   D(4,5,11,12)            1.0776         estimate D2E/DX2                !
 ! D24   D(6,5,11,10)            1.5423         estimate D2E/DX2                !
 ! D25   D(6,5,11,12)         -176.95           estimate D2E/DX2                !
 ! D26   D(5,6,7,8)              0.5385         estimate D2E/DX2                !
 ! D27   D(5,6,7,16)          -179.5944         estimate D2E/DX2                !
 ! D28   D(15,6,7,8)          -179.8097         estimate D2E/DX2                !
 ! D29   D(15,6,7,16)            0.0573         estimate D2E/DX2                !
 ! D30   D(6,7,8,9)            179.9788         estimate D2E/DX2                !
 ! D31   D(6,7,8,10)             0.3855         estimate D2E/DX2                !
 ! D32   D(16,7,8,9)             0.1135         estimate D2E/DX2                !
 ! D33   D(16,7,8,10)         -179.4799         estimate D2E/DX2                !
 ! D34   D(7,8,10,11)           -0.3421         estimate D2E/DX2                !
 ! D35   D(7,8,10,17)          179.0223         estimate D2E/DX2                !
 ! D36   D(9,8,10,11)         -179.9355         estimate D2E/DX2                !
 ! D37   D(9,8,10,17)           -0.5712         estimate D2E/DX2                !
 ! D38   D(8,10,11,5)           -0.6178         estimate D2E/DX2                !
 ! D39   D(8,10,11,12)         177.9084         estimate D2E/DX2                !
 ! D40   D(17,10,11,5)        -179.9817         estimate D2E/DX2                !
 ! D41   D(17,10,11,12)         -1.4555         estimate D2E/DX2                !
 ! D42   D(5,11,12,2)           -1.8062         estimate D2E/DX2                !
 ! D43   D(5,11,12,18)        -121.4515         estimate D2E/DX2                !
 ! D44   D(5,11,12,19)         118.2155         estimate D2E/DX2                !
 ! D45   D(10,11,12,2)         179.7072         estimate D2E/DX2                !
 ! D46   D(10,11,12,18)         60.0619         estimate D2E/DX2                !
 ! D47   D(10,11,12,19)        -60.2711         estimate D2E/DX2                !
 --------------------------------------------------------------------------------
 Trust Radius=3.00D-01 FncErr=1.00D-07 GrdErr=1.00D-06 EigMax=2.50D+02 EigMin=1.00D-04
 Number of steps in this run=    111 maximum allowed number of steps=    114.
 GradGradGradGradGradGradGradGradGradGradGradGradGradGradGradGradGradGrad

                          Input orientation:                          
 ---------------------------------------------------------------------
 Center     Atomic      Atomic             Coordinates (Angstroms)
 Number     Number       Type             X           Y           Z
 ---------------------------------------------------------------------
      1          8           0       -3.596700   -0.578400   -0.219100
      2          6           0       -2.438300   -0.224200    0.002600
      3          6           0       -2.082700    1.200900    0.364700
      4          8           0       -0.906100    1.688700   -0.261800
      5          6           0        0.161200    0.836700   -0.192800
      6          6           0        1.419500    1.423000   -0.339100
      7          6           0        2.571000    0.636800   -0.290300
      8          6           0        2.455800   -0.738400   -0.105900
      9         35           0        4.011600   -1.809700   -0.039400
     10          6           0        1.199900   -1.333300    0.021800
     11          6           0        0.037600   -0.547100   -0.027500
     12          6           0       -1.306600   -1.211900    0.064500
     13          1           0       -2.909000    1.849700    0.056000
     14          1           0       -1.982100    1.279000    1.453600
     15          1           0        1.503300    2.497100   -0.486000
     16          1           0        3.545600    1.105000   -0.398800
     17          1           0        1.121400   -2.411100    0.149600
     18          1           0       -1.383600   -1.748600    1.016200
     19          1           0       -1.421800   -1.914100   -0.768300
 ---------------------------------------------------------------------
                    Distance matrix (angstroms):
                    1          2          3          4          5
     1  O    0.000000
     2  C    1.231462   0.000000
     3  C    2.408096   1.512772   0.000000
     4  O    3.518649   2.465103   1.419450   0.000000
     5  C    4.015596   2.814443   2.340627   1.367404   0.000000
     6  C    5.402061   4.208640   3.579115   2.342005   1.395876
     7  C    6.286677   5.091188   4.733303   3.632841   2.420042
     8  C    6.055673   4.922234   4.957855   4.149396   2.784543
     9  Br   7.709385   6.642047   6.809369   6.039208   4.674671
    10  C    4.861613   3.803547   4.161155   3.694340   2.415337
    11  C    3.639482   2.497049   2.775788   2.438087   1.399108
    12  C    2.392971   1.503372   2.552265   2.946244   2.533259
    13  H    2.538559   2.127316   1.094993   2.034337   3.242560
    14  H    2.975700   2.138488   1.096323   2.065969   2.738612
    15  H    5.961538   4.814604   3.906817   2.551271   2.155024
    16  H    7.340203   6.142878   5.680659   4.491894   3.401262
    17  H    5.074958   4.180383   4.833122   4.592207   3.404031
    18  H    2.791621   2.112717   3.100442   3.698151   3.245283
    19  H    2.610729   2.117385   3.379897   3.674596   3.225522
                    6          7          8          9         10
     6  C    0.000000
     7  C    1.395150   0.000000
     8  C    2.408309   1.392282   0.000000
     9  Br   4.154414   2.850200   1.890137   0.000000
    10  C    2.788488   2.420458   1.395528   2.852430   0.000000
    11  C    2.426528   2.808701   2.427022   4.169769   1.404095
    12  C    3.812770   4.310378   3.795905   5.352701   2.509801
    13  H    4.367389   5.623295   5.958654   7.829113   5.197665
    14  H    3.847778   4.917756   5.118291   6.906052   4.358817
    15  H    1.087333   2.153833   3.394141   5.003953   3.875807
    16  H    2.150579   1.086659   2.161383   2.973517   3.409475
    17  H    3.876598   3.403608   2.154955   2.958151   1.088186
    18  H    4.444463   4.799577   4.125604   5.497837   2.799246
    19  H    4.403798   4.762145   4.105707   5.483068   2.799089
                   11         12         13         14         15
    11  C    0.000000
    12  C    1.502430   0.000000
    13  H    3.799220   3.455597   0.000000
    14  H    3.099595   2.930952   1.771476   0.000000
    15  H    3.409641   4.685645   4.492358   4.170591   0.000000
    16  H    3.895300   5.396899   6.513316   5.832421   2.473163
    17  H    2.163442   2.709337   5.865774   4.994894   4.963896
    18  H    2.133711   1.095312   4.024499   3.117031   5.349464
    19  H    2.132445   1.095405   4.130064   3.930224   5.300433
                   16         17         18         19
    16  H    0.000000
    17  H    4.305862   0.000000
    18  H    5.868754   2.732202   0.000000
    19  H    5.824651   2.749075   1.792565   0.000000
 Stoichiometry    C9H7BrO2
 Framework group  C1[X(C9H7BrO2)]
 Deg. of freedom    51
 Full point group                 C1      NOp   1
 Largest Abelian subgroup         C1      NOp   1
 Largest concise Abelian subgroup C1      NOp   1
                         Standard orientation:                         
 ---------------------------------------------------------------------
 Center     Atomic      Atomic             Coordinates (Angstroms)
 Number     Number       Type             X           Y           Z
 ---------------------------------------------------------------------
      1          8           0       -4.386546   -1.442081   -0.293370
      2          6           0       -3.386041   -0.779652   -0.016465
      3          6           0       -3.469571    0.658446    0.445461
      4          8           0       -2.483662    1.512242   -0.114766
      5          6           0       -1.213258    1.008447   -0.069403
      6          6           0       -0.182514    1.946939   -0.141997
      7          6           0        1.149122    1.531995   -0.110189
      8          6           0        1.442876    0.174257   -0.016874
      9         35           0        3.244725   -0.395054    0.026090
     10          6           0        0.417123   -0.770444    0.036687
     11          6           0       -0.924827   -0.358635    0.004071
     12          6           0       -2.014033   -1.393433    0.015046
     13          1           0       -4.447698    1.055820    0.154994
     14          1           0       -3.405974    0.687153    1.539560
     15          1           0       -0.417828    3.005785   -0.217925
     16          1           0        1.943275    2.271991   -0.160718
     17          1           0        0.658759   -1.829941    0.093479
     18          1           0       -1.937681   -1.993549    0.928140
     19          1           0       -1.909817   -2.039175   -0.863628
 ---------------------------------------------------------------------
 Rotational constants (GHZ):           2.0323273           0.2999339           0.2636997
 Standard basis: def2SVP (5D, 7F)
 There are   235 symmetry adapted cartesian basis functions of A   symmetry.
 There are   221 symmetry adapted basis functions of A   symmetry.
   221 basis functions,   404 primitive gaussians,   235 cartesian basis functions
    56 alpha electrons       56 beta electrons
       nuclear repulsion energy       903.4108364314 Hartrees.
 NAtoms=   19 NActive=   19 NUniq=   19 SFac= 1.00D+00 NAtFMM=   60 NAOKFM=F Big=F
 Integral buffers will be    131072 words long.
 Raffenetti 2 integral format.
 Two-electron integral symmetry is turned on.
 Nuclear repulsion after empirical dispersion term =      903.3998399348 Hartrees.
 One-electron integrals computed using PRISM.
   1 Symmetry operations used in ECPInt.
 ECPInt:  NShTT=    4950 NPrTT=   19707 LenC2=    4710 LenP2D=   13890.
 LDataN:  DoStor=T MaxTD1= 4 Len=   56
 NBasis=   221 RedAO= T EigKep=  2.35D-04  NBF=   221
 NBsUse=   221 1.00D-06 EigRej= -1.00D+00 NBFU=   221
 ExpMin= 1.22D-01 ExpMax= 1.13D+05 ExpMxC= 1.70D+04 IAcc=3 IRadAn=         5 AccDes= 0.00D+00
 Harris functional with IExCor= 4639 and IRadAn=       5 diagonalized for initial guess.
 HarFok:  IExCor= 4639 AccDes= 0.00D+00 IRadAn=         5 IDoV= 1 UseB2=F ITyADJ=14
 ICtDFT=  3500011 ScaDFX=  1.000000  1.000000  1.000000  1.000000
 FoFCou: FMM=F IPFlag=           0 FMFlag=      100000 FMFlg1=           0
         NFxFlg=           0 DoJE=T BraDBF=F KetDBF=T FulRan=T
         wScrn=  0.000000 ICntrl=       500 IOpCl=  0 I1Cent=   200000004 NGrid=           0
         NMat0=    1 NMatS0=      1 NMatT0=    0 NMatD0=    1 NMtDS0=    0 NMtDT0=    0
 Petite list used in FoFCou.
 Requested convergence on RMS density matrix=1.00D-08 within 128 cycles.
 Requested convergence on MAX density matrix=1.00D-06.
 Requested convergence on             energy=1.00D-06.
 No special actions if energy rises.
 Integral accuracy reduced to 1.0D-05 until final iterations.
 Initial convergence to 1.0D-05 achieved.  Increase integral accuracy.
 SCF Done:  E(RwB97XD) =  -3070.98428957     A.U. after   17 cycles
            NFock= 17  Conv=0.38D-08     -V/T= 2.0025

 **********************************************************************

            Population analysis using the SCF Density.

 **********************************************************************

 Orbital symmetries:
       Occupied  (A) (A) (A) (A) (A) (A) (A) (A) (A) (A) (A) (A)
                 (A) (A) (A) (A) (A) (A) (A) (A) (A) (A) (A) (A)
                 (A) (A) (A) (A) (A) (A) (A) (A) (A) (A) (A) (A)
                 (A) (A) (A) (A) (A) (A) (A) (A) (A) (A) (A) (A)
                 (A) (A) (A) (A) (A) (A) (A) (A)
       Virtual   (A) (A) (A) (A) (A) (A) (A) (A) (A) (A) (A) (A)
                 (A) (A) (A) (A) (A) (A) (A) (A) (A) (A) (A) (A)
                 (A) (A) (A) (A) (A) (A) (A) (A) (A) (A) (A) (A)
                 (A) (A) (A) (A) (A) (A) (A) (A) (A) (A) (A) (A)
                 (A) (A) (A) (A) (A) (A) (A) (A) (A) (A) (A) (A)
                 (A) (A) (A) (A) (A) (A) (A) (A) (A) (A) (A) (A)
                 (A) (A) (A) (A) (A) (A) (A) (A) (A) (A) (A) (A)
                 (A) (A) (A) (A) (A) (A) (A) (A) (A) (A) (A) (A)
                 (A) (A) (A) (A) (A) (A) (A) (A) (A) (A) (A) (A)
                 (A) (A) (A) (A) (A) (A) (A) (A) (A) (A) (A) (A)
                 (A) (A) (A) (A) (A) (A) (A) (A) (A) (A) (A) (A)
                 (A) (A) (A) (A) (A) (A) (A) (A) (A) (A) (A) (A)
                 (A) (A) (A) (A) (A) (A) (A) (A) (A) (A) (A) (A)
                 (A) (A) (A) (A) (A) (A) (A) (A) (A)
 The electronic state is 1-A.
 Alpha  occ. eigenvalues -- -483.06390 -62.64600 -56.45374 -56.45009 -56.45004
 Alpha  occ. eigenvalues --  -19.30857 -19.26858 -10.40924 -10.37951 -10.37495
 Alpha  occ. eigenvalues --  -10.36141 -10.33382 -10.33124 -10.32875 -10.32570
 Alpha  occ. eigenvalues --  -10.31969  -8.81558  -6.64121  -6.62780  -6.62768
 Alpha  occ. eigenvalues --   -2.74495  -2.74101  -2.74094  -2.73024  -2.73023
 Alpha  occ. eigenvalues --   -1.18588  -1.14184  -0.98523  -0.92391  -0.90677
 Alpha  occ. eigenvalues --   -0.85530  -0.83813  -0.78906  -0.72481  -0.71709
 Alpha  occ. eigenvalues --   -0.65027  -0.63485  -0.60840  -0.58979  -0.56438
 Alpha  occ. eigenvalues --   -0.55428  -0.54894  -0.54022  -0.52587  -0.51103
 Alpha  occ. eigenvalues --   -0.50120  -0.48158  -0.46522  -0.45698  -0.44209
 Alpha  occ. eigenvalues --   -0.43433  -0.38688  -0.37529  -0.35082  -0.34818
 Alpha  occ. eigenvalues --   -0.30795
 Alpha virt. eigenvalues --    0.02032   0.03662   0.05122   0.07987   0.13736
 Alpha virt. eigenvalues --    0.16414   0.16790   0.17436   0.19138   0.19879
 Alpha virt. eigenvalues --    0.21697   0.21967   0.24171   0.25779   0.27550
 Alpha virt. eigenvalues --    0.30933   0.32601   0.33525   0.35791   0.36190
 Alpha virt. eigenvalues --    0.38370   0.40060   0.41339   0.42544   0.46827
 Alpha virt. eigenvalues --    0.47335   0.50681   0.52228   0.52722   0.54009
 Alpha virt. eigenvalues --    0.55036   0.55119   0.55494   0.57387   0.57799
 Alpha virt. eigenvalues --    0.58387   0.59244   0.60594   0.61439   0.62331
 Alpha virt. eigenvalues --    0.63920   0.65505   0.67501   0.68854   0.69474
 Alpha virt. eigenvalues --    0.70309   0.70817   0.71318   0.72110   0.73001
 Alpha virt. eigenvalues --    0.73363   0.74347   0.75585   0.75891   0.76294
 Alpha virt. eigenvalues --    0.77131   0.79076   0.80793   0.81088   0.81778
 Alpha virt. eigenvalues --    0.84238   0.85738   0.88185   0.89660   0.91246
 Alpha virt. eigenvalues --    0.93451   0.95096   1.01084   1.06413   1.07127
 Alpha virt. eigenvalues --    1.08234   1.12675   1.14995   1.19020   1.20324
 Alpha virt. eigenvalues --    1.22277   1.24123   1.26838   1.27676   1.31465
 Alpha virt. eigenvalues --    1.32604   1.32725   1.36364   1.37927   1.44297
 Alpha virt. eigenvalues --    1.50451   1.51518   1.53170   1.57171   1.61031
 Alpha virt. eigenvalues --    1.61820   1.63658   1.67703   1.71333   1.72669
 Alpha virt. eigenvalues --    1.76353   1.79239   1.79989   1.80640   1.81705
 Alpha virt. eigenvalues --    1.82735   1.84043   1.85665   1.85947   1.88878
 Alpha virt. eigenvalues --    1.89701   1.91427   1.92109   1.94590   1.95464
 Alpha virt. eigenvalues --    1.96475   1.98172   2.01934   2.05347   2.07704
 Alpha virt. eigenvalues --    2.09028   2.13187   2.14856   2.17130   2.19564
 Alpha virt. eigenvalues --    2.21438   2.26000   2.26876   2.33419   2.33725
 Alpha virt. eigenvalues --    2.35612   2.36572   2.38131   2.39738   2.46165
 Alpha virt. eigenvalues --    2.47421   2.48774   2.50157   2.58738   2.60782
 Alpha virt. eigenvalues --    2.63245   2.68424   2.69575   2.70987   2.75840
 Alpha virt. eigenvalues --    2.76266   2.77735   2.84778   2.87411   2.91796
 Alpha virt. eigenvalues --    2.94921   2.96746   2.98525   3.00171   3.03017
 Alpha virt. eigenvalues --    3.07128   3.12302   3.17035   3.22494   3.23587
 Alpha virt. eigenvalues --    3.41513   3.44639   3.50788   3.52217   3.56035
 Alpha virt. eigenvalues --    3.60250   3.67741   3.72717   3.73754   3.92090
          Condensed to atoms (all electrons):
               1          2          3          4          5          6
     1  O    7.670292   0.691443  -0.070926   0.001038   0.000757   0.000001
     2  C    0.691443   4.814188   0.358348  -0.015544  -0.017622  -0.000029
     3  C   -0.070926   0.358348   4.715024   0.279110  -0.060557   0.002364
     4  O    0.001038  -0.015544   0.279110   7.893692   0.383034  -0.064768
     5  C    0.000757  -0.017622  -0.060557   0.383034   5.014013   0.337357
     6  C    0.000001  -0.000029   0.002364  -0.064768   0.337357   5.027517
     7  C   -0.000000   0.000029  -0.000018   0.003938   0.097289   0.336789
     8  C    0.000000  -0.000696  -0.000003   0.000115  -0.157085   0.081344
     9  Br  -0.000000   0.000000  -0.000000   0.000001   0.001052   0.002728
    10  C   -0.000140   0.006662   0.000157   0.003642   0.065051  -0.086591
    11  C    0.006632   0.001862   0.027975  -0.080173   0.252524   0.015256
    12  C   -0.100057   0.224642  -0.217780  -0.010822  -0.082721   0.011463
    13  H    0.008848  -0.006330   0.355376  -0.018366   0.004359  -0.000149
    14  H    0.002512  -0.023284   0.365214  -0.031203   0.003952   0.001043
    15  H   -0.000000   0.000090  -0.000101   0.000730  -0.066949   0.446676
    16  H    0.000000   0.000002   0.000005  -0.000072   0.013681  -0.051070
    17  H    0.000001   0.000816  -0.000021  -0.000057   0.012970  -0.001788
    18  H    0.001270  -0.001268   0.005155   0.000151   0.001986  -0.000477
    19  H    0.006174   0.005641   0.010921  -0.000070  -0.000055  -0.000438
               7          8          9         10         11         12
     1  O   -0.000000   0.000000  -0.000000  -0.000140   0.006632  -0.100057
     2  C    0.000029  -0.000696   0.000000   0.006662   0.001862   0.224642
     3  C   -0.000018  -0.000003  -0.000000   0.000157   0.027975  -0.217780
     4  O    0.003938   0.000115   0.000001   0.003642  -0.080173  -0.010822
     5  C    0.097289  -0.157085   0.001052   0.065051   0.252524  -0.082721
     6  C    0.336789   0.081344   0.002728  -0.086591   0.015256   0.011463
     7  C    5.013744   0.290729  -0.058624   0.047696  -0.124028  -0.000612
     8  C    0.290729   5.285762   0.220443   0.337921   0.079478   0.011588
     9  Br  -0.058624   0.220443  34.932892  -0.061531   0.003814  -0.000146
    10  C    0.047696   0.337921  -0.061531   4.989027   0.330950  -0.047748
    11  C   -0.124028   0.079478   0.003814   0.330950   5.566390   0.137658
    12  C   -0.000612   0.011588  -0.000146  -0.047748   0.137658   5.273002
    13  H    0.000006  -0.000001   0.000000   0.000107  -0.001070   0.014168
    14  H   -0.000108  -0.000011   0.000000  -0.000717  -0.000966   0.002783
    15  H   -0.068829   0.014666  -0.000137  -0.002787   0.019982  -0.000267
    16  H    0.440946  -0.064876  -0.000588   0.012493  -0.001632   0.000001
    17  H    0.012752  -0.059378   0.000619   0.438265  -0.052613  -0.014824
    18  H    0.000065   0.000323  -0.000006  -0.008379   0.000318   0.343435
    19  H    0.000085   0.000185  -0.000007  -0.006550  -0.001406   0.329828
              13         14         15         16         17         18
     1  O    0.008848   0.002512  -0.000000   0.000000   0.000001   0.001270
     2  C   -0.006330  -0.023284   0.000090   0.000002   0.000816  -0.001268
     3  C    0.355376   0.365214  -0.000101   0.000005  -0.000021   0.005155
     4  O   -0.018366  -0.031203   0.000730  -0.000072  -0.000057   0.000151
     5  C    0.004359   0.003952  -0.066949   0.013681   0.012970   0.001986
     6  C   -0.000149   0.001043   0.446676  -0.051070  -0.001788  -0.000477
     7  C    0.000006  -0.000108  -0.068829   0.440946   0.012752   0.000065
     8  C   -0.000001  -0.000011   0.014666  -0.064876  -0.059378   0.000323
     9  Br   0.000000   0.000000  -0.000137  -0.000588   0.000619  -0.000006
    10  C    0.000107  -0.000717  -0.002787   0.012493   0.438265  -0.008379
    11  C   -0.001070  -0.000966   0.019982  -0.001632  -0.052613   0.000318
    12  C    0.014168   0.002783  -0.000267   0.000001  -0.014824   0.343435
    13  H    0.594255  -0.015219  -0.000075  -0.000000  -0.000001  -0.000300
    14  H   -0.015219   0.632484   0.000011   0.000001  -0.000011  -0.000999
    15  H   -0.000075   0.000011   0.640837  -0.011885   0.000015   0.000006
    16  H   -0.000000   0.000001  -0.011885   0.633639  -0.000235  -0.000000
    17  H   -0.000001  -0.000011   0.000015  -0.000235   0.643518   0.002310
    18  H   -0.000300  -0.000999   0.000006  -0.000000   0.002310   0.569821
    19  H   -0.000494   0.000021   0.000011  -0.000000   0.002165  -0.002541
              19
     1  O    0.006174
     2  C    0.005641
     3  C    0.010921
     4  O   -0.000070
     5  C   -0.000055
     6  C   -0.000438
     7  C    0.000085
     8  C    0.000185
     9  Br  -0.000007
    10  C   -0.006550
    11  C   -0.001406
    12  C    0.329828
    13  H   -0.000494
    14  H    0.000021
    15  H    0.000011
    16  H   -0.000000
    17  H    0.002165
    18  H   -0.002541
    19  H    0.571526
 Mulliken charges:
               1
     1  O   -0.217844
     2  C   -0.038953
     3  C    0.229756
     4  O   -0.344373
     5  C    0.196964
     6  C   -0.057226
     7  C    0.008151
     8  C   -0.040506
     9  Br  -0.040509
    10  C   -0.017528
    11  C   -0.180951
    12  C    0.126410
    13  H    0.064886
    14  H    0.064496
    15  H    0.028006
    16  H    0.029592
    17  H    0.015498
    18  H    0.089130
    19  H    0.085005
 Sum of Mulliken charges =  -0.00000
 Mulliken charges with hydrogens summed into heavy atoms:
               1
     1  O   -0.217844
     2  C   -0.038953
     3  C    0.359138
     4  O   -0.344373
     5  C    0.196964
     6  C   -0.029221
     7  C    0.037743
     8  C   -0.040506
     9  Br  -0.040509
    10  C   -0.002030
    11  C   -0.180951
    12  C    0.300544
 Electronic spatial extent (au):  <R**2>=           3598.9766
 Charge=             -0.0000 electrons
 Dipole moment (field-independent basis, Debye):
    X=              0.2649    Y=              0.6490    Z=              1.2152  Tot=              1.4029
 Quadrupole moment (field-independent basis, Debye-Ang):
   XX=            -92.9732   YY=            -78.2106   ZZ=            -81.3142
   XY=             -4.3405   XZ=             -5.1662   YZ=             -0.6904
 Traceless Quadrupole moment (field-independent basis, Debye-Ang):
   XX=             -8.8072   YY=              5.9554   ZZ=              2.8518
   XY=             -4.3405   XZ=             -5.1662   YZ=             -0.6904
 Octapole moment (field-independent basis, Debye-Ang**2):
  XXX=            139.2533  YYY=             -6.2679  ZZZ=              1.6148  XYY=             44.5761
  XXY=             35.0528  XXZ=             19.4435  XZZ=             17.8438  YZZ=             -7.6299
  YYZ=              1.0579  XYZ=              1.1991
 Hexadecapole moment (field-independent basis, Debye-Ang**3):
 XXXX=          -3534.9484 YYYY=           -648.7264 ZZZZ=           -109.2707 XXXY=           -254.9985
 XXXZ=            -69.0290 YYYX=            -32.3858 YYYZ=             -5.8206 ZZZX=              2.1895
 ZZZY=              2.5864 XXYY=           -715.9779 XXZZ=           -551.0345 YYZZ=           -134.0609
 XXYZ=            -11.2979 YYXZ=             -7.2444 ZZXY=             -8.6810
 N-N= 9.033998399348D+02 E-N=-9.115797204828D+03  KE= 3.063368784358D+03
   1 Symmetry operations used in ECPInt.
 ECPInt:  NShTT=    4950 NPrTT=   19707 LenC2=    4710 LenP2D=   13890.
 LDataN:  DoStor=T MaxTD1= 5 Len=  102
 Calling FoFJK, ICntrl=      2127 FMM=F ISym2X=0 I1Cent= 0 IOpClX= 0 NMat=1 NMatS=1 NMatT=0.
 ***** Axes restored to original set *****
 -------------------------------------------------------------------
 Center     Atomic                   Forces (Hartrees/Bohr)
 Number     Number              X              Y              Z
 -------------------------------------------------------------------
      1        8           0.039663147    0.016664344    0.006837342
      2        6          -0.041562966   -0.018866647   -0.000902840
      3        6          -0.003533445    0.011078552   -0.012420307
      4        8          -0.002342355   -0.017567933    0.005212713
      5        6           0.000720047    0.010698975   -0.003874868
      6        6           0.009612621   -0.007869154    0.001552425
      7        6          -0.007461450    0.005259522   -0.001363529
      8        6          -0.004521313   -0.004205816    0.000687040
      9       35           0.000714955   -0.000685495    0.000159618
     10        6           0.003073399    0.010890260   -0.001125988
     11        6           0.008010720   -0.003342297    0.002468434
     12        6           0.004172165    0.009543824   -0.008294609
     13        1          -0.000638827    0.001365110   -0.000320612
     14        1           0.000838653   -0.002264095    0.007504727
     15        1          -0.002204452    0.002490107    0.000087882
     16        1           0.003089792    0.000365968   -0.000168470
     17        1          -0.001037159   -0.002460143    0.000419212
     18        1          -0.003319212   -0.005437955    0.002450500
     19        1          -0.003274321   -0.005657127    0.001091330
 -------------------------------------------------------------------
 Cartesian Forces:  Max     0.041562966 RMS     0.009907760

 GradGradGradGradGradGradGradGradGradGradGradGradGradGradGradGradGradGrad
 Berny optimization.
 FormGI is forming the generalized inverse of G from B-inverse, IUseBI=4.
 Internal  Forces:  Max     0.043334465 RMS     0.005054518
 Search for a local minimum.
 Step number   1 out of a maximum of  111
 All quantities printed in internal units (Hartrees-Bohrs-Radians)
 Mixed Optimization -- RFO/linear search
 Second derivative matrix not updated -- first step.
 ITU=  0
     Eigenvalues ---    0.00671   0.00830   0.01423   0.01519   0.01997
     Eigenvalues ---    0.02078   0.02099   0.02136   0.02148   0.02165
     Eigenvalues ---    0.02166   0.02176   0.04426   0.05611   0.06892
     Eigenvalues ---    0.07601   0.09878   0.10761   0.11957   0.12389
     Eigenvalues ---    0.15999   0.16000   0.16000   0.18741   0.20496
     Eigenvalues ---    0.22057   0.22514   0.23514   0.24383   0.24736
     Eigenvalues ---    0.24841   0.24999   0.30133   0.31206   0.31772
     Eigenvalues ---    0.34092   0.34195   0.34206   0.34242   0.35023
     Eigenvalues ---    0.35123   0.35202   0.40151   0.41571   0.41794
     Eigenvalues ---    0.45128   0.45871   0.46340   0.46666   0.50006
     Eigenvalues ---    0.90480
 RFO step:  Lambda=-5.83426710D-03 EMin= 6.71035798D-03
 Linear search not attempted -- first point.
 Iteration  1 RMS(Cart)=  0.02048439 RMS(Int)=  0.00058945
 Iteration  2 RMS(Cart)=  0.00056525 RMS(Int)=  0.00038302
 Iteration  3 RMS(Cart)=  0.00000025 RMS(Int)=  0.00038302
 Variable       Old X    -DE/DX   Delta X   Delta X   Delta X     New X
                                 (Linear)    (Quad)   (Total)
    R1        2.32713  -0.04333   0.00000  -0.04759  -0.04759   2.27954
    R2        2.85872  -0.00006   0.00000   0.00286   0.00288   2.86160
    R3        2.84096   0.00356   0.00000   0.01412   0.01402   2.85498
    R4        2.68237  -0.00477   0.00000  -0.00989  -0.00975   2.67262
    R5        2.06924   0.00138   0.00000   0.00397   0.00397   2.07320
    R6        2.07175   0.00737   0.00000   0.02126   0.02126   2.09300
    R7        2.58402  -0.00406   0.00000  -0.00975  -0.00965   2.57437
    R8        2.63782   0.00166   0.00000   0.00370   0.00369   2.64152
    R9        2.64393   0.00031   0.00000  -0.00229  -0.00232   2.64161
   R10        2.63645  -0.00580   0.00000  -0.01201  -0.01201   2.62445
   R11        2.05476   0.00228   0.00000   0.00638   0.00638   2.06114
   R12        2.63103   0.00220   0.00000   0.00480   0.00481   2.63584
   R13        2.05349   0.00295   0.00000   0.00823   0.00823   2.06172
   R14        3.57184   0.00098   0.00000   0.00509   0.00509   3.57693
   R15        2.63717  -0.00442   0.00000  -0.00957  -0.00956   2.62761
   R16        2.65335  -0.00446   0.00000  -0.01013  -0.01014   2.64322
   R17        2.05637   0.00256   0.00000   0.00720   0.00720   2.06357
   R18        2.83918   0.00820   0.00000   0.02397   0.02385   2.86303
   R19        2.06984   0.00503   0.00000   0.01445   0.01445   2.08429
   R20        2.07002   0.00314   0.00000   0.00903   0.00903   2.07905
    A1        2.13550  -0.00514   0.00000  -0.01944  -0.02099   2.11451
    A2        2.12534   0.00496   0.00000   0.01889   0.01734   2.14269
    A3        2.01763   0.00036   0.00000   0.00977   0.00836   2.02599
    A4        1.99648  -0.00388   0.00000  -0.01319  -0.01322   1.98325
    A5        1.88947   0.00178   0.00000   0.01801   0.01791   1.90739
    A6        1.90331  -0.00144   0.00000  -0.02486  -0.02491   1.87840
    A7        1.87283   0.00233   0.00000   0.01010   0.01023   1.88306
    A8        1.91541   0.00091   0.00000   0.00174   0.00114   1.91655
    A9        1.88288   0.00060   0.00000   0.01059   0.01069   1.89357
   A10        1.99390   0.01067   0.00000   0.05135   0.05108   2.04498
   A11        2.02262   0.00451   0.00000   0.02078   0.02082   2.04344
   A12        2.15708  -0.00441   0.00000  -0.02256  -0.02254   2.13454
   A13        2.10301  -0.00008   0.00000   0.00175   0.00169   2.10471
   A14        2.09862   0.00054   0.00000   0.00253   0.00250   2.10112
   A15        2.09272  -0.00274   0.00000  -0.01614  -0.01613   2.07659
   A16        2.09183   0.00219   0.00000   0.01364   0.01364   2.10548
   A17        2.08627  -0.00107   0.00000  -0.00462  -0.00464   2.08163
   A18        2.08743   0.00158   0.00000   0.00864   0.00863   2.09605
   A19        2.10948  -0.00051   0.00000  -0.00399  -0.00400   2.10548
   A20        2.09022   0.00034   0.00000   0.00173   0.00173   2.09196
   A21        2.10324  -0.00003   0.00000  -0.00094  -0.00095   2.10230
   A22        2.08970  -0.00030   0.00000  -0.00077  -0.00077   2.08892
   A23        2.09793   0.00245   0.00000   0.00889   0.00885   2.10679
   A24        2.09196  -0.00034   0.00000   0.00088   0.00090   2.09285
   A25        2.09324  -0.00211   0.00000  -0.00979  -0.00978   2.08346
   A26        2.07696  -0.00182   0.00000  -0.00740  -0.00734   2.06962
   A27        2.12224  -0.00191   0.00000  -0.01002  -0.01022   2.11202
   A28        2.08369   0.00372   0.00000   0.01719   0.01729   2.10098
   A29        1.96088   0.00062   0.00000   0.01816   0.01751   1.97839
   A30        1.88050  -0.00144   0.00000  -0.02306  -0.02291   1.85759
   A31        1.88671  -0.00092   0.00000   0.00181   0.00089   1.88760
   A32        1.91019   0.00245   0.00000   0.01198   0.01228   1.92247
   A33        1.90836   0.00228   0.00000   0.03297   0.03269   1.94105
   A34        1.91674  -0.00322   0.00000  -0.04459  -0.04488   1.87186
    D1       -2.42103  -0.00179   0.00000   0.02126   0.02067  -2.40037
    D2       -0.33412  -0.00005   0.00000   0.03844   0.03784  -0.29628
    D3        1.71017   0.00088   0.00000   0.04748   0.04660   1.75677
    D4        0.82311  -0.00413   0.00000  -0.07997  -0.07952   0.74359
    D5        2.91003  -0.00238   0.00000  -0.06279  -0.06234   2.84768
    D6       -1.32887  -0.00146   0.00000  -0.05375  -0.05359  -1.38246
    D7        2.87077  -0.00126   0.00000  -0.02862  -0.02932   2.84145
    D8       -1.30700   0.00121   0.00000  -0.01792  -0.01881  -1.32581
    D9        0.76348  -0.00388   0.00000  -0.08235  -0.08280   0.68068
   D10       -0.37272   0.00042   0.00000   0.06951   0.07017  -0.30255
   D11        1.73269   0.00289   0.00000   0.08020   0.08068   1.81337
   D12       -2.48000  -0.00221   0.00000   0.01578   0.01669  -2.46332
   D13       -0.82915   0.00011   0.00000   0.01341   0.01305  -0.81611
   D14       -2.92538  -0.00136   0.00000  -0.00823  -0.00846  -2.93384
   D15        1.31629  -0.00387   0.00000  -0.02741  -0.02769   1.28860
   D16       -2.75104   0.00125   0.00000   0.01995   0.02017  -2.73087
   D17        0.42352   0.00047   0.00000   0.02096   0.02095   0.44447
   D18       -3.13617  -0.00033   0.00000   0.01529   0.01505  -3.12112
   D19        0.01150  -0.00035   0.00000   0.00831   0.00820   0.01971
   D20       -0.02645   0.00034   0.00000   0.01380   0.01379  -0.01267
   D21        3.12122   0.00032   0.00000   0.00682   0.00694   3.12816
   D22        3.13409   0.00090   0.00000  -0.00636  -0.00599   3.12810
   D23        0.01881   0.00133   0.00000   0.00335   0.00362   0.02242
   D24        0.02692   0.00001   0.00000  -0.00561  -0.00550   0.02141
   D25       -3.08836   0.00043   0.00000   0.00409   0.00410  -3.08426
   D26        0.00940  -0.00048   0.00000  -0.01371  -0.01372  -0.00432
   D27       -3.13451  -0.00010   0.00000  -0.00471  -0.00466  -3.13918
   D28       -3.13827  -0.00048   0.00000  -0.00683  -0.00686   3.13806
   D29        0.00100  -0.00009   0.00000   0.00216   0.00220   0.00320
   D30        3.14122   0.00029   0.00000   0.00853   0.00854  -3.13342
   D31        0.00673   0.00025   0.00000   0.00540   0.00545   0.01218
   D32        0.00198  -0.00010   0.00000  -0.00060  -0.00058   0.00140
   D33       -3.13251  -0.00014   0.00000  -0.00373  -0.00367  -3.13619
   D34       -0.00597   0.00012   0.00000   0.00281   0.00282  -0.00315
   D35        3.12453  -0.00014   0.00000  -0.00005  -0.00012   3.12441
   D36       -3.14047   0.00007   0.00000  -0.00034  -0.00028  -3.14075
   D37       -0.00997  -0.00019   0.00000  -0.00319  -0.00322  -0.01319
   D38       -0.01078  -0.00025   0.00000  -0.00271  -0.00279  -0.01357
   D39        3.10509  -0.00075   0.00000  -0.01261  -0.01275   3.09234
   D40       -3.14127  -0.00000   0.00000   0.00008   0.00007  -3.14121
   D41       -0.02540  -0.00050   0.00000  -0.00981  -0.00990  -0.03530
   D42       -0.03152  -0.00029   0.00000  -0.04368  -0.04354  -0.07506
   D43       -2.11973  -0.00053   0.00000  -0.03440  -0.03436  -2.15409
   D44        2.06325   0.00051   0.00000  -0.00738  -0.00704   2.05621
   D45        3.13648   0.00022   0.00000  -0.03357  -0.03339   3.10309
   D46        1.04828  -0.00002   0.00000  -0.02430  -0.02422   1.02406
   D47       -1.05193   0.00102   0.00000   0.00272   0.00311  -1.04882
         Item               Value     Threshold  Converged?
 Maximum Force            0.043334     0.000450     NO 
 RMS     Force            0.005055     0.000300     NO 
 Maximum Displacement     0.072917     0.001800     NO 
 RMS     Displacement     0.020423     0.001200     NO 
 Predicted change in Energy=-3.100447D-03
 GradGradGradGradGradGradGradGradGradGradGradGradGradGradGradGradGradGrad

                          Input orientation:                          
 ---------------------------------------------------------------------
 Center     Atomic      Atomic             Coordinates (Angstroms)
 Number     Number       Type             X           Y           Z
 ---------------------------------------------------------------------
      1          8           0       -3.590846   -0.550227   -0.204251
      2          6           0       -2.454721   -0.227593    0.041186
      3          6           0       -2.099845    1.209793    0.359106
      4          8           0       -0.910499    1.651629   -0.265757
      5          6           0        0.173112    0.829258   -0.192640
      6          6           0        1.431642    1.420847   -0.334247
      7          6           0        2.581725    0.643314   -0.295412
      8          6           0        2.467609   -0.734189   -0.108299
      9         35           0        4.024781   -1.808097   -0.039388
     10          6           0        1.216399   -1.326229    0.023480
     11          6           0        0.051685   -0.553234   -0.025198
     12          6           0       -1.309729   -1.213129    0.055267
     13          1           0       -2.916229    1.865491    0.031709
     14          1           0       -2.000146    1.295228    1.458866
     15          1           0        1.495147    2.500422   -0.476113
     16          1           0        3.561731    1.110293   -0.404184
     17          1           0        1.136582   -2.407510    0.153518
     18          1           0       -1.400538   -1.783499    0.994918
     19          1           0       -1.457861   -1.922468   -0.772561
 ---------------------------------------------------------------------
                    Distance matrix (angstroms):
                    1          2          3          4          5
     1  O    0.000000
     2  C    1.206280   0.000000
     3  C    2.374474   1.514295   0.000000
     4  O    3.469325   2.451594   1.414290   0.000000
     5  C    4.008802   2.842026   2.369718   1.362297   0.000000
     6  C    5.396982   4.238175   3.605091   2.354480   1.397830
     7  C    6.287565   5.122261   4.760923   3.634997   2.417965
     8  C    6.062007   4.950588   4.985897   4.138664   2.777805
     9  Br   7.720569   6.669965   6.839408   6.031412   4.670597
    10  C    4.874797   3.832028   4.188261   3.670830   2.404429
    11  C    3.646930   2.528344   2.808031   2.417662   1.397879
    12  C    2.389620   1.510790   2.566545   2.910203   2.536064
    13  H    2.519221   2.143380   1.097092   2.038915   3.266211
    14  H    2.949914   2.129657   1.107570   2.070912   2.769052
    15  H    5.936977   4.828160   3.909895   2.559655   2.149634
    16  H    7.345519   6.179481   5.713663   4.506999   3.406827
    17  H    5.091766   4.202632   4.858149   4.565408   3.394815
    18  H    2.785034   2.107546   3.138963   3.691821   3.273097
    19  H    2.599163   2.128032   3.391737   3.651114   3.250904
                    6          7          8          9         10
     6  C    0.000000
     7  C    1.388797   0.000000
     8  C    2.401762   1.394829   0.000000
     9  Br   4.151793   2.856111   1.892831   0.000000
    10  C    2.778619   2.417624   1.390469   2.850115   0.000000
    11  C    2.428331   2.811733   2.424116   4.166577   1.398731
    12  C    3.821605   4.325825   3.811092   5.368420   2.528858
    13  H    4.385842   5.641650   5.980272   7.853529   5.221662
    14  H    3.874042   4.949346   5.151250   6.940831   4.390733
    15  H    1.090707   2.159203   3.397599   5.015288   3.869180
    16  H    2.153744   1.091014   2.164893   2.977329   3.408829
    17  H    3.870568   3.405510   2.154109   2.956044   1.091994
    18  H    4.478366   4.838676   4.157006   5.523086   2.828630
    19  H    4.440620   4.809279   4.154825   5.532629   2.853218
                   11         12         13         14         15
    11  C    0.000000
    12  C    1.515052   0.000000
    13  H    3.829097   3.472650   0.000000
    14  H    3.135167   2.956116   1.789186   0.000000
    15  H    3.407598   4.684032   4.485673   4.172974   0.000000
    16  H    3.902739   5.416687   6.536382   5.868528   2.491666
    17  H    2.155755   2.724085   5.890556   5.025263   4.961130
    18  H    2.159430   1.102956   4.066966   3.170700   5.375956
    19  H    2.170734   1.100184   4.137913   3.953089   5.326359
                   16         17         18         19
    16  H    0.000000
    17  H    4.308981   0.000000
    18  H    5.912328   2.744872   0.000000
    19  H    5.876193   2.797146   1.773861   0.000000
 Stoichiometry    C9H7BrO2
 Framework group  C1[X(C9H7BrO2)]
 Deg. of freedom    51
 Full point group                 C1      NOp   1
 Largest Abelian subgroup         C1      NOp   1
 Largest concise Abelian subgroup C1      NOp   1
                         Standard orientation:                         
 ---------------------------------------------------------------------
 Center     Atomic      Atomic             Coordinates (Angstroms)
 Number     Number       Type             X           Y           Z
 ---------------------------------------------------------------------
      1          8           0       -4.396601   -1.409347   -0.287785
      2          6           0       -3.407753   -0.787452    0.013111
      3          6           0       -3.493661    0.664101    0.435844
      4          8           0       -2.480247    1.477907   -0.121765
      5          6           0       -1.203751    1.004923   -0.069840
      6          6           0       -0.172989    1.946946   -0.133477
      7          6           0        1.154227    1.538609   -0.110748
      8          6           0        1.447656    0.178121   -0.018454
      9         35           0        3.250706   -0.396104    0.027211
     10          6           0        0.424121   -0.761486    0.035575
     11          6           0       -0.915650   -0.361043    0.002281
     12          6           0       -2.024096   -1.393858   -0.002720
     13          1           0       -4.463252    1.074513    0.127515
     14          1           0       -3.434415    0.695489    1.541383
     15          1           0       -0.427788    3.005268   -0.201838
     16          1           0        1.955003    2.278068   -0.158393
     17          1           0        0.663947   -1.825349    0.091527
     18          1           0       -1.952839   -2.032008    0.894052
     19          1           0       -1.949199   -2.053976   -0.879669
 ---------------------------------------------------------------------
 Rotational constants (GHZ):           2.0546920           0.2983929           0.2628241
 Standard basis: def2SVP (5D, 7F)
 There are   235 symmetry adapted cartesian basis functions of A   symmetry.
 There are   221 symmetry adapted basis functions of A   symmetry.
   221 basis functions,   404 primitive gaussians,   235 cartesian basis functions
    56 alpha electrons       56 beta electrons
       nuclear repulsion energy       903.1601893769 Hartrees.
 NAtoms=   19 NActive=   19 NUniq=   19 SFac= 1.00D+00 NAtFMM=   60 NAOKFM=F Big=F
 Integral buffers will be    131072 words long.
 Raffenetti 2 integral format.
 Two-electron integral symmetry is turned on.
 Nuclear repulsion after empirical dispersion term =      903.1492499731 Hartrees.
 One-electron integrals computed using PRISM.
   1 Symmetry operations used in ECPInt.
 ECPInt:  NShTT=    4950 NPrTT=   19707 LenC2=    4708 LenP2D=   13882.
 LDataN:  DoStor=T MaxTD1= 4 Len=   56
 NBasis=   221 RedAO= T EigKep=  2.32D-04  NBF=   221
 NBsUse=   221 1.00D-06 EigRej= -1.00D+00 NBFU=   221
 Initial guess from the checkpoint file:  "/home/rpaton/opt/dzvp/Gau-2325001.chk"
 B after Tr=    -0.000000   -0.000000   -0.000000
         Rot=    1.000000   -0.000275    0.000093    0.000415 Ang=  -0.06 deg.
 ExpMin= 1.22D-01 ExpMax= 1.13D+05 ExpMxC= 1.70D+04 IAcc=3 IRadAn=         5 AccDes= 0.00D+00
 Harris functional with IExCor= 4639 and IRadAn=       5 diagonalized for initial guess.
 HarFok:  IExCor= 4639 AccDes= 0.00D+00 IRadAn=         5 IDoV= 1 UseB2=F ITyADJ=14
 ICtDFT=  3500011 ScaDFX=  1.000000  1.000000  1.000000  1.000000
 FoFCou: FMM=F IPFlag=           0 FMFlag=      100000 FMFlg1=           0
         NFxFlg=           0 DoJE=T BraDBF=F KetDBF=T FulRan=T
         wScrn=  0.000000 ICntrl=       500 IOpCl=  0 I1Cent=   200000004 NGrid=           0
         NMat0=    1 NMatS0=      1 NMatT0=    0 NMatD0=    1 NMtDS0=    0 NMtDT0=    0
 Petite list used in FoFCou.
 Requested convergence on RMS density matrix=1.00D-08 within 128 cycles.
 Requested convergence on MAX density matrix=1.00D-06.
 Requested convergence on             energy=1.00D-06.
 No special actions if energy rises.
 Integral accuracy reduced to 1.0D-05 until final iterations.
 Initial convergence to 1.0D-05 achieved.  Increase integral accuracy.
 SCF Done:  E(RwB97XD) =  -3070.98719235     A.U. after   14 cycles
            NFock= 14  Conv=0.73D-08     -V/T= 2.0025
   1 Symmetry operations used in ECPInt.
 ECPInt:  NShTT=    4950 NPrTT=   19707 LenC2=    4708 LenP2D=   13882.
 LDataN:  DoStor=T MaxTD1= 5 Len=  102
 Calling FoFJK, ICntrl=      2127 FMM=F ISym2X=0 I1Cent= 0 IOpClX= 0 NMat=1 NMatS=1 NMatT=0.
 ***** Axes restored to original set *****
 -------------------------------------------------------------------
 Center     Atomic                   Forces (Hartrees/Bohr)
 Number     Number              X              Y              Z
 -------------------------------------------------------------------
      1        8           0.002865760   -0.000598878    0.003709909
      2        6          -0.006347707   -0.001402253   -0.009171374
      3        6           0.004520791    0.003403955    0.001778373
      4        8           0.000247952   -0.004376794    0.001082297
      5        6          -0.004155025    0.004728458   -0.001129928
      6        6           0.001602581   -0.000401335    0.000224813
      7        6          -0.000916643    0.001496749   -0.000182632
      8        6          -0.000280387   -0.001396027    0.000197459
      9       35          -0.000094083    0.000125763   -0.000026936
     10        6           0.000494701    0.000344202    0.000090515
     11        6          -0.000986678   -0.003479158    0.001230337
     12        6           0.004234218    0.004768300    0.000892972
     13        1           0.000902295   -0.000472657   -0.000405956
     14        1          -0.000127527    0.000379876    0.000936648
     15        1          -0.000932422    0.000162874    0.000150549
     16        1           0.000039454   -0.000438662    0.000016057
     17        1          -0.000042671   -0.000132580    0.000117069
     18        1          -0.000052619   -0.002015403   -0.000197654
     19        1          -0.000971991   -0.000696431    0.000687483
 -------------------------------------------------------------------
 Cartesian Forces:  Max     0.009171374 RMS     0.002365645

 GradGradGradGradGradGradGradGradGradGradGradGradGradGradGradGradGradGrad
 Berny optimization.
 Using GEDIIS/GDIIS optimizer.
 FormGI is forming the generalized inverse of G from B-inverse, IUseBI=4.
 Internal  Forces:  Max     0.004404887 RMS     0.000981057
 Search for a local minimum.
 Step number   2 out of a maximum of  111
 All quantities printed in internal units (Hartrees-Bohrs-Radians)
 Mixed Optimization -- En-DIIS/RFO-DIIS
 Update second derivatives using D2CorX and points    1    2
 DE= -2.90D-03 DEPred=-3.10D-03 R= 9.36D-01
 TightC=F SS=  1.41D+00  RLast= 2.46D-01 DXNew= 5.0454D-01 7.3726D-01
 Trust test= 9.36D-01 RLast= 2.46D-01 DXMaxT set to 5.05D-01
 ITU=  1  0
 Use linear search instead of GDIIS.
     Eigenvalues ---    0.00698   0.00902   0.01467   0.01526   0.02007
     Eigenvalues ---    0.02079   0.02100   0.02133   0.02148   0.02165
     Eigenvalues ---    0.02168   0.02176   0.04232   0.05742   0.06424
     Eigenvalues ---    0.07695   0.09975   0.10939   0.11879   0.12389
     Eigenvalues ---    0.15764   0.16000   0.16002   0.18745   0.20257
     Eigenvalues ---    0.22204   0.22470   0.23513   0.24436   0.24744
     Eigenvalues ---    0.25000   0.25463   0.30240   0.31320   0.32351
     Eigenvalues ---    0.33615   0.34164   0.34202   0.34339   0.35011
     Eigenvalues ---    0.35117   0.35221   0.39902   0.41319   0.41796
     Eigenvalues ---    0.45121   0.45820   0.46284   0.46461   0.49811
     Eigenvalues ---    0.84756
 RFO step:  Lambda=-1.32132755D-03 EMin= 6.98422075D-03
 Quartic linear search produced a step of -0.01103.
 Iteration  1 RMS(Cart)=  0.02064800 RMS(Int)=  0.00134148
 Iteration  2 RMS(Cart)=  0.00106041 RMS(Int)=  0.00064533
 Iteration  3 RMS(Cart)=  0.00000061 RMS(Int)=  0.00064533
 Variable       Old X    -DE/DX   Delta X   Delta X   Delta X     New X
                                 (Linear)    (Quad)   (Total)
    R1        2.27954  -0.00329   0.00052  -0.01723  -0.01670   2.26283
    R2        2.86160   0.00287  -0.00003   0.00868   0.00905   2.87065
    R3        2.85498   0.00087  -0.00015   0.00614   0.00637   2.86135
    R4        2.67262  -0.00346   0.00011  -0.01131  -0.01116   2.66146
    R5        2.07320  -0.00083  -0.00004  -0.00128  -0.00132   2.07188
    R6        2.09300   0.00095  -0.00023   0.00883   0.00859   2.10160
    R7        2.57437  -0.00440   0.00011  -0.01096  -0.01122   2.56315
    R8        2.64152  -0.00016  -0.00004   0.00064   0.00059   2.64211
    R9        2.64161   0.00153   0.00003   0.00340   0.00300   2.64461
   R10        2.62445  -0.00049   0.00013  -0.00446  -0.00434   2.62011
   R11        2.06114   0.00009  -0.00007   0.00206   0.00199   2.06313
   R12        2.63584   0.00113  -0.00005   0.00387   0.00380   2.63965
   R13        2.06172  -0.00015  -0.00009   0.00191   0.00182   2.06354
   R14        3.57693  -0.00015  -0.00006   0.00066   0.00061   3.57754
   R15        2.62761  -0.00060   0.00011  -0.00394  -0.00383   2.62378
   R16        2.64322  -0.00016   0.00011  -0.00327  -0.00314   2.64008
   R17        2.06357   0.00015  -0.00008   0.00248   0.00240   2.06597
   R18        2.86303  -0.00258  -0.00026  -0.00033  -0.00068   2.86235
   R19        2.08429   0.00088  -0.00016   0.00666   0.00651   2.09079
   R20        2.07905   0.00006  -0.00010   0.00276   0.00266   2.08171
    A1        2.11451   0.00212   0.00023   0.00512   0.00122   2.11573
    A2        2.14269  -0.00007  -0.00019   0.00738   0.00303   2.14571
    A3        2.02599  -0.00205  -0.00009  -0.01282  -0.01478   2.01121
    A4        1.98325  -0.00007   0.00015  -0.01380  -0.01286   1.97039
    A5        1.90739  -0.00047  -0.00020   0.00278   0.00212   1.90951
    A6        1.87840   0.00075   0.00027   0.00164   0.00195   1.88035
    A7        1.88306  -0.00025  -0.00011  -0.00021  -0.00058   1.88248
    A8        1.91655  -0.00005  -0.00001   0.00439   0.00414   1.92069
    A9        1.89357   0.00008  -0.00012   0.00604   0.00595   1.89952
   A10        2.04498   0.00076  -0.00056   0.01250   0.01179   2.05677
   A11        2.04344  -0.00033  -0.00023   0.00598   0.00586   2.04930
   A12        2.13454   0.00073   0.00025  -0.00492  -0.00499   2.12955
   A13        2.10471  -0.00038  -0.00002  -0.00056  -0.00050   2.10421
   A14        2.10112  -0.00007  -0.00003  -0.00004  -0.00011   2.10101
   A15        2.07659  -0.00094   0.00018  -0.01021  -0.01001   2.06657
   A16        2.10548   0.00101  -0.00015   0.01025   0.01012   2.11560
   A17        2.08163   0.00033   0.00005   0.00012   0.00011   2.08175
   A18        2.09605   0.00027  -0.00010   0.00437   0.00429   2.10035
   A19        2.10548  -0.00059   0.00004  -0.00452  -0.00445   2.10103
   A20        2.09196  -0.00009  -0.00002   0.00011   0.00010   2.09206
   A21        2.10230   0.00001   0.00001  -0.00016  -0.00018   2.10211
   A22        2.08892   0.00008   0.00001   0.00006   0.00008   2.08901
   A23        2.10679  -0.00025  -0.00010   0.00117   0.00107   2.10785
   A24        2.09285   0.00016  -0.00001   0.00117   0.00117   2.09402
   A25        2.08346   0.00009   0.00011  -0.00236  -0.00225   2.08121
   A26        2.06962   0.00037   0.00008  -0.00051  -0.00042   2.06920
   A27        2.11202  -0.00091   0.00011  -0.00754  -0.00743   2.10458
   A28        2.10098   0.00054  -0.00019   0.00805   0.00785   2.10883
   A29        1.97839   0.00082  -0.00019   0.00654   0.00719   1.98558
   A30        1.85759   0.00056   0.00025   0.00128   0.00136   1.85895
   A31        1.88760  -0.00104  -0.00001  -0.00577  -0.00632   1.88128
   A32        1.92247  -0.00026  -0.00014   0.00381   0.00342   1.92589
   A33        1.94105   0.00075  -0.00036   0.01832   0.01771   1.95876
   A34        1.87186  -0.00094   0.00050  -0.02703  -0.02646   1.84540
    D1       -2.40037  -0.00073  -0.00023  -0.11927  -0.11923  -2.51960
    D2       -0.29628  -0.00142  -0.00042  -0.12671  -0.12695  -0.42322
    D3        1.75677  -0.00116  -0.00051  -0.11710  -0.11759   1.63918
    D4        0.74359   0.00081   0.00088   0.02869   0.02948   0.77307
    D5        2.84768   0.00012   0.00069   0.02124   0.02177   2.86945
    D6       -1.38246   0.00038   0.00059   0.03086   0.03112  -1.35134
    D7        2.84145   0.00105   0.00032   0.12741   0.12762   2.96907
    D8       -1.32581   0.00161   0.00021   0.13700   0.13726  -1.18856
    D9        0.68068   0.00030   0.00091   0.10364   0.10451   0.78519
   D10       -0.30255  -0.00051  -0.00077  -0.02318  -0.02394  -0.32649
   D11        1.81337   0.00005  -0.00089  -0.01359  -0.01430   1.79907
   D12       -2.46332  -0.00126  -0.00018  -0.04695  -0.04705  -2.51037
   D13       -0.81611  -0.00112  -0.00014  -0.02370  -0.02441  -0.84052
   D14       -2.93384  -0.00031   0.00009  -0.01820  -0.01849  -2.95233
   D15        1.28860  -0.00024   0.00031  -0.02777  -0.02763   1.26097
   D16       -2.73087   0.00066  -0.00022   0.01708   0.01675  -2.71413
   D17        0.44447   0.00028  -0.00023   0.00038  -0.00016   0.44431
   D18       -3.12112  -0.00030  -0.00017  -0.00661  -0.00697  -3.12809
   D19        0.01971  -0.00023  -0.00009  -0.00691  -0.00716   0.01254
   D20       -0.01267   0.00010  -0.00015   0.00970   0.00958  -0.00309
   D21        3.12816   0.00017  -0.00008   0.00940   0.00938   3.13754
   D22        3.12810   0.00040   0.00007   0.01461   0.01483  -3.14026
   D23        0.02242   0.00049  -0.00004   0.01467   0.01476   0.03718
   D24        0.02141  -0.00000   0.00006  -0.00279  -0.00271   0.01870
   D25       -3.08426   0.00009  -0.00005  -0.00272  -0.00278  -3.08704
   D26       -0.00432  -0.00011   0.00015  -0.00934  -0.00923  -0.01355
   D27       -3.13918  -0.00003   0.00005  -0.00364  -0.00358   3.14043
   D28        3.13806  -0.00018   0.00008  -0.00902  -0.00903   3.12903
   D29        0.00320  -0.00010  -0.00002  -0.00333  -0.00338  -0.00018
   D30       -3.13342   0.00004  -0.00009   0.00468   0.00461  -3.12881
   D31        0.01218   0.00004  -0.00006   0.00227   0.00222   0.01440
   D32        0.00140  -0.00003   0.00001  -0.00101  -0.00100   0.00040
   D33       -3.13619  -0.00003   0.00004  -0.00342  -0.00339  -3.13958
   D34       -0.00315   0.00006  -0.00003   0.00462   0.00463   0.00147
   D35        3.12441   0.00001   0.00000   0.00301   0.00301   3.12742
   D36       -3.14075   0.00006   0.00000   0.00221   0.00224  -3.13850
   D37       -0.01319   0.00000   0.00004   0.00060   0.00063  -0.01256
   D38       -0.01357  -0.00007   0.00003  -0.00431  -0.00433  -0.01790
   D39        3.09234  -0.00019   0.00014  -0.00470  -0.00458   3.08775
   D40       -3.14121  -0.00002  -0.00000  -0.00273  -0.00275   3.13923
   D41       -0.03530  -0.00014   0.00011  -0.00312  -0.00300  -0.03830
   D42       -0.07506   0.00041   0.00048   0.00197   0.00268  -0.07238
   D43       -2.15409  -0.00067   0.00038  -0.00664  -0.00629  -2.16038
   D44        2.05621   0.00020   0.00008   0.01299   0.01332   2.06954
   D45        3.10309   0.00050   0.00037   0.00222   0.00279   3.10588
   D46        1.02406  -0.00058   0.00027  -0.00639  -0.00618   1.01788
   D47       -1.04882   0.00029  -0.00003   0.01323   0.01343  -1.03539
         Item               Value     Threshold  Converged?
 Maximum Force            0.004405     0.000450     NO 
 RMS     Force            0.000981     0.000300     NO 
 Maximum Displacement     0.151698     0.001800     NO 
 RMS     Displacement     0.020581     0.001200     NO 
 Predicted change in Energy=-7.293738D-04
 GradGradGradGradGradGradGradGradGradGradGradGradGradGradGradGradGradGrad

                          Input orientation:                          
 ---------------------------------------------------------------------
 Center     Atomic      Atomic             Coordinates (Angstroms)
 Number     Number       Type             X           Y           Z
 ---------------------------------------------------------------------
      1          8           0       -3.602484   -0.557581   -0.123976
      2          6           0       -2.460124   -0.221701    0.002762
      3          6           0       -2.094658    1.210824    0.351935
      4          8           0       -0.909052    1.641990   -0.274149
      5          6           0        0.174580    0.828997   -0.207077
      6          6           0        1.433787    1.422646   -0.336634
      7          6           0        2.582354    0.647198   -0.293486
      8          6           0        2.468677   -0.731885   -0.102772
      9         35           0        4.026940   -1.803823   -0.020364
     10          6           0        1.219230   -1.323748    0.025124
     11          6           0        0.054444   -0.554756   -0.035906
     12          6           0       -1.310832   -1.207011    0.033908
     13          1           0       -2.903803    1.880314    0.037067
     14          1           0       -1.986628    1.273161    1.457036
     15          1           0        1.486376    2.504644   -0.472479
     16          1           0        3.565457    1.111368   -0.395829
     17          1           0        1.138522   -2.405547    0.160849
     18          1           0       -1.414906   -1.781885    0.973487
     19          1           0       -1.467880   -1.933104   -0.779496
 ---------------------------------------------------------------------
                    Distance matrix (angstroms):
                    1          2          3          4          5
     1  O    0.000000
     2  C    1.197440   0.000000
     3  C    2.372191   1.519084   0.000000
     4  O    3.480696   2.440461   1.408384   0.000000
     5  C    4.024391   2.844234   2.368064   1.356361   0.000000
     6  C    5.415769   4.240473   3.601238   2.353914   1.398144
     7  C    6.303368   5.125362   4.754859   3.630414   2.416173
     8  C    6.073699   4.956259   4.980451   4.132034   2.776709
     9  Br   7.731233   6.677249   6.833788   6.025119   4.669826
    10  C    4.884482   3.840918   4.184819   3.662616   2.404063
    11  C    3.657989   2.536824   2.808261   2.410556   1.399466
    12  C    2.387123   1.514160   2.561533   2.893637   2.531768
    13  H    2.541147   2.148603   1.096392   2.032900   3.262103
    14  H    2.908987   2.138627   1.112117   2.072246   2.763580
    15  H    5.949385   4.820133   3.895822   2.553739   2.144538
    16  H    7.364691   6.184139   5.710161   4.507504   3.407844
    17  H    5.096395   4.212414   4.854699   4.556791   3.395118
    18  H    2.736575   2.113992   3.131245   3.679049   3.276721
    19  H    2.622652   2.127294   3.399599   3.653624   3.264130
                    6          7          8          9         10
     6  C    0.000000
     7  C    1.386501   0.000000
     8  C    2.401602   1.396842   0.000000
     9  Br   4.151454   2.858134   1.893153   0.000000
    10  C    2.778414   2.417489   1.388444   2.848820   0.000000
    11  C    2.429639   2.810938   2.421645   4.164269   1.397068
    12  C    3.819074   4.324601   3.811707   5.371307   2.532768
    13  H    4.377647   5.632740   5.975506   7.849290   5.221643
    14  H    3.865079   4.932723   5.128640   6.914733   4.367130
    15  H    1.091761   2.164096   3.402458   5.022128   3.869828
    16  H    2.155090   1.091979   2.164808   2.975278   3.407605
    17  H    3.871657   3.407393   2.154055   2.955988   1.093263
    18  H    4.483356   4.846004   4.164498   5.531899   2.836891
    19  H    4.458347   4.826859   4.171014   5.548517   2.870416
                   11         12         13         14         15
    11  C    0.000000
    12  C    1.514690   0.000000
    13  H    3.832247   3.474067   0.000000
    14  H    3.120277   2.938239   1.796151   0.000000
    15  H    3.406018   4.675167   4.463529   4.159488   0.000000
    16  H    3.902913   5.416433   6.529165   5.855333   2.503931
    17  H    2.153919   2.729824   5.892735   4.997955   4.963073
    18  H    2.164187   1.106399   4.062683   3.145471   5.374252
    19  H    2.184088   1.101591   4.155817   3.943515   5.339991
                   16         17         18         19
    16  H    0.000000
    17  H    4.309129   0.000000
    18  H    5.920300   2.751241   0.000000
    19  H    5.894955   2.810833   1.760291   0.000000
 Stoichiometry    C9H7BrO2
 Framework group  C1[X(C9H7BrO2)]
 Deg. of freedom    51
 Full point group                 C1      NOp   1
 Largest Abelian subgroup         C1      NOp   1
 Largest concise Abelian subgroup C1      NOp   1
                         Standard orientation:                         
 ---------------------------------------------------------------------
 Center     Atomic      Atomic             Coordinates (Angstroms)
 Number     Number       Type             X           Y           Z
 ---------------------------------------------------------------------
      1          8           0       -4.409026   -1.417508   -0.219250
      2          6           0       -3.415605   -0.775578   -0.032427
      3          6           0       -3.487253    0.669016    0.431935
      4          8           0       -2.473702    1.473956   -0.123341
      5          6           0       -1.200587    1.007934   -0.081895
      6          6           0       -0.168409    1.949894   -0.128018
      7          6           0        1.156060    1.540423   -0.105631
      8          6           0        1.448204    0.177161   -0.019992
      9         35           0        3.250711   -0.399224    0.032719
     10          6           0        0.424854   -0.760131    0.024914
     11          6           0       -0.913086   -0.360110   -0.016282
     12          6           0       -2.029081   -1.384024   -0.037333
     13          1           0       -4.453792    1.097488    0.141609
     14          1           0       -3.411787    0.672358    1.541483
     15          1           0       -0.432744    3.007763   -0.182618
     16          1           0        1.961723    2.276592   -0.142781
     17          1           0        0.662239   -1.825963    0.078523
     18          1           0       -1.969035   -2.036835    0.853931
     19          1           0       -1.960237   -2.057677   -0.906215
 ---------------------------------------------------------------------
 Rotational constants (GHZ):           2.0578271           0.2982502           0.2626054
 Standard basis: def2SVP (5D, 7F)
 There are   235 symmetry adapted cartesian basis functions of A   symmetry.
 There are   221 symmetry adapted basis functions of A   symmetry.
   221 basis functions,   404 primitive gaussians,   235 cartesian basis functions
    56 alpha electrons       56 beta electrons
       nuclear repulsion energy       903.4548312226 Hartrees.
 NAtoms=   19 NActive=   19 NUniq=   19 SFac= 1.00D+00 NAtFMM=   60 NAOKFM=F Big=F
 Integral buffers will be    131072 words long.
 Raffenetti 2 integral format.
 Two-electron integral symmetry is turned on.
 Nuclear repulsion after empirical dispersion term =      903.4438879218 Hartrees.
 One-electron integrals computed using PRISM.
   1 Symmetry operations used in ECPInt.
 ECPInt:  NShTT=    4950 NPrTT=   19707 LenC2=    4706 LenP2D=   13882.
 LDataN:  DoStor=T MaxTD1= 4 Len=   56
 NBasis=   221 RedAO= T EigKep=  2.32D-04  NBF=   221
 NBsUse=   221 1.00D-06 EigRej= -1.00D+00 NBFU=   221
 Initial guess from the checkpoint file:  "/home/rpaton/opt/dzvp/Gau-2325001.chk"
 B after Tr=     0.000000   -0.000000    0.000000
         Rot=    1.000000   -0.000074   -0.000075    0.000512 Ang=  -0.06 deg.
 ExpMin= 1.22D-01 ExpMax= 1.13D+05 ExpMxC= 1.70D+04 IAcc=3 IRadAn=         5 AccDes= 0.00D+00
 Harris functional with IExCor= 4639 and IRadAn=       5 diagonalized for initial guess.
 HarFok:  IExCor= 4639 AccDes= 0.00D+00 IRadAn=         5 IDoV= 1 UseB2=F ITyADJ=14
 ICtDFT=  3500011 ScaDFX=  1.000000  1.000000  1.000000  1.000000
 FoFCou: FMM=F IPFlag=           0 FMFlag=      100000 FMFlg1=           0
         NFxFlg=           0 DoJE=T BraDBF=F KetDBF=T FulRan=T
         wScrn=  0.000000 ICntrl=       500 IOpCl=  0 I1Cent=   200000004 NGrid=           0
         NMat0=    1 NMatS0=      1 NMatT0=    0 NMatD0=    1 NMtDS0=    0 NMtDT0=    0
 Petite list used in FoFCou.
 Requested convergence on RMS density matrix=1.00D-08 within 128 cycles.
 Requested convergence on MAX density matrix=1.00D-06.
 Requested convergence on             energy=1.00D-06.
 No special actions if energy rises.
 Integral accuracy reduced to 1.0D-05 until final iterations.
 Initial convergence to 1.0D-05 achieved.  Increase integral accuracy.
 SCF Done:  E(RwB97XD) =  -3070.98706322     A.U. after   15 cycles
            NFock= 15  Conv=0.31D-08     -V/T= 2.0025
   1 Symmetry operations used in ECPInt.
 ECPInt:  NShTT=    4950 NPrTT=   19707 LenC2=    4706 LenP2D=   13882.
 LDataN:  DoStor=T MaxTD1= 5 Len=  102
 Calling FoFJK, ICntrl=      2127 FMM=F ISym2X=0 I1Cent= 0 IOpClX= 0 NMat=1 NMatS=1 NMatT=0.
 ***** Axes restored to original set *****
 -------------------------------------------------------------------
 Center     Atomic                   Forces (Hartrees/Bohr)
 Number     Number              X              Y              Z
 -------------------------------------------------------------------
      1        8          -0.010150107   -0.003813309   -0.005430232
      2        6           0.006501979    0.001515617    0.014576019
      3        6           0.003893038   -0.000051484   -0.002701880
      4        8           0.001220084    0.003059750   -0.001304401
      5        6          -0.002274829   -0.000018801    0.001605902
      6        6          -0.001065619    0.001565291   -0.000527156
      7        6           0.001521686   -0.000571683    0.000278102
      8        6           0.001168927    0.000618403    0.000017271
      9       35          -0.000167460    0.000275628   -0.000072493
     10        6          -0.000446173   -0.002601847    0.000152832
     11        6          -0.002665974   -0.001509782   -0.000695389
     12        6           0.003004829    0.001204504   -0.002538770
     13        1           0.000333791    0.000326720    0.000174630
     14        1          -0.001053316   -0.000886564   -0.002046998
     15        1           0.000090781   -0.000571337    0.000023614
     16        1          -0.000702921   -0.000371207    0.000043504
     17        1           0.000230835    0.000637991   -0.000082723
     18        1          -0.000740240    0.000965669   -0.001158447
     19        1           0.001300689    0.000226443   -0.000313386
 -------------------------------------------------------------------
 Cartesian Forces:  Max     0.014576019 RMS     0.002966228

 GradGradGradGradGradGradGradGradGradGradGradGradGradGradGradGradGradGrad
 Berny optimization.
 Using GEDIIS/GDIIS optimizer.
 FormGI is forming the generalized inverse of G from B-inverse, IUseBI=4.
 Internal  Forces:  Max     0.011326946 RMS     0.001465482
 Search for a local minimum.
 Step number   3 out of a maximum of  111
 All quantities printed in internal units (Hartrees-Bohrs-Radians)
 Mixed Optimization -- RFO/linear search
 Update second derivatives using D2CorX and points    1    3    2
 DE=  1.29D-04 DEPred=-7.29D-04 R=-1.77D-01
 Trust test=-1.77D-01 RLast= 3.19D-01 DXMaxT set to 2.52D-01
 ITU= -1  1  0
 Use linear search instead of GDIIS.
     Eigenvalues ---    0.00694   0.01211   0.01512   0.01971   0.02078
     Eigenvalues ---    0.02097   0.02130   0.02148   0.02165   0.02168
     Eigenvalues ---    0.02176   0.02720   0.04124   0.06048   0.06263
     Eigenvalues ---    0.07717   0.10051   0.11177   0.11801   0.12691
     Eigenvalues ---    0.15679   0.16000   0.16001   0.18744   0.20495
[...]
 59633,-0.00548353,-0.01041299,0.00012636,-0.02905699,0.00084639,0.0263
 5391,-0.01048419,-0.08993333,0.03411315,-0.10990112,0.26775911,0.00178
 769,0.00372165,0.00062057,0.01034818,0.00087148,-0.00626031,0.07344847
 ,0.04676643,-0.13587681,-0.10770145,-0.09896707,0.20630704,0.00258868,
 0.00839276,-0.00043147,0.00343085,-0.01454619,-0.00310545,-0.06038701,
 0.01479990,0.00237346,-0.23220662,0.09405592,-0.00490931,0.74876950,-0
 .00031055,-0.00496464,0.00003719,-0.00544420,0.00761035,0.00229927,0.0
 0785985,0.00547218,-0.01072878,0.11536712,-0.16556023,0.03536433,0.022
 96122,0.68894172,-0.00060941,0.00125343,0.00021355,0.00032046,-0.00133
 555,0.00105313,0.01378025,-0.01674698,0.00109653,-0.02938143,0.0448430
 4,-0.06767938,0.00067938,-0.09375785,0.19300899,-0.00027714,-0.0017082
 5,-0.00001763,-0.00084898,0.00305866,0.00065331,0.00410870,0.00167905,
 -0.00417863,-0.05531925,-0.00849714,-0.00171984,-0.28782349,-0.0571591
 2,0.00370917,0.71092307,0.00008530,0.00084072,0.00002850,0.00101076,-0
 .00120638,-0.00073203,0.00267281,-0.00100981,0.00361376,0.02831176,0.0
 1672053,-0.00431335,-0.13668573,-0.18405805,0.01625842,-0.00718688,0.7
 5440104,0.00016389,0.00036583,-0.00004428,-0.00091857,-0.00104392,0.00
 026579,0.00066312,0.00050430,-0.00046826,-0.00716248,-0.00172565,0.008
 61065,0.01567383,0.01873598,-0.07261541,0.02464232,-0.10401715,0.15164
 274,-0.00068629,0.00038756,0.00039438,0.00070353,-0.00141605,-0.000376
 89,-0.00158427,-0.00046634,-0.00126011,0.00120944,-0.00068276,0.002795
 29,-0.05693266,-0.01855978,-0.00047976,-0.29647744,0.14374526,-0.03597
 365,0.76178201,-0.00016882,-0.00012771,-0.00004971,0.00041391,0.000047
 42,0.00010163,-0.00071710,0.00064735,0.00027795,-0.00634180,-0.0057514
 0,0.00095705,0.04042714,0.07614873,-0.01002009,0.07038839,-0.19967854,
 0.02609514,0.03214616,0.68090479,0.00003663,0.00007471,-0.00001956,0.0
 0027471,-0.00008687,-0.00013149,-0.00093242,0.00051771,0.00067783,0.00
 225639,0.00122306,0.00665271,-0.00931989,-0.01272257,0.00501040,-0.023
 17891,0.02972597,-0.06834666,0.02277699,-0.09427579,0.15630060,0.00083
 799,-0.00004501,-0.00016352,-0.00178962,0.00050636,0.00004651,0.000381
 54,-0.00014718,-0.00013717,0.00070944,0.00247521,0.00000660,-0.0283407
 7,-0.04089536,0.00555343,0.04526268,0.02080422,-0.00192679,-0.11892501
 ,0.00480944,-0.00293922,0.56901991,-0.00034075,0.00001153,0.00014040,0
 .00064351,0.00000828,-0.00016331,-0.00018869,-0.00052149,-0.00092403,0
 .00286190,0.00399589,0.00161144,-0.04139621,-0.06211454,0.00654018,0.0
 8250570,-0.03149229,0.00972829,-0.06328927,-0.33280766,0.04584996,0.07
 035927,0.60638046,-0.00026247,0.00023070,0.00022957,-0.00083653,-0.000
 67209,-0.00007022,0.00012399,0.00003121,0.00019345,-0.00019991,-0.0005
 4620,-0.00110113,0.00597428,0.00748802,-0.00670822,-0.01213770,0.00812
 423,0.00732802,0.00807513,0.04882271,-0.07520448,0.01014422,-0.0833806
 3,0.13675582,-0.00078347,-0.00011014,0.00049267,0.00055814,-0.00026096
 ,-0.00057022,0.00099978,0.00027124,-0.00051867,-0.00275811,0.00114652,
 -0.00039836,0.00160914,-0.00023585,0.00043746,0.00108023,0.00066180,-0
 .00005707,-0.01073293,0.00805504,-0.00219063,-0.11518016,0.05468170,-0
 .01458529,0.15821137,0.00036964,0.00019979,-0.00020065,-0.00033388,-0.
 00021225,0.00017261,-0.00071034,-0.00019009,0.00044188,0.00203458,-0.0
 0061121,0.00007273,-0.00022250,0.00159983,-0.00053323,-0.00355247,-0.0
 0276560,0.00095967,0.03171877,-0.01788561,0.00541331,0.05475044,-0.067
 65893,0.01150454,-0.08431768,0.08504004,-0.00008153,-0.00007307,0.0000
 7194,-0.00006570,0.00009720,-0.00001850,0.00027713,0.00001439,-0.00019
 013,-0.00063516,0.00002910,-0.00050987,0.00020126,-0.00033527,-0.00031
 350,0.00066439,0.00110289,0.00381119,-0.00642168,0.00438518,0.00253488
 ,-0.01461648,0.01143223,-0.02223921,0.02264228,-0.01778740,0.01394489,
 -0.00232806,0.00120437,0.00174916,0.00058520,-0.00527238,-0.00340127,-
 0.00139326,0.00056288,0.00175019,-0.00022058,-0.00895525,-0.00117088,0
 .04920125,0.08376924,-0.01120746,-0.07484608,0.00407509,-0.00331904,0.
 02843591,-0.08446955,0.01465130,-0.29427547,-0.06647671,0.00093720,-0.
 03191594,-0.00042322,-0.00168864,0.69267646,-0.00136015,0.00101352,0.0
 0161264,-0.00201566,-0.00338314,-0.00205153,-0.00109545,0.00041519,0.0
 0130811,-0.00181207,-0.00508297,0.00065181,0.02607940,-0.02801101,0.00
 765041,0.00067399,-0.00241493,0.00047878,-0.02904891,-0.01798338,0.003
 16327,-0.13397661,-0.16929844,0.01102669,0.02309717,0.00234296,0.00138
 499,0.01222559,0.74794749,-0.00061227,0.00016319,-0.00010056,0.0025267
 6,-0.00091235,-0.00043751,-0.00066282,0.00048786,-0.00008658,-0.000073
 48,0.00146955,0.00616150,-0.00206399,0.00815115,0.00262934,-0.00341789
 ,0.00020818,-0.00318850,0.00598788,0.00070983,0.00930938,0.01146373,0.
 01394576,-0.06772274,-0.00591743,0.00024836,0.00336661,0.02938206,-0.1
 0346914,0.15684393,0.00089128,0.00156077,0.00099303,-0.03115244,-0.003
 42593,0.00088994,0.00863089,0.00184718,-0.00320553,-0.01097372,0.04864
 597,-0.00743844,-0.13369476,-0.06965207,0.00896029,0.03035492,-0.02975
 240,0.00571669,-0.01289198,0.03024498,-0.00553486,-0.05898152,-0.02137
 421,-0.00034467,-0.00109777,-0.00041353,-0.00035528,-0.28082505,0.1392
 7429,-0.03601743,0.70380899,0.00703345,-0.00340770,-0.00734031,0.01263
 363,0.01860303,0.00945765,-0.00519593,-0.00180667,0.00247937,0.0177212
 9,-0.03429317,0.00577446,0.01278262,-0.30889892,0.03926738,-0.08153906
 ,-0.01498982,-0.00115858,0.02736790,-0.06286006,0.01115579,0.04054674,
 0.07069844,-0.00847297,-0.00430630,-0.00061365,0.00063881,0.06520829,-
 0.19754422,0.02818082,-0.03122149,0.67970524,0.00327524,-0.00443327,-0
 .00116708,0.01004491,0.01027156,-0.00062432,0.00183567,0.00035336,0.00
 100582,-0.00710532,0.01235597,0.00563877,-0.00286794,0.03246143,-0.081
 36275,0.01371290,0.00042097,0.01002905,-0.00320439,0.01144369,-0.00516
 887,-0.01033523,-0.00927331,0.00947155,0.00011795,0.00084717,0.0037564
 4,-0.02643441,0.02923539,-0.07029403,0.04767527,-0.08142571,0.18239784
 ,-0.04135670,0.01911010,0.03355344,-0.11811650,0.04597196,0.01984126,0
 .00772164,-0.00090332,0.00458887,-0.00062316,0.00338494,0.00075054,-0.
 00305631,-0.01058795,0.00018343,0.00056036,0.00157004,-0.00042471,-0.0
 0045018,-0.00129309,0.00040117,0.00121889,0.00363831,-0.00135612,-0.00
 047357,-0.00014626,0.00004301,-0.03005002,-0.01133523,-0.00234298,-0.2
 0246015,-0.05054138,-0.00758195,0.48831604,-0.00129976,0.02385009,0.00
 392881,0.04260418,-0.15449654,-0.02475474,0.02231854,-0.01893308,-0.01
 378949,-0.00421584,0.00756431,-0.00060870,-0.03205466,-0.01583328,-0.0
 0055230,0.00101013,-0.00481596,0.00160717,0.00080022,-0.00049139,-0.00
 009489,0.00245229,-0.00103965,0.00229157,0.00129246,-0.00014619,0.0000
 4235,0.01555124,0.01346351,0.00016396,-0.05377518,-0.12238677,0.002709
 46,0.02611450,0.58793484,0.03309311,-0.00731744,0.00391270,0.01583023,
 -0.02133978,-0.09066725,0.00793611,0.00004833,0.01893630,-0.00142652,-
 0.00271720,-0.00229959,0.00499663,0.00183367,0.00647628,0.00022838,0.0
 0335100,0.00419659,-0.00114440,0.00008177,-0.00081874,-0.00052266,0.00
 058890,0.00640781,0.00008637,0.00000961,0.00016733,-0.00314682,-0.0014
 3976,0.00434679,-0.01028295,0.00334864,-0.06720743,0.00595515,-0.05461
 709,0.51665193,0.00005628,-0.00060339,-0.00011466,0.00643374,-0.002635
 64,0.00318690,-0.21601346,0.10559986,-0.08250770,-0.02946514,0.0129053
 0,-0.00202596,-0.00058582,-0.00377517,0.00210427,-0.00087458,0.0009833
 9,0.00008279,-0.00015147,-0.00024282,-0.00006433,0.00009864,-0.0000193
 1,0.00003209,-0.00011599,0.00009442,-0.00001681,0.00003584,0.00012753,
 -0.00008252,-0.00041779,-0.00011787,-0.00012934,-0.00031033,-0.0008684
 1,-0.00077631,0.24376148,-0.00172150,0.00342078,-0.00274467,0.02616067
 ,-0.01627882,0.01234047,0.11446979,-0.11555038,0.05763382,-0.01066806,
 0.00626669,-0.00324186,-0.00130048,-0.00046149,0.00114502,-0.00028865,
 0.00033944,0.00002318,-0.00001805,-0.00008514,0.00000349,0.00000224,0.
 00003308,-0.00001971,-0.00000939,0.00001440,-0.00000369,-0.00001546,0.
 00005342,0.00003674,-0.00096036,0.00027058,0.00010450,-0.00227035,-0.0
 0296118,-0.00145100,-0.11465593,0.11938262,0.00099468,0.00113923,-0.00
 017107,0.00036812,-0.00435247,0.00104270,-0.09275529,0.05780527,-0.088
 12422,0.02563071,-0.01225526,0.00583529,0.00301432,0.00152171,-0.00084
 671,0.00083905,-0.00074943,0.00009499,0.00011969,0.00028169,0.00000775
 ,-0.00005300,-0.00007743,-0.00000904,0.00003023,-0.00003207,0.00000636
 ,0.00002603,-0.00010855,0.00009200,0.00027780,0.00014999,0.00003753,-0
 .00020627,-0.00035234,-0.00072251,0.08242997,-0.05779459,0.09146098,0.
 00004155,-0.00095577,0.00113209,0.00018825,0.00139330,-0.00465518,-0.0
 5761216,-0.01783575,-0.05493590,-0.00834377,0.00829332,0.03627686,0.00
 677916,-0.00229465,0.00381596,-0.00089059,-0.00048021,-0.00053281,0.00
 031865,-0.00037585,-0.00012524,0.00013490,0.00034690,0.00001896,-0.000
 04906,0.00002803,0.00000405,-0.00014461,0.00011511,-0.00015025,-0.0002
 6133,0.00018750,-0.00122899,-0.00028611,-0.00056383,0.00008727,-0.0026
 3941,-0.00945591,-0.02081651,0.06266483,0.00108923,0.00015755,0.003851
 01,-0.00818141,-0.01043451,-0.03126553,-0.01931332,-0.07778228,-0.0874
 6588,-0.00142375,0.00683070,0.01176297,0.00166690,-0.00102149,-0.00017
 299,0.00021283,-0.00001806,-0.00017449,-0.00006122,0.00027813,-0.00006
 079,-0.00019387,-0.00025302,0.00005020,-0.00005586,0.00005570,-0.00000
 718,0.00055468,-0.00000776,0.00010897,-0.00040994,0.00008580,-0.000236
 88,0.00117206,-0.00287622,0.00412746,0.00341002,0.00679015,0.01500266,
 0.02153376,0.07780131,0.00039745,0.00019740,0.00067155,-0.00065050,-0.
 00065426,0.00149128,-0.05021844,-0.07848945,-0.26117390,0.01559504,-0.
 00250884,-0.02162741,-0.00541197,0.00328599,-0.00057392,0.00150317,-0.
 00023556,0.00007712,-0.00034489,0.00025858,-0.00015502,-0.00008423,-0.
 00031166,0.00002891,0.00020222,-0.00013451,0.00003082,0.00012277,0.000
 08045,0.00024478,0.00033407,-0.00070031,0.00016710,-0.00017464,0.00019
 627,-0.00085831,-0.00203967,-0.00533929,-0.00859572,0.04094453,0.08447
 983,0.29030222,-0.00004139,0.00033005,0.00004948,0.00044135,-0.0005813
 8,-0.00028382,-0.00045088,0.00027094,0.00047443,0.00262849,0.00109954,
 -0.00016815,0.00461894,-0.02768565,0.00464038,-0.05924123,-0.01611094,
 0.00185725,0.00637304,0.02554134,-0.00412211,-0.00292556,0.00224329,-0
 .00077013,-0.00048910,0.00097855,-0.00022544,-0.00132675,0.00033101,-0
 .00009767,-0.00482877,-0.00175251,-0.00031436,0.00025175,-0.00116289,0
 .00046743,0.00002875,0.00000288,-0.00002586,0.00001129,-0.00001239,-0.
 00005383,0.05443750,-0.00005299,0.00013163,0.00004486,0.00024095,-0.00
 022165,-0.00015815,-0.00014119,0.00010068,0.00004472,0.00080255,0.0009
 1835,-0.00091503,0.00411203,-0.00967485,0.00279780,-0.01749045,-0.3416
 3249,0.04961547,-0.00438767,-0.00922292,0.00204443,0.00230428,0.000847
 95,0.00115748,0.00011442,-0.00040395,0.00008707,-0.00006960,0.00080410
 ,-0.00031171,-0.00245873,0.00051915,0.00077663,0.00024988,-0.00032516,
 0.00018338,0.00000190,0.00000726,0.00001611,0.00002395,0.00000292,-0.0
 0002269,0.01701259,0.35786810,0.00001059,-0.00004950,-0.00001614,-0.00
 012510,0.00009725,0.00002594,0.00046430,-0.00021383,-0.00022892,-0.000
 07549,-0.00113415,-0.00410081,-0.00237194,0.00155226,0.00553016,0.0032
 3997,0.04994443,-0.04511740,0.00060636,0.00327532,0.00293833,-0.000982
 19,0.00095187,0.00691908,-0.00004471,0.00013005,0.00014195,0.00034521,
 -0.00033798,-0.00072098,0.00016623,0.00089851,0.00532586,-0.00005133,0
 .00018260,-0.00017131,0.00003272,0.00000464,-0.00003145,0.00016187,0.0
 0002642,-0.00002073,-0.00161328,-0.05437548,0.03448669,-0.00005813,-0.
 00009407,0.00003283,0.00001096,0.00015059,-0.00000331,0.00008775,0.000
 06785,-0.00041330,-0.00137776,-0.00036158,0.00036490,-0.00111078,0.003
 27522,-0.00086365,-0.01551797,-0.01314145,0.00117042,-0.29426180,-0.11
 713168,0.00847332,0.00106094,0.00353836,-0.00078658,0.00087365,0.00064
 450,0.00005820,0.00140569,0.00000692,-0.00022521,0.00026357,0.00069929
 ,-0.00009493,0.00002515,-0.00004931,0.00008219,-0.00008283,-0.00002456
 ,0.00006356,-0.00000150,-0.00001289,0.00004092,0.00089413,-0.00003080,
 0.00019399,0.30760494,-0.00000869,0.00005331,0.00000793,0.00003615,-0.
 00009292,-0.00006087,0.00006536,-0.00002443,0.00025792,0.00093861,0.00
 031935,-0.00033862,0.00265628,-0.00126402,0.00166235,0.01680676,0.0113
 8324,-0.00026246,-0.11534769,-0.11269602,0.00768684,-0.02705586,-0.007
 41556,0.00055252,-0.00048629,0.00040467,-0.00052611,0.00066038,-0.0051
 8497,0.00194970,0.00093900,-0.00071415,-0.00006826,-0.00007380,0.00007
 714,-0.00004458,0.00005819,0.00001676,-0.00004439,-0.00000647,0.000011
 03,-0.00000952,-0.00033553,0.00046252,-0.00084598,0.12244715,0.1149886
 8,-0.00001515,-0.00006944,-0.00001149,0.00001294,0.00015296,0.00003407
 ,-0.00007648,0.00001111,-0.00005740,-0.00031769,-0.00014266,-0.0000311
 8,-0.00092902,0.00140588,0.00731612,-0.00344096,-0.00200749,0.00460981
 ,0.00797399,0.00752152,-0.03918897,0.00486996,0.00233844,0.00284723,0.
 00020764,-0.00045754,-0.00225263,-0.00056586,0.00195637,0.00525626,-0.
 00009311,0.00007219,-0.00107003,0.00002059,-0.00021833,-0.00044497,-0.
 00003385,-0.00002513,0.00001487,0.00001943,0.00000958,-0.00000417,0.00
 026634,-0.00085227,-0.00443089,-0.00809282,-0.00992031,0.02721841,0.00
 012101,-0.00016532,-0.00002619,-0.00028649,0.00016511,0.00027455,0.000
 64014,0.00004650,-0.00054869,-0.00054170,0.00182529,-0.00003152,-0.003
 69960,0.00128622,-0.00087752,-0.00106100,0.00034791,-0.00013392,-0.004
 89859,-0.00175279,-0.00025866,0.00212423,-0.02680941,0.00432640,0.0003
 4446,-0.00062383,0.00024433,-0.05728146,-0.01868044,0.00208058,0.00533
 500,0.02444396,-0.00379797,0.00158730,0.00114970,-0.00021995,-0.000050
 62,-0.00004376,0.00002756,-0.00004500,-0.00006456,0.00004061,0.0000247
 1,-0.00000557,0.00003516,0.00017344,-0.00134936,0.00029817,0.05799921,
 -0.00001271,0.00009789,-0.00002017,0.00016650,-0.00020900,-0.00018295,
 -0.00038832,0.00013761,0.00030985,0.00034594,-0.00100960,0.00001267,0.
 00223306,0.00120544,0.00133514,0.00024154,0.00076395,-0.00030785,-0.00
 258306,0.00082207,0.00060267,0.00391999,-0.00841689,0.00198201,0.00049
 251,0.00078381,-0.00049908,-0.02105221,-0.33801090,0.04932104,-0.00376
 498,-0.01101960,0.00230814,-0.00127037,0.00076485,-0.00090675,0.000039
 86,0.00001163,-0.00003135,0.00003215,0.00001548,-0.00004378,-0.0000076
 3,-0.00008034,-0.00005976,0.00002668,-0.00036810,0.00014284,0.02072430
 ,0.35421935,0.00020268,-0.00007962,-0.00017786,0.00020144,0.00024906,0
 .00021861,0.00009540,-0.00005315,-0.00001718,-0.00011899,0.00008214,-0
 .00028092,-0.00085937,0.00140060,0.00698817,-0.00030632,-0.00025000,-0
 .00091570,0.00002405,0.00037894,0.00555356,-0.00025819,0.00101676,0.00
 291847,0.00007139,-0.00064041,-0.00229018,0.00162414,0.04949214,-0.046
 12116,0.00137143,0.00335715,0.00406254,0.00057247,-0.00131414,-0.00393
 626,-0.00001667,-0.00000158,0.00000218,-0.00001650,-0.00002301,-0.0000
 0958,0.00000932,-0.00008288,-0.00050002,0.00000607,0.00002812,0.000212
 58,-0.00173880,-0.05396544,0.03434980,0.00072866,-0.00260644,0.0009848
 0,0.00335972,0.02046008,-0.01422864,-0.00244297,0.00087866,0.00360628,
 0.00112489,-0.00042021,0.00003715,-0.00669871,-0.00001437,-0.00068607,
 0.00072516,-0.00144881,-0.00030986,-0.00013245,0.00022778,0.00003568,0
 .00001140,-0.00021718,-0.00004415,0.00000357,0.00006146,-0.00004492,0.
 00185323,-0.00125695,-0.00002682,0.00058331,-0.02642183,0.01455609,-0.
 05054940,-0.01222309,0.00713687,0.00007273,0.00031271,-0.00005876,0.00
 006390,0.00080005,-0.00014892,-0.00038865,-0.00016502,0.00005969,-0.00
 001046,0.00005814,-0.00002260,-0.00045778,0.00085644,-0.00003332,0.052
 25261,-0.00222868,0.00402814,-0.00078242,-0.00249745,-0.02065366,0.009
 82377,0.00302468,-0.00038590,-0.00212202,-0.00003707,0.00116088,-0.000
 02881,-0.00169797,0.00122617,0.00068017,0.00028719,-0.00064663,0.00003
 481,0.00012221,0.00029732,-0.00007696,-0.00021876,-0.00022216,-0.00040
 341,-0.00006965,0.00004588,0.00000353,0.00178212,0.00089027,-0.0004764
 9,-0.00058107,-0.00901227,0.00268153,-0.01207677,-0.26078620,0.1206215
 3,-0.00006004,-0.00059216,-0.00001789,-0.00000483,-0.00061425,-0.00002
 301,-0.00014464,-0.00005656,0.00001408,-0.00002182,0.00003477,0.000076
 25,-0.00052611,0.00028740,0.00039391,0.01487497,0.27918828,-0.00217323
 ,0.00118662,-0.00004844,0.00066824,-0.01591303,0.00600708,0.00220297,-
 0.00123127,-0.00127291,-0.00016688,0.00023299,-0.00002264,-0.00033012,
 0.00025427,0.00053492,-0.00049434,-0.00027183,0.00021571,0.00026897,-0
 .00033192,0.00009719,0.00023076,0.00024055,-0.00008354,0.00001097,-0.0
 0002671,-0.00002311,-0.00022768,-0.00017851,0.00022183,-0.00114629,-0.
 00525074,0.00142813,0.00791100,0.12234768,-0.10799483,-0.00007696,-0.0
 0044858,-0.00001527,-0.00003790,-0.00031736,0.00003448,-0.00005781,-0.
 00004682,-0.00006074,-0.00000400,-0.00001673,-0.00000946,0.00032734,0.
 00007006,0.00008134,-0.00785711,-0.12657335,0.11291151,-0.00378065,0.0
 0107248,-0.00250143,0.00681119,0.00074851,0.02384599,-0.00224119,0.000
 05032,-0.00283396,0.00270879,0.00001076,-0.00025178,-0.00246100,0.0020
 9585,-0.00007919,0.00016264,0.00053807,0.00078860,-0.00069751,0.000239
 32,-0.00023992,-0.00044245,-0.00070720,0.00169130,-0.00008422,0.000063
 32,0.00001702,0.00041370,-0.00134956,0.00024974,-0.01228268,-0.0075282
 9,-0.02812318,-0.05194870,-0.00708030,-0.05838013,0.00021999,0.0004841
 7,0.00009400,0.00007102,-0.00071029,-0.00005369,-0.00001762,-0.0000605
 3,-0.00005204,0.00002101,-0.00000235,-0.00008153,-0.00002725,0.0000003
 0,-0.00083022,-0.00009875,0.00007370,0.00095205,0.06367369,0.00070205,
 -0.00000451,0.00188925,-0.00473727,-0.00360006,-0.02125433,0.00229359,
 -0.00070972,0.00245573,0.00041848,0.00027271,0.00084642,-0.00226348,-0
 .00034190,-0.00031437,0.00055779,0.00027967,0.00054147,-0.00042731,0.0
 0044400,-0.00014335,-0.00039784,-0.00073503,0.00023313,0.00003926,0.00
 000041,0.00001405,0.00114051,-0.00000874,0.00002459,-0.00472233,-0.002
 33524,-0.01053238,-0.01071328,-0.04856312,-0.04436070,-0.00024190,-0.0
 0067765,-0.00010087,0.00001926,0.00097884,-0.00002567,-0.00001661,-0.0
 0004475,-0.00006075,0.00001159,0.00000873,0.00000604,0.00003217,0.0000
 0495,0.00001143,0.00624362,0.00581067,0.02627466,0.01206170,0.04922077
 ,0.00088499,-0.00100234,0.00229740,-0.00117684,-0.00164411,-0.01360104
 ,0.00052744,-0.00053752,0.00063183,0.00075189,-0.00083223,-0.00003646,
 -0.00031271,0.00175272,0.00024231,-0.00030042,-0.00020153,-0.00018544,
 0.00018304,0.00008650,-0.00004884,-0.00029655,-0.00025439,0.00003868,-
 0.00001678,0.00001258,0.00000471,0.00057399,-0.00045559,0.00019963,-0.
 00196617,-0.00043215,0.00357387,-0.06168292,-0.03716786,-0.28597451,0.
 00001605,-0.00022176,-0.00007865,0.00003825,0.00030499,-0.00002950,-0.
 00003217,-0.00000291,0.00003138,-0.00000259,-0.00000754,-0.00000816,-0
 .00002147,-0.00006729,-0.00013840,-0.00295539,-0.00382522,-0.01200125,
 0.06578836,0.04449565,0.30508245\\-0.00000358,0.00000220,0.00000181,0.
 00001254,0.00000271,0.00000063,0.00000257,0.00000501,-0.00000370,-0.00
 000922,0.00000048,-0.00000188,0.00000178,-0.00000529,0.00000592,0.0000
 0573,-0.00000318,0.00000073,-0.00000073,0.00000151,-0.00000344,-0.0000
 0405,-0.00000735,0.00000274,-0.00000248,-0.00000109,0.00000029,0.00000
 320,0.00000007,-0.00000013,0.00000044,0.00000217,-0.00000187,-0.000005
 65,0.00000548,-0.00000479,-0.00000164,0.00000303,0.00000057,0.00000209
 ,0.00000286,-0.00000203,0.00000121,-0.00000139,-0.00000100,0.00000103,
 -0.00000286,0.00000044,-0.00000214,-0.00000087,0.00000143,-0.00000373,
 0.00000032,0.00000235,0.00000263,-0.00000380,0.00000194\\\@
 The archive entry for this job was punched.


 REALITY IS FOR PEOPLE WHO CAN'T FACE SCIENCE FICTION.
 Job cpu time:       0 days  0 hours 43 minutes 42.7 seconds.
 Elapsed time:       0 days  0 hours  1 minutes 50.3 seconds.
 File lengths (MBytes):  RWF=    128 Int=      0 D2E=      0 Chk=      5 Scr=      1
 Normal termination of Gaussian 16 at Mon Sep 23 07:19:20 2024.
