 Entering Gaussian System, Link 0=/usr/local/Gaussian/G16C/g16/g16
 Input=arbr34_wb97xd.com
 Output=arbr34_wb97xd.log
 Initial command:
 /usr/local/Gaussian/G16C/g16/l1.exe "/home/rpaton/opt/dzvp/Gau-2223399.inp" -scrdir="/home/rpaton/opt/dzvp/"
 Entering Link 1 = /usr/local/Gaussian/G16C/g16/l1.exe PID=   2223400.
  
 Copyright (c) 1988-2019, Gaussian, Inc.  All Rights Reserved.
  
 This is part of the Gaussian(R) 16 program.  It is based on
 the Gaussian(R) 09 system (copyright 2009, Gaussian, Inc.),
 the Gaussian(R) 03 system (copyright 2003, Gaussian, Inc.),
 the Gaussian(R) 98 system (copyright 1998, Gaussian, Inc.),
 the Gaussian(R) 94 system (copyright 1995, Gaussian, Inc.),
 the Gaussian 92(TM) system (copyright 1992, Gaussian, Inc.),
 the Gaussian 90(TM) system (copyright 1990, Gaussian, Inc.),
 the Gaussian 88(TM) system (copyright 1988, Gaussian, Inc.),
 the Gaussian 86(TM) system (copyright 1986, Carnegie Mellon
 University), and the Gaussian 82(TM) system (copyright 1983,
 Carnegie Mellon University). Gaussian is a federally registered
 trademark of Gaussian, Inc.
  
 This software contains proprietary and confidential information,
 including trade secrets, belonging to Gaussian, Inc.
  
 This software is provided under written license and may be
 used, copied, transmitted, or stored only in accord with that
 written license.
  
 The following legend is applicable only to US Government
 contracts under FAR:
  
                    RESTRICTED RIGHTS LEGEND
  
 Use, reproduction and disclosure by the US Government is
 subject to restrictions as set forth in subparagraphs (a)
 and (c) of the Commercial Computer Software - Restricted
 Rights clause in FAR 52.227-19.
  
 Gaussian, Inc.
 340 Quinnipiac St., Bldg. 40, Wallingford CT 06492
  
  
 ---------------------------------------------------------------
 Warning -- This program may not be used in any manner that
 competes with the business of Gaussian, Inc. or will provide
 assistance to any competitor of Gaussian, Inc.  The licensee
 of this program is prohibited from giving any competitor of
 Gaussian, Inc. access to this program.  By using this program,
 the user acknowledges that Gaussian, Inc. is engaged in the
 business of creating and licensing software in the field of
 computational chemistry and represents and warrants to the
 licensee that it is not a competitor of Gaussian, Inc. and that
 it will not use this program in any manner prohibited above.
 ---------------------------------------------------------------
  

 Cite this work as:
 Gaussian 16, Revision C.01,
 M. J. Frisch, G. W. Trucks, H. B. Schlegel, G. E. Scuseria, 
 M. A. Robb, J. R. Cheeseman, G. Scalmani, V. Barone, 
 G. A. Petersson, H. Nakatsuji, X. Li, M. Caricato, A. V. Marenich, 
 J. Bloino, B. G. Janesko, R. Gomperts, B. Mennucci, H. P. Hratchian, 
 J. V. Ortiz, A. F. Izmaylov, J. L. Sonnenberg, D. Williams-Young, 
 F. Ding, F. Lipparini, F. Egidi, J. Goings, B. Peng, A. Petrone, 
 T. Henderson, D. Ranasinghe, V. G. Zakrzewski, J. Gao, N. Rega, 
 G. Zheng, W. Liang, M. Hada, M. Ehara, K. Toyota, R. Fukuda, 
 J. Hasegawa, M. Ishida, T. Nakajima, Y. Honda, O. Kitao, H. Nakai, 
 T. Vreven, K. Throssell, J. A. Montgomery, Jr., J. E. Peralta, 
 F. Ogliaro, M. J. Bearpark, J. J. Heyd, E. N. Brothers, K. N. Kudin, 
 V. N. Staroverov, T. A. Keith, R. Kobayashi, J. Normand, 
 K. Raghavachari, A. P. Rendell, J. C. Burant, S. S. Iyengar, 
 J. Tomasi, M. Cossi, J. M. Millam, M. Klene, C. Adamo, R. Cammi, 
 J. W. Ochterski, R. L. Martin, K. Morokuma, O. Farkas, 
 J. B. Foresman, and D. J. Fox, Gaussian, Inc., Wallingford CT, 2019.
 
 ******************************************
 Gaussian 16:  ES64L-G16RevC.01  3-Jul-2019
                23-Sep-2024 
 ******************************************
 %nprocshared=24
 Will use up to   24 processors via shared memory.
 %mem=96GB
 -------------------------
 # opt freq wb97xd/def2svp
 -------------------------
 1/18=20,19=15,26=3,38=1/1,3;
 2/9=110,12=2,17=6,18=5,40=1/2;
 3/5=43,7=101,11=2,25=1,30=1,71=1,74=-58/1,2,3;
 4//1;
 5/5=2,38=5/2;
 6/7=2,8=2,9=2,10=2,28=1/1;
 7//1,2,3,16;
 1/18=20,19=15,26=3/3(2);
 2/9=110/2;
 99//99;
 2/9=110/2;
 3/5=43,7=101,11=2,25=1,30=1,71=1,74=-58/1,2,3;
 4/5=5,16=3,69=1/1;
 5/5=2,38=5/2;
 7//1,2,3,16;
 1/18=20,19=15,26=3/3(-5);
 2/9=110/2;
 6/7=2,8=2,9=2,10=2,19=2,28=1/1;
 99/9=1/99;
 --------------------------
 arbr34_rdkit_conf_1_wb97xd
 --------------------------
 Symbolic Z-matrix:
 Charge =  0 Multiplicity = 1
 Br                   -5.234    -0.4529   -0.5035 
 C                    -3.3862   -0.0872   -0.319 
 C                    -2.9539    1.2471   -0.2348 
 C                    -1.5937    1.547    -0.0979 
 C                    -0.6895    0.4989   -0.048 
 C                    -1.1364   -0.8387   -0.1337 
 C                    -2.4802   -1.1476   -0.2693 
 C                     0.0391   -1.7919   -0.0553 
 C                     1.2076   -0.8379    0.0852 
 C                     2.5531   -1.145     0.2007 
 C                     3.4578   -0.0882    0.3199 
 C                     3.0113    1.2444    0.3221 
 C                     1.6504    1.5459    0.2049 
 C                     0.7521    0.4988    0.0866 
 H                    -3.675     2.0599   -0.2753 
 H                    -1.2647    2.5787   -0.0332 
 H                    -2.811    -2.1785   -0.3341 
 H                    -0.0431   -2.4355    0.8253 
 H                     0.1251   -2.3763   -0.976 
 H                     2.8986   -2.1733    0.1991 
 H                     4.5213   -0.2968    0.4123 
 H                     3.7345    2.0513    0.4161 
 H                     1.317     2.5779    0.2078 
 

 GradGradGradGradGradGradGradGradGradGradGradGradGradGradGradGradGradGrad
 Berny optimization.
 Initialization pass.
                           ----------------------------
                           !    Initial Parameters    !
                           ! (Angstroms and Degrees)  !
 --------------------------                            --------------------------
 ! Name  Definition              Value          Derivative Info.                !
 --------------------------------------------------------------------------------
 ! R1    R(1,2)                  1.8927         estimate D2E/DX2                !
 ! R2    R(2,3)                  1.4051         estimate D2E/DX2                !
 ! R3    R(2,7)                  1.3956         estimate D2E/DX2                !
 ! R4    R(3,4)                  1.3996         estimate D2E/DX2                !
 ! R5    R(3,15)                 1.0873         estimate D2E/DX2                !
 ! R6    R(4,5)                  1.3851         estimate D2E/DX2                !
 ! R7    R(4,16)                 1.0848         estimate D2E/DX2                !
 ! R8    R(5,6)                  1.4129         estimate D2E/DX2                !
 ! R9    R(5,14)                 1.4479         estimate D2E/DX2                !
 ! R10   R(6,7)                  1.3855         estimate D2E/DX2                !
 ! R11   R(6,8)                  1.5154         estimate D2E/DX2                !
 ! R12   R(7,17)                 1.0846         estimate D2E/DX2                !
 ! R13   R(8,9)                  1.515          estimate D2E/DX2                !
 ! R14   R(8,18)                 1.0938         estimate D2E/DX2                !
 ! R15   R(8,19)                 1.0939         estimate D2E/DX2                !
 ! R16   R(9,10)                 1.3849         estimate D2E/DX2                !
 ! R17   R(9,14)                 1.4122         estimate D2E/DX2                !
 ! R18   R(10,11)                1.3963         estimate D2E/DX2                !
 ! R19   R(10,20)                1.0848         estimate D2E/DX2                !
 ! R20   R(11,12)                1.4054         estimate D2E/DX2                !
 ! R21   R(11,21)                1.0877         estimate D2E/DX2                !
 ! R22   R(12,13)                1.3988         estimate D2E/DX2                !
 ! R23   R(12,22)                1.0876         estimate D2E/DX2                !
 ! R24   R(13,14)                1.3847         estimate D2E/DX2                !
 ! R25   R(13,23)                1.0845         estimate D2E/DX2                !
 ! A1    A(1,2,3)              119.3207         estimate D2E/DX2                !
 ! A2    A(1,2,7)              119.3702         estimate D2E/DX2                !
 ! A3    A(3,2,7)              121.3092         estimate D2E/DX2                !
 ! A4    A(2,3,4)              120.5539         estimate D2E/DX2                !
 ! A5    A(2,3,15)             120.2374         estimate D2E/DX2                !
 ! A6    A(4,3,15)             119.2088         estimate D2E/DX2                !
 ! A7    A(3,4,5)              118.4119         estimate D2E/DX2                !
 ! A8    A(3,4,16)             120.2891         estimate D2E/DX2                !
 ! A9    A(5,4,16)             121.299          estimate D2E/DX2                !
 ! A10   A(4,5,6)              120.5105         estimate D2E/DX2                !
 ! A11   A(4,5,14)             130.7958         estimate D2E/DX2                !
 ! A12   A(6,5,14)             108.6936         estimate D2E/DX2                !
 ! A13   A(5,6,7)              121.587          estimate D2E/DX2                !
 ! A14   A(5,6,8)              110.3033         estimate D2E/DX2                !
 ! A15   A(7,6,8)              128.1096         estimate D2E/DX2                !
 ! A16   A(2,7,6)              117.6275         estimate D2E/DX2                !
 ! A17   A(2,7,17)             121.4704         estimate D2E/DX2                !
 ! A18   A(6,7,17)             120.9022         estimate D2E/DX2                !
 ! A19   A(6,8,9)              101.9462         estimate D2E/DX2                !
 ! A20   A(6,8,18)             110.6989         estimate D2E/DX2                !
 ! A21   A(6,8,19)             110.6998         estimate D2E/DX2                !
 ! A22   A(9,8,18)             110.7208         estimate D2E/DX2                !
 ! A23   A(9,8,19)             110.7216         estimate D2E/DX2                !
 ! A24   A(18,8,19)            111.6643         estimate D2E/DX2                !
 ! A25   A(8,9,10)             128.1285         estimate D2E/DX2                !
 ! A26   A(8,9,14)             110.3257         estimate D2E/DX2                !
 ! A27   A(10,9,14)            121.5457         estimate D2E/DX2                !
 ! A28   A(9,10,11)            117.9557         estimate D2E/DX2                !
 ! A29   A(9,10,20)            121.2988         estimate D2E/DX2                !
 ! A30   A(11,10,20)           120.7455         estimate D2E/DX2                !
 ! A31   A(10,11,12)           120.7938         estimate D2E/DX2                !
 ! A32   A(10,11,21)           119.7114         estimate D2E/DX2                !
 ! A33   A(12,11,21)           119.4948         estimate D2E/DX2                !
 ! A34   A(11,12,13)           120.8859         estimate D2E/DX2                !
 ! A35   A(11,12,22)           119.4943         estimate D2E/DX2                !
 ! A36   A(13,12,22)           119.6198         estimate D2E/DX2                !
 ! A37   A(12,13,14)           118.3803         estimate D2E/DX2                !
 ! A38   A(12,13,23)           120.2624         estimate D2E/DX2                !
 ! A39   A(14,13,23)           121.3573         estimate D2E/DX2                !
 ! A40   A(5,14,9)             108.7311         estimate D2E/DX2                !
 ! A41   A(5,14,13)            130.8302         estimate D2E/DX2                !
 ! A42   A(9,14,13)            120.4387         estimate D2E/DX2                !
 ! D1    D(1,2,3,4)            179.9963         estimate D2E/DX2                !
 ! D2    D(1,2,3,15)             0.0061         estimate D2E/DX2                !
 ! D3    D(7,2,3,4)             -0.0048         estimate D2E/DX2                !
 ! D4    D(7,2,3,15)          -179.995          estimate D2E/DX2                !
 ! D5    D(1,2,7,6)           -179.9995         estimate D2E/DX2                !
 ! D6    D(1,2,7,17)             0.0016         estimate D2E/DX2                !
 ! D7    D(3,2,7,6)              0.0017         estimate D2E/DX2                !
 ! D8    D(3,2,7,17)          -179.9973         estimate D2E/DX2                !
 ! D9    D(2,3,4,5)              0.0064         estimate D2E/DX2                !
 ! D10   D(2,3,4,16)          -179.9947         estimate D2E/DX2                !
 ! D11   D(15,3,4,5)           179.9967         estimate D2E/DX2                !
 ! D12   D(15,3,4,16)           -0.0044         estimate D2E/DX2                !
 ! D13   D(3,4,5,6)             -0.005          estimate D2E/DX2                !
 ! D14   D(3,4,5,14)           179.9992         estimate D2E/DX2                !
 ! D15   D(16,4,5,6)           179.9961         estimate D2E/DX2                !
 ! D16   D(16,4,5,14)            0.0003         estimate D2E/DX2                !
 ! D17   D(4,5,6,7)              0.0021         estimate D2E/DX2                !
 ! D18   D(4,5,6,8)           -179.9975         estimate D2E/DX2                !
 ! D19   D(14,5,6,7)           179.9987         estimate D2E/DX2                !
 ! D20   D(14,5,6,8)            -0.0009         estimate D2E/DX2                !
 ! D21   D(4,5,14,9)           179.9956         estimate D2E/DX2                !
 ! D22   D(4,5,14,13)           -0.0037         estimate D2E/DX2                !
 ! D23   D(6,5,14,9)            -0.0005         estimate D2E/DX2                !
 ! D24   D(6,5,14,13)         -179.9999         estimate D2E/DX2                !
 ! D25   D(5,6,7,2)             -0.0003         estimate D2E/DX2                !
 ! D26   D(5,6,7,17)           179.9986         estimate D2E/DX2                !
 ! D27   D(8,6,7,2)            179.9992         estimate D2E/DX2                !
 ! D28   D(8,6,7,17)            -0.0019         estimate D2E/DX2                !
 ! D29   D(5,6,8,9)              0.0018         estimate D2E/DX2                !
 ! D30   D(5,6,8,18)           117.8121         estimate D2E/DX2                !
 ! D31   D(5,6,8,19)          -117.8098         estimate D2E/DX2                !
 ! D32   D(7,6,8,9)           -179.9978         estimate D2E/DX2                !
 ! D33   D(7,6,8,18)           -62.1875         estimate D2E/DX2                !
 ! D34   D(7,6,8,19)            62.1906         estimate D2E/DX2                !
 ! D35   D(6,8,9,10)          -179.9983         estimate D2E/DX2                !
 ! D36   D(6,8,9,14)            -0.0021         estimate D2E/DX2                !
 ! D37   D(18,8,9,10)           62.2072         estimate D2E/DX2                !
 ! D38   D(18,8,9,14)         -117.7967         estimate D2E/DX2                !
 ! D39   D(19,8,9,10)          -62.2023         estimate D2E/DX2                !
 ! D40   D(19,8,9,14)          117.7939         estimate D2E/DX2                !
 ! D41   D(8,9,10,11)          179.9974         estimate D2E/DX2                !
 ! D42   D(8,9,10,20)           -0.0002         estimate D2E/DX2                !
 ! D43   D(14,9,10,11)           0.0016         estimate D2E/DX2                !
 ! D44   D(14,9,10,20)        -179.996          estimate D2E/DX2                !
 ! D45   D(8,9,14,5)             0.0017         estimate D2E/DX2                !
 ! D46   D(8,9,14,13)         -179.9989         estimate D2E/DX2                !
 ! D47   D(10,9,14,5)          179.9982         estimate D2E/DX2                !
 ! D48   D(10,9,14,13)          -0.0024         estimate D2E/DX2                !
 ! D49   D(9,10,11,12)           0.0029         estimate D2E/DX2                !
 ! D50   D(9,10,11,21)        -179.9991         estimate D2E/DX2                !
 ! D51   D(20,10,11,12)       -179.9995         estimate D2E/DX2                !
 ! D52   D(20,10,11,21)         -0.0015         estimate D2E/DX2                !
 ! D53   D(10,11,12,13)         -0.0067         estimate D2E/DX2                !
 ! D54   D(10,11,12,22)       -179.9976         estimate D2E/DX2                !
 ! D55   D(21,11,12,13)        179.9953         estimate D2E/DX2                !
 ! D56   D(21,11,12,22)          0.0043         estimate D2E/DX2                !
 ! D57   D(11,12,13,14)          0.0058         estimate D2E/DX2                !
 ! D58   D(11,12,13,23)        179.9976         estimate D2E/DX2                !
 ! D59   D(22,12,13,14)        179.9967         estimate D2E/DX2                !
 ! D60   D(22,12,13,23)         -0.0115         estimate D2E/DX2                !
 ! D61   D(12,13,14,5)         179.998          estimate D2E/DX2                !
 ! D62   D(12,13,14,9)          -0.0013         estimate D2E/DX2                !
 ! D63   D(23,13,14,5)           0.0062         estimate D2E/DX2                !
 ! D64   D(23,13,14,9)        -179.993          estimate D2E/DX2                !
 --------------------------------------------------------------------------------
 Trust Radius=3.00D-01 FncErr=1.00D-07 GrdErr=1.00D-06 EigMax=2.50D+02 EigMin=1.00D-04
 Number of steps in this run=    138 maximum allowed number of steps=    138.
 GradGradGradGradGradGradGradGradGradGradGradGradGradGradGradGradGradGrad

                          Input orientation:                          
 ---------------------------------------------------------------------
 Center     Atomic      Atomic             Coordinates (Angstroms)
 Number     Number       Type             X           Y           Z
 ---------------------------------------------------------------------
      1         35           0       -5.234000   -0.452900   -0.503500
      2          6           0       -3.386200   -0.087200   -0.319000
      3          6           0       -2.953900    1.247100   -0.234800
      4          6           0       -1.593700    1.547000   -0.097900
      5          6           0       -0.689500    0.498900   -0.048000
      6          6           0       -1.136400   -0.838700   -0.133700
      7          6           0       -2.480200   -1.147600   -0.269300
      8          6           0        0.039100   -1.791900   -0.055300
      9          6           0        1.207600   -0.837900    0.085200
     10          6           0        2.553100   -1.145000    0.200700
     11          6           0        3.457800   -0.088200    0.319900
     12          6           0        3.011300    1.244400    0.322100
     13          6           0        1.650400    1.545900    0.204900
     14          6           0        0.752100    0.498800    0.086600
     15          1           0       -3.675000    2.059900   -0.275300
     16          1           0       -1.264700    2.578700   -0.033200
     17          1           0       -2.811000   -2.178500   -0.334100
     18          1           0       -0.043100   -2.435500    0.825300
     19          1           0        0.125100   -2.376300   -0.976000
     20          1           0        2.898600   -2.173300    0.199100
     21          1           0        4.521300   -0.296800    0.412300
     22          1           0        3.734500    2.051300    0.416100
     23          1           0        1.317000    2.577900    0.207800
 ---------------------------------------------------------------------
                    Distance matrix (angstroms):
                    1          2          3          4          5
     1  Br   0.000000
     2  C    1.892655   0.000000
     3  C    2.856756   1.405108   0.000000
     4  C    4.173236   2.435683   1.399581   0.000000
     5  C    4.665392   2.772931   2.392113   1.385129   0.000000
     6  C    4.132302   2.379220   2.768409   2.429397   1.412883
     7  C    2.849714   1.395620   2.441346   2.841853   2.442651
     8  C    5.458882   3.835130   4.269167   3.717002   2.403888
     9  C    6.479892   4.672251   4.665588   3.683552   2.324600
    10  C    7.849448   6.055106   6.019871   4.952976   3.643997
    11  C    8.738328   6.873757   6.572717   5.325982   4.204775
    12  C    8.458570   6.565986   5.991140   4.634004   3.793239
    13  C    7.203610   5.320604   4.634889   3.258201   2.575907
    14  C    6.089938   4.199218   3.794428   2.575954   1.447870
    15  H    2.965927   2.166876   1.087322   2.150894   3.376625
    16  H    5.016684   3.418986   2.160370   1.084819   2.157925
    17  H    2.979483   2.169013   3.430017   3.926444   3.427986
    18  H    5.713305   4.242671   4.812288   4.372295   3.129088
    19  H    5.713377   4.242742   4.812343   4.372370   3.129142
    20  H    8.342218   6.642210   6.792581   5.840342   4.480644
    21  H    9.799435   7.944010   7.660351   6.407271   5.291262
    22  H    9.356852   7.471139   6.767947   5.376637   4.711381
    23  H    7.253089   5.431424   4.495276   3.102963   2.900641
                    6          7          8          9         10
     6  C    0.000000
     7  C    1.385498   0.000000
     8  C    1.515433   2.609174   0.000000
     9  C    2.354199   3.717722   1.515008   0.000000
    10  C    3.717264   5.055197   2.608488   1.384926   0.000000
    11  C    4.677144   6.060473   3.838083   2.383387   1.396251
    12  C    4.663740   6.018969   4.265621   2.765037   2.435963
    13  C    3.683371   4.953954   3.715495   2.427530   2.838279
    14  C    2.324623   3.644868   2.403292   1.412179   2.441044
    15  H    3.855700   3.422812   5.355306   5.689199   7.020484
    16  H    3.421284   3.926639   4.560979   4.218938   5.338188
    17  H    2.153952   1.084612   2.889681   4.257014   5.488871
    18  H    2.159805   2.965854   1.093816   2.159705   2.965766
    19  H    2.159876   2.965926   1.093896   2.159775   2.965789
    20  H    4.262996   5.495721   2.896019   2.157718   1.084792
    21  H    5.709758   7.085862   4.748062   3.373484   2.153608
    22  H    5.690347   7.023192   5.352419   3.852557   3.414445
    23  H    4.220065   5.340946   4.560417   3.419750   3.922751
                   11         12         13         14         15
    11  C    0.000000
    12  C    1.405414   0.000000
    13  C    2.439304   1.398816   0.000000
    14  C    2.778455   2.390683   1.384686   0.000000
    15  H    7.472980   6.762288   5.371655   4.708208   0.000000
    16  H    5.434983   4.493414   3.101802   2.899624   2.477360
    17  H    6.640401   6.785722   5.836589   4.476673   4.325967
    18  H    4.245179   4.808766   4.370856   3.128600   5.883081
    19  H    4.245191   4.808813   4.370894   3.128650   5.883163
    20  H    2.162161   3.421769   3.923071   3.429320   7.833087
    21  H    1.087697   2.159522   3.417693   3.865996   8.556060
    22  H    2.159462   1.087631   2.154880   3.378393   7.441693
    23  H    3.421064   2.159152   1.084522   2.157883   5.042001
                   16         17         18         19         20
    16  H    0.000000
    17  H    5.011241   0.000000
    18  H    5.231781   3.011898   0.000000
    19  H    5.231868   3.011950   1.810104   0.000000
    20  H    6.322067   5.734445   3.019019   3.019002   0.000000
    21  H    6.476478   7.606611   5.057505   5.057497   2.489952
    22  H    5.046981   7.829277   5.879548   5.879571   4.311967
    23  H    2.592924   6.321185   5.231191   5.231262   5.007538
                   21         22         23
    21  H    0.000000
    22  H    2.476417   0.000000
    23  H    4.309670   2.482942   0.000000
 Stoichiometry    C13H9Br
 Framework group  C1[X(C13H9Br)]
 Deg. of freedom    63
 Full point group                 C1      NOp   1
 Largest Abelian subgroup         C1      NOp   1
 Largest concise Abelian subgroup C1      NOp   1
                         Standard orientation:                         
 ---------------------------------------------------------------------
 Center     Atomic      Atomic             Coordinates (Angstroms)
 Number     Number       Type             X           Y           Z
 ---------------------------------------------------------------------
      1         35           0        3.825285   -0.112773   -0.000016
      2          6           0        1.948986    0.135511    0.000013
      3          6           0        1.427569    1.440292    0.000058
      4          6           0        0.044356    1.653712    0.000003
      5          6           0       -0.792766    0.550168    0.000040
      6          6           0       -0.256493   -0.756985    0.000023
      7          6           0        1.110869   -0.980425    0.000013
      8          6           0       -1.371825   -1.782934    0.000009
      9          6           0       -2.606074   -0.904368   -0.000027
     10          6           0       -3.934467   -1.296025   -0.000020
     11          6           0       -4.911077   -0.298153   -0.000002
     12          6           0       -4.551521    1.060490   -0.000052
     13          6           0       -3.207315    1.447527    0.000018
     14          6           0       -2.237759    0.458934    0.000017
     15          1           0        2.096691    2.297348   -0.000025
     16          1           0       -0.353547    2.662922   -0.000048
     17          1           0        1.510519   -1.988722    0.000023
     18          1           0       -1.333166   -2.396022   -0.905012
     19          1           0       -1.333203   -2.396073    0.905092
     20          1           0       -4.212880   -2.344481    0.000010
     21          1           0       -5.963307   -0.573644    0.000019
     22          1           0       -5.329699    1.820345    0.000002
     23          1           0       -2.941279    2.498913   -0.000061
 ---------------------------------------------------------------------
 Rotational constants (GHZ):           2.1370744           0.2149114           0.1955235
 Standard basis: def2SVP (5D, 7F)
 There are   275 symmetry adapted cartesian basis functions of A   symmetry.
 There are   259 symmetry adapted basis functions of A   symmetry.
   259 basis functions,   468 primitive gaussians,   275 cartesian basis functions
    61 alpha electrons       61 beta electrons
       nuclear repulsion energy      1040.2180367077 Hartrees.
 NAtoms=   23 NActive=   23 NUniq=   23 SFac= 1.00D+00 NAtFMM=   60 NAOKFM=F Big=F
 Integral buffers will be    131072 words long.
 Raffenetti 2 integral format.
 Two-electron integral symmetry is turned on.
 Nuclear repulsion after empirical dispersion term =     1040.2033290618 Hartrees.
 One-electron integrals computed using PRISM.
   1 Symmetry operations used in ECPInt.
 ECPInt:  NShTT=    6903 NPrTT=   27032 LenC2=    6466 LenP2D=   18491.
 LDataN:  DoStor=T MaxTD1= 4 Len=   56
 NBasis=   259 RedAO= T EigKep=  2.51D-04  NBF=   259
 NBsUse=   259 1.00D-06 EigRej= -1.00D+00 NBFU=   259
 ExpMin= 1.22D-01 ExpMax= 1.13D+05 ExpMxC= 1.70D+04 IAcc=3 IRadAn=         5 AccDes= 0.00D+00
 Harris functional with IExCor= 4639 and IRadAn=       5 diagonalized for initial guess.
 HarFok:  IExCor= 4639 AccDes= 0.00D+00 IRadAn=         5 IDoV= 1 UseB2=F ITyADJ=14
 ICtDFT=  3500011 ScaDFX=  1.000000  1.000000  1.000000  1.000000
 FoFCou: FMM=F IPFlag=           0 FMFlag=      100000 FMFlg1=           0
         NFxFlg=           0 DoJE=T BraDBF=F KetDBF=T FulRan=T
         wScrn=  0.000000 ICntrl=       500 IOpCl=  0 I1Cent=   200000004 NGrid=           0
         NMat0=    1 NMatS0=      1 NMatT0=    0 NMatD0=    1 NMtDS0=    0 NMtDT0=    0
 Petite list used in FoFCou.
 Requested convergence on RMS density matrix=1.00D-08 within 128 cycles.
 Requested convergence on MAX density matrix=1.00D-06.
 Requested convergence on             energy=1.00D-06.
 No special actions if energy rises.
 Integral accuracy reduced to 1.0D-05 until final iterations.
 Initial convergence to 1.0D-05 achieved.  Increase integral accuracy.
 SCF Done:  E(RwB97XD) =  -3074.19791491     A.U. after   15 cycles
            NFock= 15  Conv=0.64D-08     -V/T= 2.0027

 **********************************************************************

            Population analysis using the SCF Density.

 **********************************************************************

 Orbital symmetries:
       Occupied  (A) (A) (A) (A) (A) (A) (A) (A) (A) (A) (A) (A)
                 (A) (A) (A) (A) (A) (A) (A) (A) (A) (A) (A) (A)
                 (A) (A) (A) (A) (A) (A) (A) (A) (A) (A) (A) (A)
                 (A) (A) (A) (A) (A) (A) (A) (A) (A) (A) (A) (A)
                 (A) (A) (A) (A) (A) (A) (A) (A) (A) (A) (A) (A)
                 (A)
       Virtual   (A) (A) (A) (A) (A) (A) (A) (A) (A) (A) (A) (A)
                 (A) (A) (A) (A) (A) (A) (A) (A) (A) (A) (A) (A)
                 (A) (A) (A) (A) (A) (A) (A) (A) (A) (A) (A) (A)
                 (A) (A) (A) (A) (A) (A) (A) (A) (A) (A) (A) (A)
                 (A) (A) (A) (A) (A) (A) (A) (A) (A) (A) (A) (A)
                 (A) (A) (A) (A) (A) (A) (A) (A) (A) (A) (A) (A)
                 (A) (A) (A) (A) (A) (A) (A) (A) (A) (A) (A) (A)
                 (A) (A) (A) (A) (A) (A) (A) (A) (A) (A) (A) (A)
                 (A) (A) (A) (A) (A) (A) (A) (A) (A) (A) (A) (A)
                 (A) (A) (A) (A) (A) (A) (A) (A) (A) (A) (A) (A)
                 (A) (A) (A) (A) (A) (A) (A) (A) (A) (A) (A) (A)
                 (A) (A) (A) (A) (A) (A) (A) (A) (A) (A) (A) (A)
                 (A) (A) (A) (A) (A) (A) (A) (A) (A) (A) (A) (A)
                 (A) (A) (A) (A) (A) (A) (A) (A) (A) (A) (A) (A)
                 (A) (A) (A) (A) (A) (A) (A) (A) (A) (A) (A) (A)
                 (A) (A) (A) (A) (A) (A) (A) (A) (A) (A) (A) (A)
                 (A) (A) (A) (A) (A) (A)
 The electronic state is 1-A.
 Alpha  occ. eigenvalues -- -483.05859 -62.64068 -56.44840 -56.44479 -56.44471
 Alpha  occ. eigenvalues --  -10.35835 -10.31782 -10.31738 -10.31691 -10.31617
 Alpha  occ. eigenvalues --  -10.31535 -10.31245 -10.31169 -10.30912 -10.30847
 Alpha  occ. eigenvalues --  -10.30812 -10.30769 -10.30749  -8.81024  -6.63581
 Alpha  occ. eigenvalues --   -6.62255  -6.62234  -2.73955  -2.73569  -2.73554
 Alpha  occ. eigenvalues --   -2.72496  -2.72496  -0.99814  -0.95979  -0.91868
 Alpha  occ. eigenvalues --   -0.88713  -0.86066  -0.84659  -0.79935  -0.79029
 Alpha  occ. eigenvalues --   -0.73077  -0.68391  -0.67958  -0.67103  -0.61740
 Alpha  occ. eigenvalues --   -0.58294  -0.57465  -0.55259  -0.54711  -0.53600
 Alpha  occ. eigenvalues --   -0.52921  -0.51224  -0.50083  -0.49093  -0.47754
 Alpha  occ. eigenvalues --   -0.46119  -0.44575  -0.44330  -0.42775  -0.42251
 Alpha  occ. eigenvalues --   -0.40667  -0.36919  -0.35401  -0.34330  -0.33025
 Alpha  occ. eigenvalues --   -0.29130
 Alpha virt. eigenvalues --    0.01736   0.04081   0.06312   0.08536   0.09683
 Alpha virt. eigenvalues --    0.14530   0.15245   0.16520   0.18140   0.19019
 Alpha virt. eigenvalues --    0.19260   0.20628   0.22092   0.24639   0.25448
 Alpha virt. eigenvalues --    0.26683   0.27815   0.29272   0.30703   0.32185
 Alpha virt. eigenvalues --    0.33183   0.34776   0.36456   0.37266   0.39363
 Alpha virt. eigenvalues --    0.40658   0.41961   0.42206   0.43189   0.44957
 Alpha virt. eigenvalues --    0.45667   0.46741   0.48226   0.50624   0.51175
 Alpha virt. eigenvalues --    0.52642   0.53722   0.54825   0.55192   0.55767
 Alpha virt. eigenvalues --    0.56294   0.57226   0.57535   0.57760   0.58275
 Alpha virt. eigenvalues --    0.59673   0.59953   0.60743   0.61644   0.61924
 Alpha virt. eigenvalues --    0.63366   0.63402   0.66300   0.67797   0.70269
 Alpha virt. eigenvalues --    0.70308   0.71302   0.71944   0.72893   0.73674
 Alpha virt. eigenvalues --    0.73696   0.73866   0.74671   0.76068   0.76123
 Alpha virt. eigenvalues --    0.76416   0.77747   0.78209   0.79431   0.79555
 Alpha virt. eigenvalues --    0.80326   0.80821   0.81414   0.82405   0.83005
 Alpha virt. eigenvalues --    0.85176   0.86162   0.86833   0.87247   0.89831
 Alpha virt. eigenvalues --    0.90930   0.91820   0.99228   1.00392   1.01384
 Alpha virt. eigenvalues --    1.03310   1.07612   1.09481   1.12229   1.16408
 Alpha virt. eigenvalues --    1.19851   1.23611   1.25371   1.26832   1.27997
 Alpha virt. eigenvalues --    1.28109   1.29865   1.30627   1.32095   1.33092
 Alpha virt. eigenvalues --    1.33978   1.34673   1.35579   1.36755   1.38514
 Alpha virt. eigenvalues --    1.39780   1.46662   1.47656   1.55124   1.56304
 Alpha virt. eigenvalues --    1.58126   1.61731   1.63163   1.70816   1.75338
 Alpha virt. eigenvalues --    1.76461   1.77732   1.78174   1.78577   1.79267
 Alpha virt. eigenvalues --    1.80788   1.81379   1.82423   1.83706   1.85252
 Alpha virt. eigenvalues --    1.85568   1.87003   1.87671   1.89547   1.90485
 Alpha virt. eigenvalues --    1.91473   1.93961   1.94381   1.95322   1.97451
 Alpha virt. eigenvalues --    2.00150   2.02214   2.03268   2.05101   2.05907
 Alpha virt. eigenvalues --    2.07866   2.08962   2.10227   2.11408   2.17020
 Alpha virt. eigenvalues --    2.18199   2.20836   2.21465   2.24027   2.24701
 Alpha virt. eigenvalues --    2.25214   2.25705   2.27286   2.30925   2.35696
 Alpha virt. eigenvalues --    2.36208   2.36726   2.38208   2.40703   2.42230
 Alpha virt. eigenvalues --    2.43547   2.44892   2.44930   2.46836   2.53105
 Alpha virt. eigenvalues --    2.55295   2.57171   2.65366   2.66896   2.68014
 Alpha virt. eigenvalues --    2.68751   2.72122   2.72874   2.73605   2.78264
 Alpha virt. eigenvalues --    2.78705   2.80389   2.83335   2.88166   2.93682
 Alpha virt. eigenvalues --    2.96302   2.96925   3.00523   3.02411   3.03695
 Alpha virt. eigenvalues --    3.06196   3.12346   3.15706   3.22890   3.26442
 Alpha virt. eigenvalues --    3.42768   3.52735   3.56252   3.57656   3.60688
 Alpha virt. eigenvalues --    3.73116   3.74494   3.93038
          Condensed to atoms (all electrons):
               1          2          3          4          5          6
     1  Br  34.937577   0.221136  -0.058592   0.002842   0.000885   0.003188
     2  C    0.221136   5.280137   0.328856   0.061813  -0.146606   0.080502
     3  C   -0.058592   0.328856   4.957686   0.373720   0.073738  -0.121308
     4  C    0.002842   0.061813   0.373720   5.045243   0.354433  -0.020807
     5  C    0.000885  -0.146606   0.073738   0.354433   5.305843   0.345415
     6  C    0.003188   0.080502  -0.121308  -0.020807   0.345415   5.287694
     7  C   -0.060103   0.326584   0.045399  -0.086102   0.026155   0.388530
     8  C   -0.000127   0.012932  -0.001266   0.020796  -0.108742   0.309295
     9  C    0.000001  -0.001702   0.000359   0.011861  -0.032417  -0.084687
    10  C   -0.000000   0.000005   0.000006  -0.000481   0.018296   0.011237
    11  C    0.000000  -0.000000   0.000001   0.000081   0.001407  -0.001372
    12  C    0.000000   0.000001  -0.000011  -0.000222   0.014915  -0.000087
    13  C   -0.000000   0.000070  -0.000190  -0.009715  -0.097484   0.012336
    14  C    0.000018   0.002859   0.012729  -0.092258   0.215122  -0.028343
    15  H   -0.000651  -0.063460   0.434122  -0.047725   0.013289  -0.000981
    16  H   -0.000139   0.013588  -0.066884   0.446456  -0.052926   0.015620
    17  H    0.000141  -0.066043   0.011603  -0.001560   0.014924  -0.046913
    18  H    0.000001  -0.000211   0.000069  -0.000492   0.001842   0.005335
    19  H    0.000001  -0.000211   0.000069  -0.000491   0.001841   0.005327
    20  H    0.000000  -0.000000  -0.000000   0.000001  -0.000740   0.000865
    21  H   -0.000000   0.000000   0.000000  -0.000001   0.000007   0.000021
    22  H    0.000000   0.000000  -0.000000   0.000004  -0.000431   0.000009
    23  H   -0.000000  -0.000014   0.000184   0.004562  -0.023900  -0.000461
               7          8          9         10         11         12
     1  Br  -0.060103  -0.000127   0.000001  -0.000000   0.000000   0.000000
     2  C    0.326584   0.012932  -0.001702   0.000005  -0.000000   0.000001
     3  C    0.045399  -0.001266   0.000359   0.000006   0.000001  -0.000011
     4  C   -0.086102   0.020796   0.011861  -0.000481   0.000081  -0.000222
     5  C    0.026155  -0.108742  -0.032417   0.018296   0.001407   0.014915
     6  C    0.388530   0.309295  -0.084687   0.011237  -0.001372  -0.000087
     7  C    4.985809  -0.086253   0.013391  -0.000386   0.000005   0.000003
     8  C   -0.086253   4.835238   0.296279  -0.080175   0.011112   0.000026
     9  C    0.013391   0.296279   5.340949   0.359415   0.065606  -0.130963
    10  C   -0.000386  -0.080175   0.359415   5.021907   0.341002   0.056336
    11  C    0.000005   0.011112   0.065606   0.341002   5.002163   0.342408
    12  C    0.000003   0.000026  -0.130963   0.056336   0.342408   4.990339
    13  C   -0.000493   0.019868  -0.016919  -0.100015   0.048700   0.351158
    14  C    0.014849  -0.105007   0.355829   0.021345  -0.121970   0.062662
    15  H    0.011475   0.000016   0.000011  -0.000000   0.000000  -0.000000
    16  H   -0.002116  -0.000530  -0.000301   0.000030  -0.000014   0.000169
    17  H    0.439349  -0.016336   0.000987   0.000014  -0.000000  -0.000000
    18  H   -0.002875   0.331473   0.005062  -0.002746  -0.000229   0.000068
    19  H   -0.002876   0.331484   0.005051  -0.002747  -0.000229   0.000068
    20  H    0.000010  -0.015508  -0.063625   0.450861  -0.065762   0.012273
    21  H   -0.000000  -0.000350   0.013740  -0.062948   0.442186  -0.063014
    22  H   -0.000000   0.000021  -0.001129   0.012125  -0.063573   0.440718
    23  H    0.000029  -0.000509   0.016106  -0.001893   0.012172  -0.065701
              13         14         15         16         17         18
     1  Br  -0.000000   0.000018  -0.000651  -0.000139   0.000141   0.000001
     2  C    0.000070   0.002859  -0.063460   0.013588  -0.066043  -0.000211
     3  C   -0.000190   0.012729   0.434122  -0.066884   0.011603   0.000069
     4  C   -0.009715  -0.092258  -0.047725   0.446456  -0.001560  -0.000492
     5  C   -0.097484   0.215122   0.013289  -0.052926   0.014924   0.001842
     6  C    0.012336  -0.028343  -0.000981   0.015620  -0.046913   0.005335
     7  C   -0.000493   0.014849   0.011475  -0.002116   0.439349  -0.002875
     8  C    0.019868  -0.105007   0.000016  -0.000530  -0.016336   0.331473
     9  C   -0.016919   0.355829   0.000011  -0.000301   0.000987   0.005062
    10  C   -0.100015   0.021345  -0.000000   0.000030   0.000014  -0.002746
    11  C    0.048700  -0.121970   0.000000  -0.000014  -0.000000  -0.000229
    12  C    0.351158   0.062662  -0.000000   0.000169  -0.000000   0.000068
    13  C    5.087116   0.374033   0.000008   0.004187   0.000001  -0.000487
    14  C    0.374033   5.257213  -0.000449  -0.023315  -0.000811   0.001986
    15  H    0.000008  -0.000449   0.642616  -0.011019  -0.000182  -0.000000
    16  H    0.004187  -0.023315  -0.011019   0.668229   0.000021   0.000012
    17  H    0.000001  -0.000811  -0.000182   0.000021   0.654156   0.001819
    18  H   -0.000487   0.001986  -0.000000   0.000012   0.001819   0.606463
    19  H   -0.000487   0.001984  -0.000000   0.000012   0.001819  -0.011994
    20  H   -0.001657   0.014862   0.000000   0.000000   0.000000   0.001868
    21  H    0.012351  -0.001286  -0.000000  -0.000000  -0.000000   0.000007
    22  H   -0.060157   0.013638  -0.000000   0.000005   0.000000  -0.000000
    23  H    0.441627  -0.051081   0.000006   0.000491   0.000000   0.000012
              19         20         21         22         23
     1  Br   0.000001   0.000000  -0.000000   0.000000  -0.000000
     2  C   -0.000211  -0.000000   0.000000   0.000000  -0.000014
     3  C    0.000069  -0.000000   0.000000  -0.000000   0.000184
     4  C   -0.000491   0.000001  -0.000001   0.000004   0.004562
     5  C    0.001841  -0.000740   0.000007  -0.000431  -0.023900
     6  C    0.005327   0.000865   0.000021   0.000009  -0.000461
     7  C   -0.002876   0.000010  -0.000000  -0.000000   0.000029
     8  C    0.331484  -0.015508  -0.000350   0.000021  -0.000509
     9  C    0.005051  -0.063625   0.013740  -0.001129   0.016106
    10  C   -0.002747   0.450861  -0.062948   0.012125  -0.001893
    11  C   -0.000229  -0.065762   0.442186  -0.063573   0.012172
    12  C    0.000068   0.012273  -0.063014   0.440718  -0.065701
    13  C   -0.000487  -0.001657   0.012351  -0.060157   0.441627
    14  C    0.001984   0.014862  -0.001286   0.013638  -0.051081
    15  H   -0.000000   0.000000  -0.000000  -0.000000   0.000006
    16  H    0.000012   0.000000  -0.000000   0.000005   0.000491
    17  H    0.001819   0.000000  -0.000000   0.000000   0.000000
    18  H   -0.011994   0.001868   0.000007  -0.000000   0.000012
    19  H    0.606446   0.001868   0.000007  -0.000000   0.000012
    20  H    0.001868   0.674192  -0.010658  -0.000190   0.000024
    21  H    0.000007  -0.010658   0.661518  -0.011158  -0.000193
    22  H   -0.000000  -0.000190  -0.011158   0.662293  -0.010748
    23  H    0.000012   0.000024  -0.000193  -0.010748   0.677905
 Mulliken charges:
               1
     1  Br  -0.046179
     2  C   -0.050235
     3  C    0.009712
     4  C   -0.061960
     5  C    0.075136
     6  C   -0.160414
     7  C   -0.010385
     8  C    0.246264
     9  C   -0.152903
    10  C   -0.041187
    11  C   -0.013694
    12  C   -0.011145
    13  C   -0.063848
    14  C    0.075389
    15  H    0.022925
    16  H    0.008422
    17  H    0.007009
    18  H    0.063017
    19  H    0.063046
    20  H    0.001315
    21  H    0.019773
    22  H    0.018572
    23  H    0.001369
 Sum of Mulliken charges =  -0.00000
 Mulliken charges with hydrogens summed into heavy atoms:
               1
     1  Br  -0.046179
     2  C   -0.050235
     3  C    0.032636
     4  C   -0.053538
     5  C    0.075136
     6  C   -0.160414
     7  C   -0.003376
     8  C    0.372327
     9  C   -0.152903
    10  C   -0.039873
    11  C    0.006079
    12  C    0.007427
    13  C   -0.062478
    14  C    0.075389
 Electronic spatial extent (au):  <R**2>=           4863.5215
 Charge=             -0.0000 electrons
 Dipole moment (field-independent basis, Debye):
    X=             -1.9311    Y=             -0.3481    Z=             -0.0000  Tot=              1.9623
 Quadrupole moment (field-independent basis, Debye-Ang):
   XX=            -90.8689   YY=            -81.8932   ZZ=            -97.7469
   XY=              1.0517   XZ=             -0.0003   YZ=             -0.0004
 Traceless Quadrupole moment (field-independent basis, Debye-Ang):
   XX=             -0.6993   YY=              8.2765   ZZ=             -7.5772
   XY=              1.0517   XZ=             -0.0003   YZ=             -0.0004
 Octapole moment (field-independent basis, Debye-Ang**2):
  XXX=             79.5253  YYY=             -0.3507  ZZZ=             -0.0007  XYY=             29.7504
  XXY=             -2.1040  XXZ=              0.0010  XZZ=             51.3440  YZZ=             -5.4110
  YYZ=             -0.0007  XYZ=              0.0004
 Hexadecapole moment (field-independent basis, Debye-Ang**3):
 XXXX=          -4630.2023 YYYY=           -699.7676 ZZZZ=           -114.2360 XXXY=            -17.9927
 XXXZ=             -0.0132 YYYX=             -9.9557 YYYZ=             -0.0035 ZZZX=             -0.0032
 ZZZY=             -0.0005 XXYY=           -888.4158 XXZZ=           -912.3611 YYZZ=           -152.1471
 XXYZ=             -0.0018 YYXZ=             -0.0013 ZZXY=             -0.7884
 N-N= 1.040203329062D+03 E-N=-9.390178562425D+03  KE= 3.065908670453D+03
   1 Symmetry operations used in ECPInt.
 ECPInt:  NShTT=    6903 NPrTT=   27032 LenC2=    6466 LenP2D=   18491.
 LDataN:  DoStor=T MaxTD1= 5 Len=  102
 Calling FoFJK, ICntrl=      2127 FMM=F ISym2X=0 I1Cent= 0 IOpClX= 0 NMat=1 NMatS=1 NMatT=0.
 ***** Axes restored to original set *****
 -------------------------------------------------------------------
 Center     Atomic                   Forces (Hartrees/Bohr)
 Number     Number              X              Y              Z
 -------------------------------------------------------------------
      1       35          -0.000150092    0.000180765   -0.000008172
      2        6           0.001800080    0.008464057    0.000440300
      3        6           0.001905528   -0.003411280    0.000081343
      4        6          -0.011352482   -0.005730246   -0.001256291
      5        6          -0.009738026   -0.009502248   -0.001215269
      6        6           0.004636586    0.000349316    0.000439986
      7        6           0.001899344    0.005897389    0.000370278
      8        6          -0.000651697    0.019115910    0.000529330
      9        6          -0.006392098   -0.002569228   -0.000689743
     10        6           0.000033867    0.009323843    0.000307480
     11        6          -0.002658098    0.007914416    0.000018748
     12        6          -0.001537288   -0.007337633   -0.000400773
     13        6           0.011445149   -0.001562676    0.001031261
     14        6           0.011177997   -0.009837404    0.000721831
     15        1          -0.003274750    0.000682855   -0.000287175
     16        1           0.000815918    0.004815649    0.000233473
     17        1          -0.002762476   -0.004069267   -0.000390117
     18        1          -0.000217702   -0.007461686    0.000665231
     19        1          -0.000049062   -0.007370176   -0.001134727
     20        1           0.001448385   -0.005026748   -0.000029068
     21        1           0.003254835   -0.000182425    0.000298027
     22        1           0.002262631    0.002158372    0.000286471
     23        1          -0.001896550    0.005158446   -0.000012425
 -------------------------------------------------------------------
 Cartesian Forces:  Max     0.019115910 RMS     0.005013000

 GradGradGradGradGradGradGradGradGradGradGradGradGradGradGradGradGradGrad
 Berny optimization.
 FormGI is forming the generalized inverse of G from B-inverse, IUseBI=4.
 Internal  Forces:  Max     0.014721531 RMS     0.002785878
 Search for a local minimum.
 Step number   1 out of a maximum of  138
 All quantities printed in internal units (Hartrees-Bohrs-Radians)
 Mixed Optimization -- RFO/linear search
 Second derivative matrix not updated -- first step.
 ITU=  0
     Eigenvalues ---    0.00891   0.01373   0.01546   0.01750   0.01856
     Eigenvalues ---    0.01968   0.02054   0.02055   0.02086   0.02088
     Eigenvalues ---    0.02093   0.02095   0.02195   0.02203   0.02210
     Eigenvalues ---    0.02213   0.02219   0.02221   0.05213   0.07326
     Eigenvalues ---    0.08175   0.08979   0.16000   0.16000   0.16000
     Eigenvalues ---    0.16000   0.16000   0.16000   0.16000   0.18614
     Eigenvalues ---    0.22000   0.22452   0.22600   0.23493   0.23879
     Eigenvalues ---    0.24540   0.24685   0.25000   0.25000   0.29931
     Eigenvalues ---    0.30153   0.34366   0.34375   0.35080   0.35088
     Eigenvalues ---    0.35124   0.35418   0.35421   0.35443   0.35453
     Eigenvalues ---    0.37236   0.37674   0.40354   0.42658   0.42717
     Eigenvalues ---    0.43665   0.44123   0.45729   0.45740   0.47303
     Eigenvalues ---    0.47364   0.47775   0.47848
 RFO step:  Lambda=-3.31883819D-03 EMin= 8.90707710D-03
 Linear search not attempted -- first point.
 Iteration  1 RMS(Cart)=  0.01664303 RMS(Int)=  0.00011698
 Iteration  2 RMS(Cart)=  0.00011348 RMS(Int)=  0.00005532
 Iteration  3 RMS(Cart)=  0.00000001 RMS(Int)=  0.00005532
 Variable       Old X    -DE/DX   Delta X   Delta X   Delta X     New X
                                 (Linear)    (Quad)   (Total)
    R1        3.57660   0.00011   0.00000   0.00059   0.00059   3.57719
    R2        2.65527  -0.00866   0.00000  -0.01963  -0.01965   2.63562
    R3        2.63734   0.00225   0.00000   0.00446   0.00445   2.64179
    R4        2.64482  -0.00374   0.00000  -0.00821  -0.00823   2.63660
    R5        2.05474   0.00269   0.00000   0.00760   0.00760   2.06234
    R6        2.61751   0.00826   0.00000   0.01736   0.01737   2.63488
    R7        2.05001   0.00484   0.00000   0.01354   0.01354   2.06355
    R8        2.66996  -0.00600   0.00000  -0.01259  -0.01260   2.65736
    R9        2.73608   0.01472   0.00000   0.04040   0.04032   2.77640
   R10        2.61821   0.00259   0.00000   0.00544   0.00546   2.62367
   R11        2.86375  -0.00020   0.00000  -0.00317  -0.00312   2.86064
   R12        2.04962   0.00473   0.00000   0.01323   0.01323   2.06285
   R13        2.86295   0.00066   0.00000  -0.00023  -0.00017   2.86278
   R14        2.06701   0.00494   0.00000   0.01424   0.01424   2.08125
   R15        2.06716   0.00489   0.00000   0.01409   0.01409   2.08125
   R16        2.61713   0.00380   0.00000   0.00788   0.00790   2.62503
   R17        2.66863  -0.00531   0.00000  -0.01074  -0.01073   2.65790
   R18        2.63853   0.00269   0.00000   0.00530   0.00530   2.64383
   R19        2.04996   0.00523   0.00000   0.01462   0.01462   2.06458
   R20        2.65585  -0.00774   0.00000  -0.01769  -0.01772   2.63813
   R21        2.05545   0.00324   0.00000   0.00916   0.00916   2.06461
   R22        2.64338  -0.00255   0.00000  -0.00556  -0.00558   2.63780
   R23        2.05533   0.00313   0.00000   0.00884   0.00884   2.06416
   R24        2.61668   0.00911   0.00000   0.01921   0.01921   2.63589
   R25        2.04945   0.00549   0.00000   0.01535   0.01535   2.06479
    A1        2.08254  -0.00107   0.00000  -0.00335  -0.00334   2.07920
    A2        2.08340  -0.00033   0.00000  -0.00042  -0.00041   2.08299
    A3        2.11724   0.00141   0.00000   0.00377   0.00375   2.12099
    A4        2.10406  -0.00234   0.00000  -0.01191  -0.01194   2.09212
    A5        2.09854  -0.00089   0.00000  -0.00666  -0.00664   2.09190
    A6        2.08059   0.00323   0.00000   0.01856   0.01858   2.09917
    A7        2.06668   0.00346   0.00000   0.01571   0.01570   2.08238
    A8        2.09944  -0.00244   0.00000  -0.01217  -0.01217   2.08727
    A9        2.11707  -0.00103   0.00000  -0.00354  -0.00354   2.11353
   A10        2.10331  -0.00157   0.00000  -0.00652  -0.00648   2.09683
   A11        2.28282   0.00248   0.00000   0.00781   0.00780   2.29062
   A12        1.89706  -0.00091   0.00000  -0.00128  -0.00132   1.89574
   A13        2.12209  -0.00339   0.00000  -0.01096  -0.01096   2.11113
   A14        1.92516   0.00016   0.00000  -0.00339  -0.00332   1.92184
   A15        2.23593   0.00324   0.00000   0.01435   0.01428   2.25022
   A16        2.05299   0.00243   0.00000   0.00991   0.00993   2.06292
   A17        2.12006  -0.00264   0.00000  -0.01369  -0.01370   2.10636
   A18        2.11014   0.00021   0.00000   0.00378   0.00377   2.11391
   A19        1.77930   0.00234   0.00000   0.01208   0.01199   1.79128
   A20        1.93206   0.00040   0.00000   0.01082   0.01057   1.94263
   A21        1.93208   0.00040   0.00000   0.01080   0.01054   1.94262
   A22        1.93244   0.00060   0.00000   0.01309   0.01286   1.94531
   A23        1.93246   0.00060   0.00000   0.01305   0.01283   1.94529
   A24        1.94891  -0.00376   0.00000  -0.05298  -0.05285   1.89606
   A25        2.23626   0.00460   0.00000   0.01947   0.01938   2.25565
   A26        1.92555   0.00008   0.00000  -0.00325  -0.00316   1.92239
   A27        2.12137  -0.00468   0.00000  -0.01622  -0.01622   2.10515
   A28        2.05871   0.00382   0.00000   0.01576   0.01578   2.07450
   A29        2.11706  -0.00214   0.00000  -0.00932  -0.00933   2.10773
   A30        2.10741  -0.00167   0.00000  -0.00644  -0.00645   2.10096
   A31        2.10825  -0.00009   0.00000  -0.00280  -0.00283   2.10542
   A32        2.08936   0.00050   0.00000   0.00422   0.00423   2.09359
   A33        2.08558  -0.00042   0.00000  -0.00141  -0.00140   2.08418
   A34        2.10986  -0.00075   0.00000  -0.00483  -0.00487   2.10499
   A35        2.08557   0.00012   0.00000   0.00087   0.00089   2.08646
   A36        2.08776   0.00063   0.00000   0.00396   0.00398   2.09174
   A37        2.06613   0.00189   0.00000   0.00901   0.00900   2.07512
   A38        2.09897  -0.00072   0.00000  -0.00312  -0.00312   2.09586
   A39        2.11808  -0.00117   0.00000  -0.00588  -0.00588   2.11220
   A40        1.89772  -0.00167   0.00000  -0.00416  -0.00419   1.89353
   A41        2.28342   0.00186   0.00000   0.00506   0.00505   2.28846
   A42        2.10205  -0.00019   0.00000  -0.00090  -0.00086   2.10119
    D1        3.14153   0.00000   0.00000   0.00008   0.00008  -3.14158
    D2        0.00011  -0.00000   0.00000  -0.00010  -0.00010   0.00000
    D3       -0.00008   0.00000   0.00000   0.00011   0.00011   0.00002
    D4       -3.14151  -0.00000   0.00000  -0.00008  -0.00007  -3.14158
    D5       -3.14158  -0.00000   0.00000  -0.00001  -0.00001   3.14159
    D6        0.00003  -0.00000   0.00000  -0.00003  -0.00003  -0.00000
    D7        0.00003  -0.00000   0.00000  -0.00004  -0.00004  -0.00001
    D8       -3.14154  -0.00000   0.00000  -0.00006  -0.00006   3.14158
    D9        0.00011  -0.00000   0.00000  -0.00013  -0.00013  -0.00002
   D10       -3.14150  -0.00000   0.00000  -0.00010  -0.00010   3.14158
   D11        3.14153   0.00000   0.00000   0.00005   0.00005   3.14158
   D12       -0.00008   0.00000   0.00000   0.00008   0.00008   0.00000
   D13       -0.00009   0.00000   0.00000   0.00009   0.00010   0.00001
   D14        3.14158   0.00000   0.00000   0.00003   0.00003  -3.14157
   D15        3.14152   0.00000   0.00000   0.00006   0.00006   3.14159
   D16        0.00000   0.00000   0.00000   0.00000   0.00000   0.00001
   D17        0.00004  -0.00000   0.00000  -0.00003  -0.00003   0.00000
   D18       -3.14155  -0.00000   0.00000  -0.00002  -0.00002  -3.14157
   D19        3.14157   0.00000   0.00000   0.00002   0.00002   3.14159
   D20       -0.00002   0.00000   0.00000   0.00002   0.00002   0.00001
   D21        3.14152   0.00000   0.00000   0.00007   0.00007   3.14158
   D22       -0.00006   0.00000   0.00000   0.00004   0.00004  -0.00003
   D23       -0.00001   0.00000   0.00000   0.00001   0.00001   0.00000
   D24       -3.14159  -0.00000   0.00000  -0.00002  -0.00002   3.14158
   D25       -0.00001  -0.00000   0.00000   0.00000   0.00000  -0.00000
   D26        3.14157   0.00000   0.00000   0.00002   0.00002   3.14159
   D27        3.14158  -0.00000   0.00000  -0.00001  -0.00001   3.14157
   D28       -0.00003   0.00000   0.00000   0.00001   0.00001  -0.00002
   D29        0.00003  -0.00000   0.00000  -0.00005  -0.00005  -0.00002
   D30        2.05621   0.00213   0.00000   0.02632   0.02642   2.08263
   D31       -2.05617  -0.00213   0.00000  -0.02637  -0.02647  -2.08264
   D32       -3.14155  -0.00000   0.00000  -0.00004  -0.00004   3.14159
   D33       -1.08538   0.00213   0.00000   0.02633   0.02643  -1.05895
   D34        1.08543  -0.00213   0.00000  -0.02637  -0.02646   1.05897
   D35       -3.14156   0.00000   0.00000  -0.00002  -0.00002  -3.14158
   D36       -0.00004   0.00000   0.00000   0.00006   0.00006   0.00002
   D37        1.08572  -0.00199   0.00000  -0.02477  -0.02489   1.06083
   D38       -2.05594  -0.00199   0.00000  -0.02470  -0.02482  -2.08076
   D39       -1.08563   0.00199   0.00000   0.02470   0.02482  -1.06082
   D40        2.05589   0.00199   0.00000   0.02477   0.02489   2.08078
   D41        3.14155   0.00000   0.00000   0.00004   0.00004   3.14159
   D42       -0.00000  -0.00000   0.00000   0.00000   0.00000  -0.00000
   D43        0.00003  -0.00000   0.00000  -0.00004  -0.00004  -0.00001
   D44       -3.14152  -0.00000   0.00000  -0.00008  -0.00008   3.14159
   D45        0.00003  -0.00000   0.00000  -0.00005  -0.00004  -0.00001
   D46       -3.14157  -0.00000   0.00000  -0.00002  -0.00002  -3.14159
   D47        3.14156   0.00000   0.00000   0.00002   0.00002   3.14158
   D48       -0.00004   0.00000   0.00000   0.00005   0.00005   0.00001
   D49        0.00005  -0.00000   0.00000  -0.00006  -0.00006  -0.00001
   D50       -3.14158  -0.00000   0.00000  -0.00002  -0.00002  -3.14159
   D51       -3.14158  -0.00000   0.00000  -0.00002  -0.00002   3.14158
   D52       -0.00003   0.00000   0.00000   0.00003   0.00003   0.00000
   D53       -0.00012   0.00000   0.00000   0.00014   0.00014   0.00003
   D54       -3.14155  -0.00000   0.00000  -0.00003  -0.00003  -3.14158
   D55        3.14151   0.00000   0.00000   0.00010   0.00010  -3.14158
   D56        0.00008  -0.00000   0.00000  -0.00007  -0.00007   0.00001
   D57        0.00010  -0.00000   0.00000  -0.00013  -0.00013  -0.00003
   D58        3.14155   0.00000   0.00000   0.00001   0.00001   3.14156
   D59        3.14154   0.00000   0.00000   0.00004   0.00004   3.14158
   D60       -0.00020   0.00000   0.00000   0.00018   0.00018  -0.00002
   D61        3.14156   0.00000   0.00000   0.00007   0.00007  -3.14156
   D62       -0.00002   0.00000   0.00000   0.00003   0.00003   0.00001
   D63        0.00011  -0.00000   0.00000  -0.00008  -0.00008   0.00003
   D64       -3.14147  -0.00000   0.00000  -0.00011  -0.00011  -3.14158
         Item               Value     Threshold  Converged?
 Maximum Force            0.014722     0.000450     NO 
 RMS     Force            0.002786     0.000300     NO 
 Maximum Displacement     0.061255     0.001800     NO 
 RMS     Displacement     0.016620     0.001200     NO 
 Predicted change in Energy=-1.691066D-03
 GradGradGradGradGradGradGradGradGradGradGradGradGradGradGradGradGradGrad

                          Input orientation:                          
 ---------------------------------------------------------------------
 Center     Atomic      Atomic             Coordinates (Angstroms)
 Number     Number       Type             X           Y           Z
 ---------------------------------------------------------------------
      1         35           0       -5.246322   -0.443510   -0.504395
      2          6           0       -3.398527   -0.076214   -0.319798
      3          6           0       -2.974940    1.250008   -0.236599
      4          6           0       -1.616658    1.538377   -0.100315
      5          6           0       -0.698181    0.490572   -0.049048
      6          6           0       -1.141044   -0.841366   -0.134220
      7          6           0       -2.490556   -1.138025   -0.269972
      8          6           0        0.037667   -1.787916   -0.055299
      9          6           0        1.212955   -0.842486    0.085521
     10          6           0        2.566098   -1.134023    0.202253
     11          6           0        3.476433   -0.078412    0.321961
     12          6           0        3.033961    1.245648    0.324197
     13          6           0        1.674732    1.540949    0.207042
     14          6           0        0.764666    0.490658    0.087534
     15          1           0       -3.707415    2.057944   -0.278383
     16          1           0       -1.290031    2.578357   -0.035597
     17          1           0       -2.837202   -2.171008   -0.336328
     18          1           0       -0.045742   -2.459255    0.813794
     19          1           0        0.120500   -2.400683   -0.966688
     20          1           0        2.916978   -2.168672    0.200975
     21          1           0        4.544794   -0.287288    0.414826
     22          1           0        3.760187    2.056089    0.418639
     23          1           0        1.337846    2.580357    0.209802
 ---------------------------------------------------------------------
                    Distance matrix (angstroms):
                    1          2          3          4          5
     1  Br   0.000000
     2  C    1.892968   0.000000
     3  C    2.845856   1.394709   0.000000
     4  C    4.155192   2.414567   1.395228   0.000000
     5  C    4.665345   2.772440   2.407395   1.394318   0.000000
     6  C    4.141090   2.390842   2.783433   2.427042   1.406215
     7  C    2.851588   1.397977   2.436893   2.820569   2.431819
     8  C    5.470800   3.848027   4.282248   3.715244   2.394372
     9  C    6.498419   4.692252   4.692628   3.702668   2.334008
    10  C    7.874648   6.080153   6.048082   4.972797   3.654857
    11  C    8.769414   6.904849   6.610363   5.360214   4.229514
    12  C    8.491343   6.598405   6.035014   4.679119   3.826008
    13  C    7.234999   5.350770   4.679841   3.305710   2.607603
    14  C    6.111876   4.221308   3.829663   2.608391   1.469209
    15  H    2.945606   2.156794   1.091342   2.161695   3.400697
    16  H    5.000369   3.401951   2.154955   1.091985   2.170096
    17  H    2.969235   2.168760   3.425240   3.912156   3.426652
    18  H    5.731220   4.266742   4.841710   4.391404   3.141919
    19  H    5.731232   4.266752   4.841727   4.391413   3.141919
    20  H    8.373363   6.673469   6.825946   5.864029   4.494826
    21  H    9.835412   7.980011   7.702859   6.446853   5.320623
    22  H    9.392400   7.505943   6.814765   5.426582   4.748328
    23  H    7.280462   5.456288   4.535331   3.148172   2.929097
                    6          7          8          9         10
     6  C    0.000000
     7  C    1.388386   0.000000
     8  C    1.513785   2.619227   0.000000
     9  C    2.364234   3.732253   1.514916   0.000000
    10  C    3.733868   5.078657   2.624286   1.389106   0.000000
    11  C    4.702265   6.089180   3.858735   2.400634   1.399054
    12  C    4.690037   6.046091   4.280690   2.780887   2.428291
    13  C    3.704117   4.975346   3.718891   2.430796   2.819580
    14  C    2.335636   3.657442   2.396002   1.406499   2.428561
    15  H    3.874667   3.419801   5.372713   5.723195   7.055256
    16  H    3.424388   3.912504   4.563716   4.240492   5.357991
    17  H    2.164658   1.091613   2.913864   4.283305   5.528206
    18  H    2.171631   2.982836   1.101352   2.174544   2.991978
    19  H    2.171627   2.982839   1.101351   2.174530   2.991956
    20  H    4.282714   5.524984   2.915662   2.162358   1.092528
    21  H    5.739095   7.119610   4.773583   3.393794   2.162726
    22  H    5.720399   7.053249   5.371977   3.873124   3.413133
    23  H    4.239273   5.358471   4.565364   3.427374   3.912196
                   11         12         13         14         15
    11  C    0.000000
    12  C    1.396038   0.000000
    13  C    2.425214   1.395862   0.000000
    14  C    2.780733   2.403273   1.394853   0.000000
    15  H    7.518783   6.816823   5.428667   4.752871   0.000000
    16  H    5.468587   4.538994   3.150382   2.931796   2.484656
    17  H    6.683882   6.824982   5.867829   4.498619   4.317947
    18  H    4.279723   4.842580   4.396568   3.144233   5.916569
    19  H    4.279701   4.842558   4.396561   3.144231   5.916591
    20  H    2.167213   3.418545   3.912097   3.423062   7.872525
    21  H    1.092543   2.154234   3.409235   3.873202   8.606951
    22  H    2.155448   1.092308   2.158532   3.396078   7.500061
    23  H    3.413969   2.161327   1.092642   2.170329   5.095675
                   16         17         18         19         20
    16  H    0.000000
    17  H    5.004062   0.000000
    18  H    5.258066   3.032839   0.000000
    19  H    5.258076   3.032837   1.789184   0.000000
    20  H    6.347376   5.779212   3.039358   3.039335   0.000000
    21  H    6.516133   7.655488   5.094079   5.094055   2.497023
    22  H    5.097430   7.871712   5.918578   5.918553   4.313581
    23  H    2.639312   6.348602   5.260875   5.260876   5.004698
                   21         22         23
    21  H    0.000000
    22  H    2.471242   0.000000
    23  H    4.306963   2.487207   0.000000
 Stoichiometry    C13H9Br
 Framework group  C1[X(C13H9Br)]
 Deg. of freedom    63
 Full point group                 C1      NOp   1
 Largest Abelian subgroup         C1      NOp   1
 Largest concise Abelian subgroup C1      NOp   1
                         Standard orientation:                         
 ---------------------------------------------------------------------
 Center     Atomic      Atomic             Coordinates (Angstroms)
 Number     Number       Type             X           Y           Z
 ---------------------------------------------------------------------
      1         35           0        3.834240   -0.111682    0.000006
      2          6           0        1.958215    0.141022    0.000001
      3          6           0        1.448010    1.439061   -0.000020
      4          6           0        0.067792    1.643167   -0.000008
      5          6           0       -0.785323    0.540299   -0.000001
      6          6           0       -0.255427   -0.762257    0.000004
      7          6           0        1.116535   -0.975182    0.000007
      8          6           0       -1.375950   -1.780084   -0.000016
      9          6           0       -2.615125   -0.908638   -0.000007
     10          6           0       -3.952772   -1.283227   -0.000003
     11          6           0       -4.933452   -0.285420    0.000007
     12          6           0       -4.575332    1.063903    0.000024
     13          6           0       -3.231830    1.442626   -0.000001
     14          6           0       -2.251761    0.450114   -0.000010
     15          1           0        2.130145    2.290952   -0.000036
     16          1           0       -0.326743    2.661388   -0.000016
     17          1           0        1.530687   -1.985181    0.000015
     18          1           0       -1.334223   -2.421125   -0.894611
     19          1           0       -1.334241   -2.421134    0.894573
     20          1           0       -4.237749   -2.337933   -0.000008
     21          1           0       -5.990953   -0.559901    0.000010
     22          1           0       -5.355631    1.828279    0.000046
     23          1           0       -2.961190    2.501220   -0.000015
 ---------------------------------------------------------------------
 Rotational constants (GHZ):           2.1476262           0.2132811           0.1942542
 Standard basis: def2SVP (5D, 7F)
 There are   275 symmetry adapted cartesian basis functions of A   symmetry.
 There are   259 symmetry adapted basis functions of A   symmetry.
   259 basis functions,   468 primitive gaussians,   275 cartesian basis functions
    61 alpha electrons       61 beta electrons
       nuclear repulsion energy      1038.3231750245 Hartrees.
 NAtoms=   23 NActive=   23 NUniq=   23 SFac= 1.00D+00 NAtFMM=   60 NAOKFM=F Big=F
 Integral buffers will be    131072 words long.
 Raffenetti 2 integral format.
 Two-electron integral symmetry is turned on.
 Nuclear repulsion after empirical dispersion term =     1038.3085964200 Hartrees.
 One-electron integrals computed using PRISM.
   1 Symmetry operations used in ECPInt.
 ECPInt:  NShTT=    6903 NPrTT=   27032 LenC2=    6463 LenP2D=   18467.
 LDataN:  DoStor=T MaxTD1= 4 Len=   56
 NBasis=   259 RedAO= T EigKep=  2.47D-04  NBF=   259
 NBsUse=   259 1.00D-06 EigRej= -1.00D+00 NBFU=   259
 Initial guess from the checkpoint file:  "/home/rpaton/opt/dzvp/Gau-2223400.chk"
 B after Tr=    -0.000000    0.000000   -0.000000
         Rot=    1.000000    0.000000   -0.000000    0.000251 Ang=   0.03 deg.
 ExpMin= 1.22D-01 ExpMax= 1.13D+05 ExpMxC= 1.70D+04 IAcc=3 IRadAn=         5 AccDes= 0.00D+00
 Harris functional with IExCor= 4639 and IRadAn=       5 diagonalized for initial guess.
 HarFok:  IExCor= 4639 AccDes= 0.00D+00 IRadAn=         5 IDoV= 1 UseB2=F ITyADJ=14
 ICtDFT=  3500011 ScaDFX=  1.000000  1.000000  1.000000  1.000000
 FoFCou: FMM=F IPFlag=           0 FMFlag=      100000 FMFlg1=           0
         NFxFlg=           0 DoJE=T BraDBF=F KetDBF=T FulRan=T
         wScrn=  0.000000 ICntrl=       500 IOpCl=  0 I1Cent=   200000004 NGrid=           0
         NMat0=    1 NMatS0=      1 NMatT0=    0 NMatD0=    1 NMtDS0=    0 NMtDT0=    0
 Petite list used in FoFCou.
 Requested convergence on RMS density matrix=1.00D-08 within 128 cycles.
 Requested convergence on MAX density matrix=1.00D-06.
 Requested convergence on             energy=1.00D-06.
 No special actions if energy rises.
 Integral accuracy reduced to 1.0D-05 until final iterations.
 Initial convergence to 1.0D-05 achieved.  Increase integral accuracy.
 SCF Done:  E(RwB97XD) =  -3074.19964195     A.U. after   13 cycles
            NFock= 13  Conv=0.41D-08     -V/T= 2.0027
   1 Symmetry operations used in ECPInt.
 ECPInt:  NShTT=    6903 NPrTT=   27032 LenC2=    6463 LenP2D=   18467.
 LDataN:  DoStor=T MaxTD1= 5 Len=  102
 Calling FoFJK, ICntrl=      2127 FMM=F ISym2X=0 I1Cent= 0 IOpClX= 0 NMat=1 NMatS=1 NMatT=0.
 ***** Axes restored to original set *****
 -------------------------------------------------------------------
 Center     Atomic                   Forces (Hartrees/Bohr)
 Number     Number              X              Y              Z
 -------------------------------------------------------------------
      1       35          -0.000331316   -0.000405685   -0.000044231
      2        6           0.000575104   -0.001974969   -0.000010261
      3        6           0.001314058    0.001935613    0.000184766
      4        6          -0.000102417   -0.000416149   -0.000022175
      5        6          -0.002249743    0.000902681   -0.000179297
      6        6           0.002631419   -0.000824550    0.000220244
      7        6          -0.000577053    0.000361539   -0.000042609
      8        6           0.000139021    0.005605102    0.000194658
      9        6          -0.002903889   -0.001722224   -0.000325952
     10        6           0.001457431    0.001520940    0.000186706
     11        6          -0.000233547   -0.001844814   -0.000084226
     12        6          -0.001267022    0.000605118   -0.000096255
     13        6           0.000229726    0.000572518    0.000039813
     14        6           0.002389843    0.000510099    0.000238290
     15        1           0.000170050   -0.000271397    0.000006689
     16        1           0.000295668    0.000000210    0.000027651
     17        1          -0.000469469    0.000243903   -0.000035705
     18        1           0.000084813   -0.001994747   -0.000892104
     19        1          -0.000070152   -0.002050350    0.000760382
     20        1           0.000060608   -0.000070322    0.000003454
     21        1          -0.000341739   -0.000517128   -0.000049151
     22        1          -0.000357127    0.000106085   -0.000029377
     23        1          -0.000444268   -0.000271473   -0.000051312
 -------------------------------------------------------------------
 Cartesian Forces:  Max     0.005605102 RMS     0.001169561

 GradGradGradGradGradGradGradGradGradGradGradGradGradGradGradGradGradGrad
 Berny optimization.
 Using GEDIIS/GDIIS optimizer.
 FormGI is forming the generalized inverse of G from B-inverse, IUseBI=4.
 Internal  Forces:  Max     0.001731255 RMS     0.000514787
 Search for a local minimum.
 Step number   2 out of a maximum of  138
 All quantities printed in internal units (Hartrees-Bohrs-Radians)
 Mixed Optimization -- En-DIIS/RFO-DIIS
 Update second derivatives using D2CorX and points    1    2
 DE= -1.73D-03 DEPred=-1.69D-03 R= 1.02D+00
 TightC=F SS=  1.41D+00  RLast= 1.29D-01 DXNew= 5.0454D-01 3.8740D-01
 Trust test= 1.02D+00 RLast= 1.29D-01 DXMaxT set to 3.87D-01
 ITU=  1  0
 Use linear search instead of GDIIS.
     Eigenvalues ---    0.00888   0.01364   0.01537   0.01749   0.01854
     Eigenvalues ---    0.01968   0.02055   0.02055   0.02087   0.02089
     Eigenvalues ---    0.02093   0.02095   0.02196   0.02202   0.02210
     Eigenvalues ---    0.02213   0.02219   0.02221   0.05007   0.06338
     Eigenvalues ---    0.08378   0.09191   0.15816   0.16000   0.16000
     Eigenvalues ---    0.16000   0.16000   0.16000   0.16126   0.18609
     Eigenvalues ---    0.21974   0.22400   0.22610   0.23475   0.24135
     Eigenvalues ---    0.24363   0.24630   0.24998   0.25062   0.29536
     Eigenvalues ---    0.30178   0.34191   0.34371   0.35084   0.35104
     Eigenvalues ---    0.35164   0.35416   0.35421   0.35447   0.35612
     Eigenvalues ---    0.37622   0.37801   0.40467   0.42491   0.42648
     Eigenvalues ---    0.43679   0.44568   0.45734   0.46211   0.47324
     Eigenvalues ---    0.47490   0.47822   0.51548
 RFO step:  Lambda=-1.88133740D-04 EMin= 8.88174922D-03
 Quartic linear search produced a step of  0.04919.
 Iteration  1 RMS(Cart)=  0.00365028 RMS(Int)=  0.00002134
 Iteration  2 RMS(Cart)=  0.00001857 RMS(Int)=  0.00000944
 Iteration  3 RMS(Cart)=  0.00000000 RMS(Int)=  0.00000944
 Variable       Old X    -DE/DX   Delta X   Delta X   Delta X     New X
                                 (Linear)    (Quad)   (Total)
    R1        3.57719   0.00041   0.00003   0.00229   0.00232   3.57951
    R2        2.63562   0.00173  -0.00097   0.00411   0.00314   2.63876
    R3        2.64179  -0.00110   0.00022  -0.00241  -0.00219   2.63960
    R4        2.63660  -0.00090  -0.00040  -0.00205  -0.00245   2.63415
    R5        2.06234  -0.00032   0.00037  -0.00091  -0.00054   2.06180
    R6        2.63488  -0.00102   0.00085  -0.00222  -0.00136   2.63352
    R7        2.06355   0.00009   0.00067   0.00032   0.00098   2.06454
    R8        2.65736  -0.00003  -0.00062  -0.00009  -0.00071   2.65666
    R9        2.77640   0.00004   0.00198   0.00089   0.00287   2.77927
   R10        2.62367   0.00026   0.00027   0.00053   0.00080   2.62447
   R11        2.86064  -0.00140  -0.00015  -0.00543  -0.00558   2.85506
   R12        2.06285  -0.00008   0.00065  -0.00018   0.00047   2.06332
   R13        2.86278  -0.00172  -0.00001  -0.00646  -0.00646   2.85632
   R14        2.08125   0.00051   0.00070   0.00160   0.00230   2.08355
   R15        2.08125   0.00051   0.00069   0.00160   0.00229   2.08354
   R16        2.62503   0.00030   0.00039   0.00063   0.00102   2.62605
   R17        2.65790   0.00008  -0.00053   0.00029  -0.00024   2.65766
   R18        2.64383  -0.00159   0.00026  -0.00359  -0.00333   2.64050
   R19        2.06458   0.00009   0.00072   0.00031   0.00103   2.06561
   R20        2.63813   0.00137  -0.00087   0.00319   0.00232   2.64045
   R21        2.06461  -0.00024   0.00045  -0.00068  -0.00023   2.06438
   R22        2.63780  -0.00093  -0.00027  -0.00209  -0.00236   2.63543
   R23        2.06416  -0.00016   0.00043  -0.00045  -0.00001   2.06415
   R24        2.63589  -0.00102   0.00095  -0.00215  -0.00120   2.63469
   R25        2.06479  -0.00012   0.00075  -0.00030   0.00045   2.06525
    A1        2.07920   0.00052  -0.00016   0.00202   0.00186   2.08106
    A2        2.08299  -0.00067  -0.00002  -0.00297  -0.00299   2.08000
    A3        2.12099   0.00015   0.00018   0.00095   0.00114   2.12213
    A4        2.09212  -0.00020  -0.00059  -0.00067  -0.00126   2.09086
    A5        2.09190   0.00004  -0.00033  -0.00010  -0.00042   2.09148
    A6        2.09917   0.00016   0.00091   0.00077   0.00168   2.10085
    A7        2.08238  -0.00032   0.00077  -0.00155  -0.00078   2.08160
    A8        2.08727   0.00045  -0.00060   0.00267   0.00207   2.08934
    A9        2.11353  -0.00013  -0.00017  -0.00112  -0.00129   2.11224
   A10        2.09683   0.00102  -0.00032   0.00367   0.00336   2.10019
   A11        2.29062  -0.00032   0.00038  -0.00128  -0.00090   2.28972
   A12        1.89574  -0.00070  -0.00007  -0.00239  -0.00246   1.89328
   A13        2.11113  -0.00058  -0.00054  -0.00219  -0.00273   2.10840
   A14        1.92184   0.00079  -0.00016   0.00217   0.00202   1.92386
   A15        2.25022  -0.00021   0.00070   0.00002   0.00071   2.25093
   A16        2.06292  -0.00005   0.00049  -0.00021   0.00028   2.06320
   A17        2.10636  -0.00051  -0.00067  -0.00347  -0.00414   2.10222
   A18        2.11391   0.00057   0.00019   0.00368   0.00387   2.11777
   A19        1.79128  -0.00030   0.00059   0.00004   0.00060   1.79189
   A20        1.94263   0.00050   0.00052   0.00591   0.00639   1.94901
   A21        1.94262   0.00050   0.00052   0.00591   0.00639   1.94902
   A22        1.94531   0.00049   0.00063   0.00581   0.00641   1.95171
   A23        1.94529   0.00050   0.00063   0.00583   0.00643   1.95171
   A24        1.89606  -0.00155  -0.00260  -0.02155  -0.02412   1.87194
   A25        2.25565   0.00009   0.00095   0.00119   0.00214   2.25778
   A26        1.92239   0.00071  -0.00016   0.00183   0.00169   1.92408
   A27        2.10515  -0.00080  -0.00080  -0.00303  -0.00383   2.10132
   A28        2.07450   0.00016   0.00078   0.00064   0.00142   2.07592
   A29        2.10773  -0.00004  -0.00046  -0.00009  -0.00055   2.10718
   A30        2.10096  -0.00012  -0.00032  -0.00055  -0.00087   2.10008
   A31        2.10542   0.00003  -0.00014   0.00021   0.00007   2.10550
   A32        2.09359  -0.00061   0.00021  -0.00397  -0.00376   2.08982
   A33        2.08418   0.00058  -0.00007   0.00376   0.00369   2.08787
   A34        2.10499   0.00012  -0.00024   0.00073   0.00049   2.10547
   A35        2.08646   0.00029   0.00004   0.00191   0.00196   2.08842
   A36        2.09174  -0.00041   0.00020  -0.00264  -0.00244   2.08930
   A37        2.07512  -0.00062   0.00044  -0.00286  -0.00242   2.07270
   A38        2.09586   0.00084  -0.00015   0.00488   0.00473   2.10058
   A39        2.11220  -0.00021  -0.00029  -0.00202  -0.00231   2.10990
   A40        1.89353  -0.00050  -0.00021  -0.00165  -0.00186   1.89167
   A41        2.28846  -0.00061   0.00025  -0.00266  -0.00242   2.28605
   A42        2.10119   0.00111  -0.00004   0.00431   0.00427   2.10546
    D1       -3.14158  -0.00000   0.00000  -0.00001  -0.00001  -3.14159
    D2        0.00000   0.00000  -0.00001   0.00000  -0.00000   0.00000
    D3        0.00002  -0.00000   0.00001  -0.00003  -0.00002  -0.00000
    D4       -3.14158  -0.00000  -0.00000  -0.00001  -0.00002   3.14159
    D5        3.14159  -0.00000  -0.00000  -0.00000  -0.00000   3.14159
    D6       -0.00000  -0.00000  -0.00000  -0.00000  -0.00000  -0.00000
    D7       -0.00001   0.00000  -0.00000   0.00001   0.00001   0.00000
    D8        3.14158   0.00000  -0.00000   0.00001   0.00001  -3.14159
    D9       -0.00002   0.00000  -0.00001   0.00003   0.00002   0.00000
   D10        3.14158   0.00000  -0.00000   0.00001   0.00001   3.14159
   D11        3.14158   0.00000   0.00000   0.00001   0.00002  -3.14159
   D12        0.00000  -0.00000   0.00000  -0.00000  -0.00000   0.00000
   D13        0.00001  -0.00000   0.00000  -0.00001  -0.00001  -0.00000
   D14       -3.14157  -0.00000   0.00000  -0.00002  -0.00002  -3.14159
   D15        3.14159   0.00000   0.00000   0.00001   0.00001  -3.14159
   D16        0.00001   0.00000   0.00000  -0.00000  -0.00000   0.00000
   D17        0.00000  -0.00000  -0.00000  -0.00000  -0.00001  -0.00000
   D18       -3.14157  -0.00000  -0.00000  -0.00002  -0.00002   3.14159
   D19        3.14159  -0.00000   0.00000   0.00000   0.00000   3.14159
   D20        0.00001  -0.00000   0.00000  -0.00001  -0.00001  -0.00000
   D21        3.14158  -0.00000   0.00000  -0.00000   0.00000   3.14159
   D22       -0.00003   0.00000   0.00000   0.00002   0.00002  -0.00001
   D23        0.00000  -0.00000   0.00000  -0.00001  -0.00001  -0.00000
   D24        3.14158   0.00000  -0.00000   0.00001   0.00001   3.14159
   D25       -0.00000   0.00000   0.00000   0.00000   0.00000   0.00000
   D26        3.14159   0.00000   0.00000   0.00000   0.00000   3.14159
   D27        3.14157   0.00000  -0.00000   0.00002   0.00002  -3.14159
   D28       -0.00002   0.00000   0.00000   0.00002   0.00002  -0.00000
   D29       -0.00002   0.00000  -0.00000   0.00003   0.00002   0.00001
   D30        2.08263   0.00065   0.00130   0.00968   0.01100   2.09363
   D31       -2.08264  -0.00065  -0.00130  -0.00966  -0.01098  -2.09362
   D32        3.14159   0.00000  -0.00000   0.00001   0.00001  -3.14159
   D33       -1.05895   0.00065   0.00130   0.00967   0.01099  -1.04796
   D34        1.05897  -0.00065  -0.00130  -0.00967  -0.01100   1.04797
   D35       -3.14158  -0.00000  -0.00000  -0.00001  -0.00001   3.14159
   D36        0.00002  -0.00000   0.00000  -0.00003  -0.00003  -0.00001
   D37        1.06083  -0.00065  -0.00122  -0.00975  -0.01099   1.04984
[...]
 .00932008,0.00265129,0.00884820,-0.10045106,-0.00020136,-0.03178529,-0
 .00908716,-0.00353944,-0.00001513,-0.00597007,-0.00035728,-0.00767210,
 -0.03066800,-0.00192297,0.01537939,-0.29471023,-0.00558387,0.08757726,
 0.01595404,0.00838494,-0.01343069,-0.07648577,-0.00349522,-0.06694925,
 0.05920847,-0.00461078,-0.07806219,-0.26815605,-0.01376960,0.07869542,
 0.72199523,0.00009610,0.00003676,-0.00033516,-0.00009790,-0.00021123,-
 0.00089641,0.00002707,0.00003690,0.00649042,-0.00167634,0.00088489,0.0
 0359281,-0.01594076,-0.00190092,-0.07077309,-0.00470161,-0.00341003,0.
 00774877,-0.00025215,-0.00047761,0.00480731,-0.00054481,-0.00244765,0.
 00587442,-0.00467339,0.00115497,-0.08175805,0.00175559,0.00346192,0.00
 987868,0.00009563,-0.00380293,-0.00847550,-0.00769607,0.00058192,0.008
 68225,-0.01600063,-0.01929621,-0.07327072,0.05181915,0.02555555,0.1742
 3746,0.00075417,-0.00090032,0.00026630,0.00785814,-0.01031122,0.000147
 96,-0.18779275,0.14717090,-0.00918809,-0.01282856,0.02300833,-0.000827
 22,-0.00461735,-0.00237366,-0.00119362,-0.00038241,-0.00088398,0.00001
 728,0.00004991,-0.00236568,-0.00059274,0.00001001,-0.00001639,0.000040
 74,-0.00044490,-0.00007807,-0.00001841,0.00003631,0.00013143,0.0000126
 4,-0.00002758,-0.00001212,-0.00000288,-0.00001487,-0.00002695,0.000001
 03,-0.00001702,0.00008547,0.00000149,0.00015839,0.00110049,0.00001659,
 0.19585048,0.00029113,0.00050519,0.00012328,0.02110330,-0.01526309,0.0
 0138113,0.14509518,-0.21824439,0.00759885,-0.00715340,0.00901718,-0.00
 050737,-0.00219626,0.00078234,-0.00042053,-0.00111516,-0.00008997,-0.0
 0007814,-0.00298245,-0.00399192,-0.00059289,0.00006264,0.00003853,0.00
 002134,-0.00008572,0.00001804,0.00000165,0.00000114,0.00004903,0.00000
 345,0.00001112,0.00000449,0.00000122,0.00000484,-0.00002162,0.00000091
 ,0.00000959,0.00000701,0.00000122,-0.00011990,0.00035785,-0.00001155,-
 0.15403925,0.22702671,0.00030549,0.00001205,-0.00238670,0.00118158,-0.
 00155169,0.00269840,-0.00925640,0.00779269,-0.03811255,-0.00181958,0.0
 0230839,0.00404710,-0.00118779,-0.00043708,0.00720659,0.00000969,-0.00
 005655,-0.00088006,-0.00061308,-0.00053530,0.00549067,0.00004335,0.000
 01396,-0.00042769,-0.00001866,0.00000236,-0.00027694,0.00000835,0.0000
 1562,-0.00005146,-0.00000212,-0.00000095,-0.00000122,0.00000208,-0.000
 00206,-0.00003532,-0.00000101,0.00000830,-0.00000269,-0.00002357,0.000
 10238,0.00036973,0.01081372,-0.00775745,0.02648328,-0.00093096,-0.0008
 4829,-0.00012177,-0.00406687,-0.00036009,-0.00108486,-0.00373619,-0.02
 939979,-0.00170944,-0.08504953,-0.08075381,-0.00697402,0.01235309,0.01
 915794,0.00137674,-0.00234677,0.00300849,-0.00077057,-0.00099980,0.000
 48427,0.00000242,0.00033664,0.00083636,0.00006649,0.00024695,0.0000946
 4,0.00002138,0.00002622,-0.00012071,-0.00001483,0.00004884,-0.00004658
 ,0.00000691,-0.00016179,-0.00025379,-0.00001540,0.00013585,0.00084221,
 0.00004581,0.00028709,-0.00080903,0.00036100,0.00089818,0.00020085,0.0
 0051256,0.08359833,-0.00004134,-0.00011562,-0.00001011,-0.00059766,0.0
 0174933,-0.00024260,0.00189986,-0.00152532,-0.00001145,-0.08283877,-0.
 31843655,-0.01693384,-0.01028217,-0.01551711,-0.00161384,0.00362349,-0
 .00111908,0.00007223,0.00065263,0.00040071,0.00010224,-0.00055573,-0.0
 0067064,-0.00007129,-0.00001441,-0.00027473,-0.00001207,-0.00010738,0.
 00006622,-0.00001254,-0.00000506,0.00010347,0.00000430,0.00020222,0.00
 024511,0.00002978,0.00033514,-0.00023732,0.00002539,-0.00120390,0.0006
 3784,0.00003575,-0.00007853,0.00059084,0.00016087,0.08828501,0.3340973
 8,-0.00009522,-0.00008545,0.00006274,-0.00109268,-0.00022041,0.0073177
 1,-0.00067962,-0.00293346,0.00405320,-0.00704263,-0.01673925,-0.040014
 79,0.00040811,0.00113463,0.00443332,-0.00075033,0.00001481,0.00689788,
 0.00000797,0.00008652,-0.00085146,0.00002068,0.00005867,-0.00007698,0.
 00001779,-0.00000189,0.00005289,-0.00001439,-0.00001378,0.00014074,0.0
 0000828,0.00000043,-0.00004083,-0.00000040,-0.00001279,-0.00008668,0.0
 0002914,0.00007273,-0.00005301,0.00034800,0.00007262,-0.00383000,0.000
 50337,0.00018695,-0.00446826,0.00831563,0.01839080,0.02702028,0.000599
 00,0.00082170,0.00030264,0.00848299,0.01993890,0.00119453,-0.00251758,
 0.00302282,-0.00070060,-0.00105238,0.00054408,-0.00000428,-0.00473399,
 0.00015328,-0.00117440,-0.00247514,-0.02875184,-0.00159856,-0.08661538
 ,-0.09016128,-0.00748259,0.00154723,0.00019986,0.00049198,-0.00004209,
 -0.00017263,0.00000499,0.00007634,0.00012411,0.00000644,-0.00002496,-0
 .00001274,-0.00000182,-0.00002720,-0.00008981,-0.00000808,-0.00040666,
 0.00025892,-0.00001552,0.00001449,-0.00146056,-0.00003426,0.00055868,0
 .00098553,0.00005810,0.00004872,-0.00007687,0.00009567,0.08712714,-0.0
 0034790,0.00082762,0.00007217,-0.01108208,-0.01553927,-0.00163513,0.00
 389195,-0.00118840,0.00012513,0.00041441,0.00058660,0.00008479,-0.0002
 4050,0.00155130,-0.00023130,0.00056039,-0.00073278,-0.00012036,-0.0867
 2378,-0.31635513,-0.01724604,0.00033179,0.00039985,0.00016428,-0.00012
 676,-0.00007174,-0.00000905,0.00004019,0.00001355,0.00000252,-0.000038
 49,-0.00003303,-0.00000435,-0.00002955,0.00001153,-0.00000329,-0.00002
 411,0.00007704,0.00000519,0.00018616,-0.00008426,0.00001899,-0.0004315
 3,-0.00078697,-0.00007551,-0.00003147,-0.00006376,0.00002797,0.0943494
 9,0.33116763,0.00026415,0.00018136,-0.00232255,0.00017396,0.00126088,0
 .00277200,-0.00067200,0.00004397,0.00599104,-0.00000855,0.00009691,-0.
 00081243,-0.00118736,-0.00019456,0.00778235,-0.00063421,-0.00285686,0.
 00436247,-0.00736948,-0.01756691,-0.03950390,0.00049632,0.00015197,-0.
 00360083,0.00000650,-0.00001333,-0.00015626,0.00000368,0.00001035,0.00
 005173,-0.00000267,-0.00000195,-0.00001023,-0.00000610,-0.00000892,0.0
 0002685,-0.00002483,0.00003161,-0.00015046,0.00001992,-0.00013474,-0.0
 0013584,0.00001147,0.00005678,0.00028663,0.00009717,0.00002373,-0.0009
 9332,0.00888097,0.01887269,0.02669664,0.00000184,-0.00001787,-0.000061
 44,0.00042434,0.00003730,0.00089828,-0.00028559,0.00041285,-0.00022411
 ,0.00020540,0.00024676,0.00097087,-0.00297420,0.00123617,0.00065481,0.
 00294121,0.01586684,-0.02116135,0.00038685,0.00026834,0.00082496,-0.04
 536981,-0.01270925,0.01625114,-0.00097090,-0.01531908,0.02063726,0.000
 68152,-0.00032157,-0.00087839,0.00046597,-0.00003775,-0.00083246,-0.00
 023561,-0.00042824,0.00016383,0.00026971,-0.00027420,-0.00092158,-0.00
 271864,-0.00103442,-0.00105743,0.00001193,-0.00002798,-0.00000690,-0.0
 0014951,0.00018336,0.00008279,-0.00018653,-0.00033888,-0.00051302,0.04
 807314,0.00003697,0.00001016,0.00003572,0.00017321,-0.00051261,-0.0006
 9706,0.00001613,0.00018127,0.00011362,0.00004452,-0.00051957,-0.000866
 11,0.00121200,-0.00117879,0.00054333,-0.00124026,-0.01125568,0.0121354
 0,-0.00115351,0.00063718,-0.00059958,-0.01276828,-0.14280397,0.1342426
 6,-0.00101416,-0.01113456,0.01198835,0.00125476,0.00064048,-0.00037811
 ,-0.00008245,-0.00047990,-0.00074839,-0.00002552,0.00016176,0.00010464
 ,0.00010218,-0.00050579,-0.00089117,-0.00133725,-0.00121015,0.00036328
 ,0.00000955,0.00000068,0.00011664,0.00010500,-0.00012832,-0.00005123,0
 .00010285,0.00008598,0.00056191,0.01357352,0.15649724,-0.00001483,-0.0
 0001240,0.00000079,-0.00016206,0.00041323,0.00010814,-0.00024520,-0.00
 020558,-0.00007206,0.00020674,-0.00016687,-0.00018345,-0.00033193,-0.0
 0049188,-0.00019621,-0.00053198,-0.00142177,0.00110650,0.00040917,0.00
 019006,0.00074136,0.01602601,0.13223156,-0.21113262,0.00017082,-0.0042
 9370,0.00527182,-0.00043305,0.00020245,0.00046973,0.00027454,0.0003423
 1,-0.00000054,0.00018141,-0.00026203,-0.00000614,-0.00008608,-0.000207
 05,-0.00038547,-0.00013752,-0.00074031,-0.00033821,-0.00000600,-0.0000
 1340,-0.00000602,0.00000041,-0.00001172,0.00001732,-0.00022471,0.00008
 281,-0.00019383,-0.01706427,-0.14217049,0.22372708,-0.00001219,-0.0000
 2380,0.00005777,0.00054633,0.00017271,-0.00081045,-0.00036602,0.000352
 54,0.00019330,0.00040550,0.00027319,-0.00084916,-0.00283520,0.00118620
 ,-0.00107167,-0.00116347,0.01400203,0.02178534,0.00062900,0.00035351,-
 0.00082820,-0.04532290,0.01149781,0.01657565,0.00311216,-0.01436126,-0
 .02196959,0.00043059,-0.00033585,0.00084828,0.00034978,-0.00002706,0.0
 0089389,-0.00016213,-0.00045768,-0.00022336,0.00006647,-0.00036884,0.0
 0097878,-0.00283975,-0.00119926,0.00051062,0.00000897,-0.00003054,0.00
 000844,-0.00013034,0.00018485,-0.00009885,-0.00032014,-0.00035160,0.00
 047045,-0.00007227,0.00135703,0.00178143,0.04803856,0.00004190,0.00001
 155,-0.00002811,0.00003157,-0.00052997,0.00067845,0.00002116,0.0001717
 8,-0.00009682,-0.00010420,-0.00058752,0.00084088,0.00128958,-0.0011863
 4,-0.00037145,0.00107777,-0.01058628,-0.01305408,-0.00121384,0.0006158
 8,0.00037804,0.01179710,-0.12562268,-0.12859890,0.00134314,-0.01047341
 ,-0.01286443,0.00113155,0.00062320,0.00060289,-0.00020043,-0.00050328,
 0.00068520,0.00000615,0.00015341,-0.00009370,-0.00007180,-0.00057522,0
 .00087499,-0.00123217,-0.00121619,-0.00066691,0.00003037,0.00000748,-0
 .00011211,0.00009534,-0.00013358,0.00006060,0.00018893,0.00012843,-0.0
 0051794,-0.00152529,0.01156588,0.01644085,-0.01247928,0.13813994,0.000
 01512,0.00000875,0.00001344,0.00024970,-0.00043136,0.00000350,0.000190
 45,0.00029036,0.00001785,-0.00010411,0.00019575,-0.00031559,-0.0000823
 0,0.00065635,-0.00032768,0.00016791,0.00330676,0.00454175,-0.00051074,
 -0.00013255,0.00052053,0.01680865,-0.12661030,-0.22836166,-0.00051578,
 0.00061608,0.00052747,0.00050308,-0.00026182,0.00073795,-0.00022028,-0
 .00038515,0.00013903,-0.00021245,0.00019208,-0.00007128,0.00016544,0.0
 0012801,-0.00011277,-0.00042036,0.00046801,-0.00021112,0.00001078,0.00
 000874,-0.00000986,-0.00002199,0.00003675,0.00000341,0.00021445,-0.000
 13054,-0.00010267,0.00176207,-0.01444010,-0.01888182,-0.01773789,0.136
 52757,0.24211999,-0.00002663,-0.00001856,-0.00000264,0.00001132,0.0000
 2626,0.00000270,-0.00003933,0.00009324,-0.00000282,-0.00043604,-0.0002
 5818,-0.00003581,-0.00005014,0.00151659,0.00005268,-0.00002882,0.00018
 467,0.00001845,0.00006956,-0.00012432,-0.00000197,0.00155284,-0.000221
 18,0.00046547,-0.00267206,0.02969984,0.00033059,-0.08948859,0.08781405
 ,-0.00178645,0.01081541,-0.02011424,-0.00002003,-0.00212586,-0.0031208
 0,-0.00098849,-0.00107781,-0.00062611,-0.00004868,-0.00492050,-0.00000
 848,-0.00119805,-0.00004486,-0.00001045,-0.00000626,0.00002202,-0.0000
 0768,0.00000176,-0.00003355,-0.00000074,-0.00000299,-0.00032151,-0.000
 20969,0.00019385,-0.00019555,-0.00009589,-0.00022458,0.08787417,0.0000
 7104,0.00001638,0.00000733,-0.00002937,-0.00006880,-0.00000473,0.00005
 783,0.00002641,0.00000549,0.00004621,0.00010090,0.00001235,-0.00024685
 ,-0.00015069,-0.00002538,0.00019419,-0.00004731,0.00002188,-0.00004320
 ,0.00001215,-0.00000517,-0.00034119,0.00042799,0.00009774,-0.00100959,
 -0.00189153,-0.00029641,0.08664215,-0.31338399,-0.00092521,0.01128981,
 -0.01529599,0.00042110,-0.00395247,-0.00136842,-0.00065625,-0.00044111
 ,0.00054165,0.00000221,0.00058880,0.00161755,-0.00015204,0.00001463,0.
 00000102,0.00000079,-0.00001624,0.00000143,-0.00000149,0.00000554,0.00
 000974,0.00000089,0.00036481,0.00009095,0.00012211,0.00040990,0.000131
 30,-0.00003275,-0.09403475,0.32940965,0.00000031,-0.00000103,-0.000004
 94,0.00000087,0.00000046,-0.00000828,-0.00000399,0.00000879,0.00002367
 ,-0.00002580,-0.00001606,-0.00014634,-0.00000534,0.00013925,-0.0000757
 6,0.00001876,0.00002099,-0.00015891,0.00000070,-0.00001275,0.00004651,
 0.00046150,0.00010894,-0.00346426,-0.00067973,0.00257049,0.00427447,-0
 .00182503,-0.00081569,-0.03960382,0.00101318,-0.00251076,0.00395353,-0
 .00101585,-0.00057861,0.00724863,-0.00004261,-0.00001506,-0.00078148,-
 0.00117838,-0.00020779,0.00779272,-0.00000543,-0.00000155,0.00001793,0
 .00000147,-0.00000069,0.00000061,-0.00000279,0.00000031,-0.00000198,0.
 00046000,0.00052731,-0.00006462,-0.00045519,-0.00053880,-0.00023092,0.
 00265950,0.00119519,0.02653572,-0.00006141,-0.00000493,-0.00001009,0.0
 0005255,-0.00000389,0.00000440,-0.00002530,0.00001898,0.00000164,-0.00
 002977,0.00000740,-0.00000593,0.00004929,0.00002366,0.00006364,-0.0001
 5579,-0.00030437,-0.00002117,-0.00006562,0.00009975,0.00002297,-0.0003
 4600,0.00067276,-0.00004505,-0.00071480,-0.00361768,-0.00084570,-0.013
 47576,0.00772372,-0.00137663,-0.33311932,0.05472665,-0.02571620,-0.004
 68900,-0.00233873,-0.00087948,0.00126775,0.00179382,-0.00045719,0.0007
 4762,-0.00036229,0.00013589,-0.00000788,0.00000205,-0.00000136,0.00001
 267,-0.00000169,-0.00000309,0.00000430,-0.00000547,0.00000071,-0.00004
 725,-0.00002967,0.00001147,-0.00002470,-0.00001695,-0.00002137,0.00071
 260,-0.00007924,0.00046519,0.34966928,-0.00001084,0.00000662,-0.000002
 27,-0.00000511,-0.00000588,-0.00000080,-0.00002496,0.00002832,-0.00000
 021,0.00000407,-0.00002958,-0.00000179,0.00000885,0.00014212,0.0000260
 3,-0.00015111,-0.00033164,-0.00002382,-0.00004661,0.00012807,0.0000089
 6,-0.00071790,0.00075229,-0.00005456,-0.00324128,-0.00336024,-0.000645
 72,-0.02370791,0.00887352,-0.00205270,0.05478005,-0.07022148,0.0040662
 0,0.02933541,-0.00015522,0.00260494,0.00125973,-0.00511718,-0.00027436
 ,-0.00056201,-0.00128002,-0.00006709,0.00000063,0.00000043,-0.00000017
 ,-0.00004178,0.00003273,-0.00000431,0.00001104,0.00000017,0.00000121,0
 .00000526,-0.00000942,0.00002391,0.00001650,-0.00000377,-0.00002289,0.
 00039279,0.00076427,0.00020323,-0.05834526,0.06915264,-0.00001028,-0.0
 0000172,0.00004392,0.00000436,-0.00000069,0.00000442,0.00000019,0.0000
 0390,-0.00003598,-0.00000604,-0.00000148,0.00003578,0.00006315,0.00002
 742,-0.00061728,-0.00001612,-0.00003813,-0.00003902,0.00001815,0.00002
 262,-0.00027409,-0.00009081,0.00007527,0.00036762,-0.00083328,-0.00068
 089,0.00696876,-0.00241086,0.00088164,0.00379645,-0.02571432,0.0040612
 3,-0.04063791,0.00016256,-0.00035204,0.00391140,-0.00047476,-0.0002245
 0,0.00674527,0.00012933,-0.00004842,-0.00082510,-0.00000141,-0.0000000
 4,0.00000728,-0.00000441,-0.00000057,0.00004480,0.00000125,-0.00000033
 ,-0.00000515,0.00009923,0.00005918,0.00002248,-0.00010688,-0.00006455,
 -0.00000571,0.00048073,0.00015916,-0.00424818,0.02826638,-0.00403798,0
 .02883464,-0.00007654,-0.00001327,-0.00000772,0.00006686,0.00004172,0.
 00000762,-0.00004748,0.00001696,-0.00000069,-0.00000852,-0.00010209,-0
 .00000344,0.00013207,-0.00117133,-0.00006542,-0.00047503,0.00006947,-0
 .00001601,0.00002329,-0.00014087,0.00000222,0.00003741,0.00000281,0.00
 006682,-0.00041236,0.00095595,0.00007025,0.00037948,0.00238316,-0.0005
 2407,0.00996160,0.00998666,0.00090399,-0.18527437,-0.14151554,-0.01835
 477,-0.01322968,-0.02418626,-0.00239337,-0.00493073,0.00243867,-0.0010
 7372,-0.00002586,-0.00000272,-0.00000295,0.00001064,0.00003052,-0.0000
 0254,-0.00004491,-0.00001105,-0.00000644,-0.00000450,-0.00003609,0.000
 00865,0.00000520,-0.00001114,-0.00000917,0.00033278,0.00046672,0.00003
 526,0.00058326,-0.00031537,0.00044003,0.19208609,-0.00003614,-0.000005
 81,-0.00000361,0.00002102,0.00002255,0.00000271,-0.00002328,-0.0000259
 9,-0.00000191,-0.00002104,-0.00000735,-0.00000195,0.00020479,0.0003477
 4,0.00001674,0.00003951,-0.00001160,0.00001249,-0.00000418,0.00005339,
 0.00000301,-0.00008044,0.00005412,0.00001656,0.00115537,-0.00011769,0.
 00013123,0.00295215,-0.00422403,-0.00008816,-0.02175242,-0.01483964,-0
 .00264393,-0.14161480,-0.21817398,-0.01913069,0.00717908,0.00851455,0.
 00082256,0.00209204,0.00090787,-0.00001929,-0.00000197,0.00000155,-0.0
 0000029,0.00000776,-0.00000870,-0.00000116,0.00000986,-0.00000117,0.00
 000022,0.00002086,-0.00000217,-0.00000839,0.00002171,0.00000572,0.0000
 1283,-0.00094769,-0.00087370,-0.00012116,0.00010331,0.00084288,0.00017
 692,0.15098599,0.22692440,-0.00000847,-0.00000148,0.00000064,0.0000069
 4,0.00000464,0.00000074,-0.00000201,0.00000185,-0.00003426,-0.00000077
 ,-0.00000952,-0.00000804,-0.00002014,-0.00011172,0.00041451,-0.0000169
 9,0.00001528,-0.00028012,0.00000672,-0.00000974,-0.00004980,0.00006408
 ,0.00002433,-0.00067056,0.00007678,0.00011262,-0.00081709,-0.00050535,
 -0.00014128,0.00678126,-0.00014020,0.00031913,0.00379515,-0.01835818,-
 0.01912150,-0.04087883,-0.00136132,-0.00210550,0.00368695,-0.00108513,
 0.00001303,0.00732940,-0.00000293,-0.00000036,0.00000453,-0.00000329,0
 .00000096,0.00004834,-0.00000575,-0.00000173,0.00001956,0.00004340,0.0
 0012822,0.00000366,-0.00004097,-0.00013218,-0.00001393,-0.00001128,0.0
 0001089,0.00011892,0.00045381,0.00013783,-0.00419450,0.02042343,0.0206
 8859,0.02911388,0.00006747,0.00003829,0.00000502,-0.00004918,0.0000231
 1,-0.00000037,-0.00010519,0.00024869,0.00000545,0.00011494,-0.00079324
 ,-0.00001208,0.00030494,0.00076751,0.00041448,0.00023976,-0.00010586,0
 .00001556,0.00004885,0.00011908,-0.00000400,0.00033941,-0.00084897,0.0
 0000018,-0.00232948,-0.00287475,-0.00098618,-0.00094236,-0.00055258,-0
 .00003033,-0.00529307,0.00016342,-0.00118590,-0.00288730,0.02952937,0.
 00031330,-0.08712839,0.08323022,-0.00177716,0.01214032,-0.01910026,0.0
 0012947,0.00000887,-0.00000353,-0.00000369,-0.00045348,0.00041411,-0.0
 0005942,0.00002161,0.00000953,0.00000234,-0.00012560,-0.00009082,-0.00
 002687,-0.00014790,-0.00010357,-0.00000663,0.00007055,0.00004239,0.000
 12339,-0.00033673,0.00135581,0.00000381,0.00091128,-0.00031148,0.00048
 763,0.08553067,-0.00000695,0.00002052,-0.00000087,-0.00000833,0.000129
 39,0.00000470,-0.00021964,0.00023505,-0.00001027,-0.00031466,-0.000264
 21,-0.00003691,0.00118112,0.00067180,0.00025950,-0.00002390,-0.0003215
 4,-0.00001398,0.00012058,0.00007411,0.00000930,0.00054270,-0.00067662,
 0.00002714,-0.00361818,-0.00092100,-0.00060565,-0.00067470,0.00041133,
 -0.00002272,0.00099847,0.00173453,-0.00009541,-0.00195559,-0.00153995,
 -0.00037015,0.08526286,-0.31666488,-0.00118305,0.01057014,-0.01586543,
 0.00033251,-0.00003214,-0.00001040,-0.00000489,-0.00043630,0.00030570,
 -0.00004150,0.00000882,-0.00000294,0.00000073,-0.00018156,-0.00013063,
 -0.00004371,-0.00019278,-0.00013631,-0.00000057,0.00007133,-0.00007096
 ,0.00004499,-0.00006193,-0.00020962,-0.00001598,0.00012710,0.00061706,
 0.00017763,-0.09115648,0.33261499,0.00000353,0.00000335,0.00002767,-0.
 00000140,0.00000763,-0.00003697,-0.00000995,0.00003345,-0.00007577,0.0
 0000366,-0.00008158,-0.00003755,0.00042810,0.00022090,-0.00381713,0.00
 001826,-0.00002164,0.00003681,-0.00000395,0.00000916,0.00013358,0.0000
 4598,-0.00010278,0.00003913,-0.00101068,-0.00053626,0.00710914,-0.0000
 3434,-0.00001131,-0.00081585,-0.00115841,-0.00017336,0.00735389,-0.000
 72248,0.00256904,0.00417989,-0.00171036,-0.00137264,-0.03896559,0.0011
 0562,-0.00243748,0.00404523,-0.00000463,-0.00000222,0.00004663,-0.0000
 8740,0.00003789,0.00032208,0.00000232,0.00000080,0.00000016,-0.0001276
 9,-0.00007801,-0.00000788,0.00008827,0.00005052,0.00002009,0.00012434,
 0.00004229,-0.00122322,-0.00004283,0.00011637,0.00010011,0.00050206,0.
 00013670,-0.00437041,0.00259200,0.00158917,0.02593597\\0.00001637,-0.0
 0002028,0.00000096,-0.00004791,0.00002941,-0.00000384,-0.00001620,-0.0
 0001199,-0.00000162,0.00003131,-0.00008233,0.00000004,-0.00012673,-0.0
 0001839,-0.00001253,0.00002621,0.00010463,0.00000563,0.00000900,-0.000
 01698,0.00000023,-0.00002330,-0.00002863,-0.00000266,-0.00002670,0.000
 07495,-0.00000060,-0.00002060,0.00002161,-0.00000163,0.00007194,0.0000
 5808,0.00000918,0.00003738,-0.00010093,-0.00000048,-0.00003809,-0.0000
 0997,-0.00000330,0.00014099,-0.00001523,0.00001293,0.00000189,0.000004
 69,0.00000034,-0.00000671,0.00001423,-0.00000014,-0.00002501,-0.000003
 61,-0.00000238,0.00000269,0.00000391,-0.00000930,0.00000102,0.00000374
 ,0.00001013,0.00000275,-0.00001628,-0.00000022,-0.00000421,-0.00001390
 ,-0.00000084,-0.00000594,0.00002698,0.00000036,-0.00000015,-0.00000370
 ,-0.00000024\\\@
 The archive entry for this job was punched.


 OLD AGE AND TREACHERY WILL ALWAYS PREVAIL OVER YOUTH AND SKILL.
 Job cpu time:       0 days  1 hours  6 minutes 16.4 seconds.
 Elapsed time:       0 days  0 hours  2 minutes 47.9 seconds.
 File lengths (MBytes):  RWF=    201 Int=      0 D2E=      0 Chk=      7 Scr=      1
 Normal termination of Gaussian 16 at Mon Sep 23 04:50:14 2024.
