 Entering Gaussian System, Link 0=/usr/local/Gaussian/G16C/g16/g16
 Input=arbr48_wb97xd.com
 Output=arbr48_wb97xd.log
 Initial command:
 /usr/local/Gaussian/G16C/g16/l1.exe "/home/rpaton/opt/dzvp/Gau-2434754.inp" -scrdir="/home/rpaton/opt/dzvp/"
 Entering Link 1 = /usr/local/Gaussian/G16C/g16/l1.exe PID=   2434755.
  
 Copyright (c) 1988-2019, Gaussian, Inc.  All Rights Reserved.
  
 This is part of the Gaussian(R) 16 program.  It is based on
 the Gaussian(R) 09 system (copyright 2009, Gaussian, Inc.),
 the Gaussian(R) 03 system (copyright 2003, Gaussian, Inc.),
 the Gaussian(R) 98 system (copyright 1998, Gaussian, Inc.),
 the Gaussian(R) 94 system (copyright 1995, Gaussian, Inc.),
 the Gaussian 92(TM) system (copyright 1992, Gaussian, Inc.),
 the Gaussian 90(TM) system (copyright 1990, Gaussian, Inc.),
 the Gaussian 88(TM) system (copyright 1988, Gaussian, Inc.),
 the Gaussian 86(TM) system (copyright 1986, Carnegie Mellon
 University), and the Gaussian 82(TM) system (copyright 1983,
 Carnegie Mellon University). Gaussian is a federally registered
 trademark of Gaussian, Inc.
  
 This software contains proprietary and confidential information,
 including trade secrets, belonging to Gaussian, Inc.
  
 This software is provided under written license and may be
 used, copied, transmitted, or stored only in accord with that
 written license.
  
 The following legend is applicable only to US Government
 contracts under FAR:
  
                    RESTRICTED RIGHTS LEGEND
  
 Use, reproduction and disclosure by the US Government is
 subject to restrictions as set forth in subparagraphs (a)
 and (c) of the Commercial Computer Software - Restricted
 Rights clause in FAR 52.227-19.
  
 Gaussian, Inc.
 340 Quinnipiac St., Bldg. 40, Wallingford CT 06492
  
  
 ---------------------------------------------------------------
 Warning -- This program may not be used in any manner that
 competes with the business of Gaussian, Inc. or will provide
 assistance to any competitor of Gaussian, Inc.  The licensee
 of this program is prohibited from giving any competitor of
 Gaussian, Inc. access to this program.  By using this program,
 the user acknowledges that Gaussian, Inc. is engaged in the
 business of creating and licensing software in the field of
 computational chemistry and represents and warrants to the
 licensee that it is not a competitor of Gaussian, Inc. and that
 it will not use this program in any manner prohibited above.
 ---------------------------------------------------------------
  

 Cite this work as:
 Gaussian 16, Revision C.01,
 M. J. Frisch, G. W. Trucks, H. B. Schlegel, G. E. Scuseria, 
 M. A. Robb, J. R. Cheeseman, G. Scalmani, V. Barone, 
 G. A. Petersson, H. Nakatsuji, X. Li, M. Caricato, A. V. Marenich, 
 J. Bloino, B. G. Janesko, R. Gomperts, B. Mennucci, H. P. Hratchian, 
 J. V. Ortiz, A. F. Izmaylov, J. L. Sonnenberg, D. Williams-Young, 
 F. Ding, F. Lipparini, F. Egidi, J. Goings, B. Peng, A. Petrone, 
 T. Henderson, D. Ranasinghe, V. G. Zakrzewski, J. Gao, N. Rega, 
 G. Zheng, W. Liang, M. Hada, M. Ehara, K. Toyota, R. Fukuda, 
 J. Hasegawa, M. Ishida, T. Nakajima, Y. Honda, O. Kitao, H. Nakai, 
 T. Vreven, K. Throssell, J. A. Montgomery, Jr., J. E. Peralta, 
 F. Ogliaro, M. J. Bearpark, J. J. Heyd, E. N. Brothers, K. N. Kudin, 
 V. N. Staroverov, T. A. Keith, R. Kobayashi, J. Normand, 
 K. Raghavachari, A. P. Rendell, J. C. Burant, S. S. Iyengar, 
 J. Tomasi, M. Cossi, J. M. Millam, M. Klene, C. Adamo, R. Cammi, 
 J. W. Ochterski, R. L. Martin, K. Morokuma, O. Farkas, 
 J. B. Foresman, and D. J. Fox, Gaussian, Inc., Wallingford CT, 2019.
 
 ******************************************
 Gaussian 16:  ES64L-G16RevC.01  3-Jul-2019
                23-Sep-2024 
 ******************************************
 %chk=arbr48_wb97xd_QRC.chk
 %nproc=24
 Will use up to   24 processors via shared memory.
 %mem=48GB
 -------------------------
 # opt freq wb97xd/def2svp
 -------------------------
 1/18=20,19=15,26=3,38=1/1,3;
 2/9=110,12=2,17=6,18=5,40=1/2;
 3/5=43,7=101,11=2,25=1,30=1,71=1,74=-58/1,2,3;
 4//1;
 5/5=2,38=5/2;
 6/7=2,8=2,9=2,10=2,28=1/1;
 7//1,2,3,16;
 1/18=20,19=15,26=3/3(2);
 2/9=110/2;
 99//99;
 2/9=110/2;
 3/5=43,7=101,11=2,25=1,30=1,71=1,74=-58/1,2,3;
 4/5=5,16=3,69=1/1;
 5/5=2,38=5/2;
 7//1,2,3,16;
 1/18=20,19=15,26=3/3(-5);
 2/9=110/2;
 6/7=2,8=2,9=2,10=2,19=2,28=1/1;
 99/9=1/99;
 -----------------
 arbr48_wb97xd_QRC
 -----------------
 Symbolic Z-matrix:
 Charge =  0 Multiplicity = 1
 Br                    3.49375  -0.89452   0.002 
 C                     1.82123  -0.00255   0.002 
 C                     0.65803  -0.75324   0.002 
 C                    -0.58004  -0.11801  -0.002 
 I                    -2.34705  -1.21774   0. 
 C                    -0.60867   1.26492  -0.006 
 C                     0.56309   2.00879  -0.004 
 C                     1.79179   1.38708   0. 
 C                     0.19168   3.46609  -0.02599 
 C                    -1.35017   3.40256   0.04198 
 O                    -1.72627   2.01293  -0.018 
 H                     0.71142  -1.83269   0.004 
 H                     2.71084   1.95752  -0.002 
 H                     0.61302   4.01164   0.82053 
 H                     0.54106   3.95167  -0.94047 
 H                    -1.83351   3.91158  -0.79631 
 H                    -1.74156   3.81163   0.97622 
 

 GradGradGradGradGradGradGradGradGradGradGradGradGradGradGradGradGradGrad
 Berny optimization.
 Initialization pass.
                           ----------------------------
                           !    Initial Parameters    !
                           ! (Angstroms and Degrees)  !
 --------------------------                            --------------------------
 ! Name  Definition              Value          Derivative Info.                !
 --------------------------------------------------------------------------------
 ! R1    R(1,2)                  1.8955         estimate D2E/DX2                !
 ! R2    R(2,3)                  1.3844         estimate D2E/DX2                !
 ! R3    R(2,8)                  1.3899         estimate D2E/DX2                !
 ! R4    R(3,4)                  1.3915         estimate D2E/DX2                !
 ! R5    R(3,12)                 1.0808         estimate D2E/DX2                !
 ! R6    R(4,5)                  2.0813         estimate D2E/DX2                !
 ! R7    R(4,6)                  1.3832         estimate D2E/DX2                !
 ! R8    R(6,7)                  1.3879         estimate D2E/DX2                !
 ! R9    R(6,11)                 1.3449         estimate D2E/DX2                !
 ! R10   R(7,8)                  1.377          estimate D2E/DX2                !
 ! R11   R(7,9)                  1.504          estimate D2E/DX2                !
 ! R12   R(8,13)                 1.0817         estimate D2E/DX2                !
 ! R13   R(9,10)                 1.5446         estimate D2E/DX2                !
 ! R14   R(9,14)                 1.0917         estimate D2E/DX2                !
 ! R15   R(9,15)                 1.0928         estimate D2E/DX2                !
 ! R16   R(10,11)                1.4409         estimate D2E/DX2                !
 ! R17   R(10,16)                1.0934         estimate D2E/DX2                !
 ! R18   R(10,17)                1.0924         estimate D2E/DX2                !
 ! A1    A(1,2,3)              119.0917         estimate D2E/DX2                !
 ! A2    A(1,2,8)              119.285          estimate D2E/DX2                !
 ! A3    A(3,2,8)              121.6232         estimate D2E/DX2                !
 ! A4    A(2,3,4)              120.0014         estimate D2E/DX2                !
 ! A5    A(2,3,12)             120.0053         estimate D2E/DX2                !
 ! A6    A(4,3,12)             119.9934         estimate D2E/DX2                !
 ! A7    A(3,4,5)              120.941          estimate D2E/DX2                !
 ! A8    A(3,4,6)              118.348          estimate D2E/DX2                !
 ! A9    A(5,4,6)              120.7109         estimate D2E/DX2                !
 ! A10   A(4,6,7)              121.2222         estimate D2E/DX2                !
 ! A11   A(4,6,11)             124.9806         estimate D2E/DX2                !
 ! A12   A(7,6,11)             113.7966         estimate D2E/DX2                !
 ! A13   A(6,7,8)              120.7528         estimate D2E/DX2                !
 ! A14   A(6,7,9)              108.1072         estimate D2E/DX2                !
 ! A15   A(8,7,9)              131.1345         estimate D2E/DX2                !
 ! A16   A(2,8,7)              118.0523         estimate D2E/DX2                !
 ! A17   A(2,8,13)             120.6137         estimate D2E/DX2                !
 ! A18   A(7,8,13)             121.3336         estimate D2E/DX2                !
 ! A19   A(7,9,10)             101.8883         estimate D2E/DX2                !
 ! A20   A(7,9,14)             112.1827         estimate D2E/DX2                !
 ! A21   A(7,9,15)             111.3357         estimate D2E/DX2                !
 ! A22   A(10,9,14)            111.8201         estimate D2E/DX2                !
 ! A23   A(10,9,15)            111.9773         estimate D2E/DX2                !
 ! A24   A(14,9,15)            107.6652         estimate D2E/DX2                !
 ! A25   A(9,10,11)            107.3603         estimate D2E/DX2                !
 ! A26   A(9,10,16)            112.8539         estimate D2E/DX2                !
 ! A27   A(9,10,17)            112.3252         estimate D2E/DX2                !
 ! A28   A(11,10,16)           107.5592         estimate D2E/DX2                !
 ! A29   A(11,10,17)           107.6514         estimate D2E/DX2                !
 ! A30   A(16,10,17)           108.8436         estimate D2E/DX2                !
 ! A31   A(6,11,10)            108.6103         estimate D2E/DX2                !
 ! D1    D(1,2,3,4)           -179.8098         estimate D2E/DX2                !
 ! D2    D(1,2,3,12)             0.1224         estimate D2E/DX2                !
 ! D3    D(8,2,3,4)              0.0936         estimate D2E/DX2                !
 ! D4    D(8,2,3,12)          -179.9742         estimate D2E/DX2                !
 ! D5    D(1,2,8,7)            179.8091         estimate D2E/DX2                !
 ! D6    D(1,2,8,13)             0.0281         estimate D2E/DX2                !
 ! D7    D(3,2,8,7)             -0.0941         estimate D2E/DX2                !
 ! D8    D(3,2,8,13)          -179.875          estimate D2E/DX2                !
 ! D9    D(2,3,4,5)           -179.9323         estimate D2E/DX2                !
 ! D10   D(2,3,4,6)              0.0043         estimate D2E/DX2                !
 ! D11   D(12,3,4,5)             0.1355         estimate D2E/DX2                !
 ! D12   D(12,3,4,6)          -179.9279         estimate D2E/DX2                !
 ! D13   D(3,4,6,7)             -0.0993         estimate D2E/DX2                !
 ! D14   D(3,4,6,11)           179.5898         estimate D2E/DX2                !
 ! D15   D(5,4,6,7)            179.8374         estimate D2E/DX2                !
 ! D16   D(5,4,6,11)            -0.4735         estimate D2E/DX2                !
 ! D17   D(4,6,7,8)              0.0994         estimate D2E/DX2                !
 ! D18   D(4,6,7,9)            179.3354         estimate D2E/DX2                !
 ! D19   D(11,6,7,8)          -179.6222         estimate D2E/DX2                !
 ! D20   D(11,6,7,9)            -0.3862         estimate D2E/DX2                !
 ! D21   D(4,6,11,10)          177.4659         estimate D2E/DX2                !
 ! D22   D(7,6,11,10)           -2.8247         estimate D2E/DX2                !
 ! D23   D(6,7,8,2)             -0.0017         estimate D2E/DX2                !
 ! D24   D(6,7,8,13)           179.7776         estimate D2E/DX2                !
 ! D25   D(9,7,8,2)           -179.0376         estimate D2E/DX2                !
 ! D26   D(9,7,8,13)             0.7417         estimate D2E/DX2                !
 ! D27   D(6,7,9,10)             3.1149         estimate D2E/DX2                !
 ! D28   D(6,7,9,14)           122.8532         estimate D2E/DX2                !
 ! D29   D(6,7,9,15)          -116.4106         estimate D2E/DX2                !
 ! D30   D(8,7,9,10)          -177.7569         estimate D2E/DX2                !
 ! D31   D(8,7,9,14)           -58.0186         estimate D2E/DX2                !
 ! D32   D(8,7,9,15)            62.7177         estimate D2E/DX2                !
 ! D33   D(7,9,10,11)           -4.68           estimate D2E/DX2                !
 ! D34   D(7,9,10,16)         -123.0249         estimate D2E/DX2                !
 ! D35   D(7,9,10,17)          113.4723         estimate D2E/DX2                !
 ! D36   D(14,9,10,11)        -124.6735         estimate D2E/DX2                !
 ! D37   D(14,9,10,16)         116.9816         estimate D2E/DX2                !
 ! D38   D(14,9,10,17)          -6.5212         estimate D2E/DX2                !
 ! D39   D(15,9,10,11)         114.3915         estimate D2E/DX2                !
 ! D40   D(15,9,10,16)          -3.9534         estimate D2E/DX2                !
 ! D41   D(15,9,10,17)        -127.4562         estimate D2E/DX2                !
 ! D42   D(9,10,11,6)            4.7355         estimate D2E/DX2                !
 ! D43   D(16,10,11,6)         126.4529         estimate D2E/DX2                !
 ! D44   D(17,10,11,6)        -116.4048         estimate D2E/DX2                !
 --------------------------------------------------------------------------------
 Trust Radius=3.00D-01 FncErr=1.00D-07 GrdErr=1.00D-06 EigMax=2.50D+02 EigMin=1.00D-04
 Number of steps in this run=    102 maximum allowed number of steps=    102.
 GradGradGradGradGradGradGradGradGradGradGradGradGradGradGradGradGradGrad

                          Input orientation:                          
 ---------------------------------------------------------------------
 Center     Atomic      Atomic             Coordinates (Angstroms)
 Number     Number       Type             X           Y           Z
 ---------------------------------------------------------------------
      1         35           0        3.493747   -0.894522    0.001998
      2          6           0        1.821228   -0.002550    0.002000
      3          6           0        0.658027   -0.753240    0.002001
      4          6           0       -0.580040   -0.118006   -0.001998
      5         53           0       -2.347052   -1.217743    0.000000
      6          6           0       -0.608671    1.264916   -0.005997
      7          6           0        0.563087    2.008785   -0.003995
      8          6           0        1.791790    1.387082    0.000004
      9          6           0        0.191675    3.466086   -0.025986
     10          6           0       -1.350171    3.402564    0.041978
     11          8           0       -1.726274    2.012932   -0.017995
     12          1           0        0.711416   -1.832693    0.004000
     13          1           0        2.710838    1.957519   -0.001995
     14          1           0        0.613018    4.011640    0.820530
     15          1           0        0.541058    3.951667   -0.940468
     16          1           0       -1.833510    3.911581   -0.796312
     17          1           0       -1.741558    3.811630    0.976218
 ---------------------------------------------------------------------
                    Distance matrix (angstroms):
                    1          2          3          4          5
     1  Br   0.000000
     2  C    1.895504   0.000000
     3  C    2.839237   1.384403   0.000000
     4  C    4.147136   2.404045   1.391527   0.000000
     5  I    5.849736   4.341803   3.040767   2.081287   0.000000
     6  C    4.636062   2.740610   2.382759   1.383224   3.030776
     7  C    4.125287   2.372430   2.763663   2.414536   4.345044
     8  C    2.846468   1.389945   2.422065   2.809069   4.890309
     9  C    5.469860   3.832449   4.245112   3.666311   5.327670
    10  C    6.475345   4.653404   4.615752   3.604088   4.726814
    11  O    5.975141   4.080115   3.651986   2.419712   3.289825
    12  H    2.936245   2.140353   1.080774   2.146636   3.119680
    13  H    2.957550   2.152508   3.400333   3.890717   5.971980
    14  H    5.747958   4.271239   4.834883   4.376519   6.064794
    15  H    5.752579   4.261797   4.799800   4.324329   5.995703
    16  H    7.219113   5.414317   5.348422   4.294146   5.216110
    17  H    7.106714   5.309474   5.248347   4.212846   5.158897
                    6          7          8          9         10
     6  C    0.000000
     7  C    1.387934   0.000000
     8  C    2.403575   1.377041   0.000000
     9  C    2.342243   1.504047   2.623605   0.000000
    10  C    2.263109   2.367549   3.733075   1.544650   0.000000
    11  O    1.344882   2.289408   3.573344   2.406294   1.440877
    12  H    3.367181   3.844349   3.396200   5.324292   5.626677
    13  H    3.390996   2.148364   1.081689   2.936415   4.310671
    14  H    3.117718   2.166509   2.991834   1.091672   2.198005
    15  H    3.068182   2.156909   3.004316   1.092765   2.200787
    16  H    3.021533   3.161025   4.488877   2.212067   1.093364
    17  H    2.955323   3.085848   4.394994   2.204814   1.092393
                   11         12         13         14         15
    11  O    0.000000
    12  H    4.553202   0.000000
    13  H    4.437487   4.285257   0.000000
    14  H    3.189082   5.901918   3.049067   0.000000
    15  H    3.122570   5.863434   3.092782   1.763488   0.000000
    16  H    2.054786   6.333548   5.010030   2.934227   2.379277
    17  H    2.055239   6.230624   4.921225   2.368179   2.983895
                   16         17
    16  H    0.000000
    17  H    1.777726   0.000000
 Stoichiometry    C8H6BrIO
 Framework group  C1[X(C8H6BrIO)]
 Deg. of freedom    45
 Full point group                 C1      NOp   1
 Largest Abelian subgroup         C1      NOp   1
 Largest concise Abelian subgroup C1      NOp   1
                         Standard orientation:                         
 ---------------------------------------------------------------------
 Center     Atomic      Atomic             Coordinates (Angstroms)
 Number     Number       Type             X           Y           Z
 ---------------------------------------------------------------------
      1         35           0        3.493752   -0.894502    0.001758
      2          6           0        1.821228   -0.002539    0.001760
      3          6           0        0.658031   -0.753236    0.001761
      4          6           0       -0.580039   -0.118009   -0.002238
      5         53           0       -2.347045   -1.217756   -0.000240
      6          6           0       -0.608678    1.264913   -0.006237
      7          6           0        0.563075    2.008788   -0.004235
      8          6           0        1.791782    1.387093   -0.000236
      9          6           0        0.191655    3.466087   -0.026226
     10          6           0       -1.350191    3.402556    0.041738
     11          8           0       -1.726286    2.012922   -0.018235
     12          1           0        0.711427   -1.832689    0.003760
     13          1           0        2.710827    1.957535   -0.002235
     14          1           0        0.612995    4.011644    0.820290
     15          1           0        0.541035    3.951670   -0.940708
     16          1           0       -1.833533    3.911571   -0.796552
     17          1           0       -1.741580    3.811620    0.975978
 ---------------------------------------------------------------------
 Rotational constants (GHZ):           0.6642203           0.2737165           0.1943160
 Standard basis: def2SVP (5D, 7F)
 There are   228 symmetry adapted cartesian basis functions of A   symmetry.
 There are   214 symmetry adapted basis functions of A   symmetry.
   214 basis functions,   414 primitive gaussians,   228 cartesian basis functions
    61 alpha electrons       61 beta electrons
       nuclear repulsion energy      1002.4673934974 Hartrees.
 NAtoms=   17 NActive=   17 NUniq=   17 SFac= 1.00D+00 NAtFMM=   60 NAOKFM=F Big=F
 Integral buffers will be    131072 words long.
 Raffenetti 2 integral format.
 Two-electron integral symmetry is turned on.
 Nuclear repulsion after empirical dispersion term =     1002.4567286576 Hartrees.
 One-electron integrals computed using PRISM.
   1 Symmetry operations used in ECPInt.
 ECPInt:  NShTT=    4465 NPrTT=   18543 LenC2=    4271 LenP2D=   13053.
 LDataN:  DoStor=T MaxTD1= 6 Len=  172
 NBasis=   214 RedAO= T EigKep=  2.04D-04  NBF=   214
 NBsUse=   214 1.00D-06 EigRej= -1.00D+00 NBFU=   214
 Defaulting to unpruned grid for atomic number  53.
 ExpMin= 1.11D-01 ExpMax= 1.13D+05 ExpMxC= 1.70D+04 IAcc=3 IRadAn=         5 AccDes= 0.00D+00
 Harris functional with IExCor= 4639 and IRadAn=       5 diagonalized for initial guess.
 HarFok:  IExCor= 4639 AccDes= 0.00D+00 IRadAn=         5 IDoV= 1 UseB2=F ITyADJ=14
 ICtDFT=  3500011 ScaDFX=  1.000000  1.000000  1.000000  1.000000
 Defaulting to unpruned grid for atomic number  53.
 FoFCou: FMM=F IPFlag=           0 FMFlag=      100000 FMFlg1=           0
         NFxFlg=           0 DoJE=T BraDBF=F KetDBF=T FulRan=T
         wScrn=  0.000000 ICntrl=       500 IOpCl=  0 I1Cent=   200000004 NGrid=           0
         NMat0=    1 NMatS0=      1 NMatT0=    0 NMatD0=    1 NMtDS0=    0 NMtDT0=    0
 Petite list used in FoFCou.
 Requested convergence on RMS density matrix=1.00D-08 within 128 cycles.
 Requested convergence on MAX density matrix=1.00D-06.
 Requested convergence on             energy=1.00D-06.
 No special actions if energy rises.
 Integral accuracy reduced to 1.0D-05 until final iterations.
 Defaulting to unpruned grid for atomic number  53.
 Defaulting to unpruned grid for atomic number  53.
 Defaulting to unpruned grid for atomic number  53.
 Defaulting to unpruned grid for atomic number  53.
 Defaulting to unpruned grid for atomic number  53.
 Defaulting to unpruned grid for atomic number  53.
 Defaulting to unpruned grid for atomic number  53.
 Defaulting to unpruned grid for atomic number  53.
 Defaulting to unpruned grid for atomic number  53.
 Defaulting to unpruned grid for atomic number  53.
 Defaulting to unpruned grid for atomic number  53.
 Defaulting to unpruned grid for atomic number  53.
 Defaulting to unpruned grid for atomic number  53.
 Defaulting to unpruned grid for atomic number  53.
 Defaulting to unpruned grid for atomic number  53.
 Defaulting to unpruned grid for atomic number  53.
 Defaulting to unpruned grid for atomic number  53.
 Defaulting to unpruned grid for atomic number  53.
 Defaulting to unpruned grid for atomic number  53.
 Defaulting to unpruned grid for atomic number  53.
 Defaulting to unpruned grid for atomic number  53.
 Defaulting to unpruned grid for atomic number  53.
 Defaulting to unpruned grid for atomic number  53.
 Defaulting to unpruned grid for atomic number  53.
 Initial convergence to 1.0D-05 achieved.  Increase integral accuracy.
 SCF Done:  E(RwB97XD) =  -3254.95256462     A.U. after   17 cycles
            NFock= 17  Conv=0.76D-08     -V/T= 2.0622

 **********************************************************************

            Population analysis using the SCF Density.

 **********************************************************************

 Orbital symmetries:
       Occupied  (A) (A) (A) (A) (A) (A) (A) (A) (A) (A) (A) (A)
                 (A) (A) (A) (A) (A) (A) (A) (A) (A) (A) (A) (A)
                 (A) (A) (A) (A) (A) (A) (A) (A) (A) (A) (A) (A)
                 (A) (A) (A) (A) (A) (A) (A) (A) (A) (A) (A) (A)
                 (A) (A) (A) (A) (A) (A) (A) (A) (A) (A) (A) (A)
                 (A)
       Virtual   (A) (A) (A) (A) (A) (A) (A) (A) (A) (A) (A) (A)
                 (A) (A) (A) (A) (A) (A) (A) (A) (A) (A) (A) (A)
                 (A) (A) (A) (A) (A) (A) (A) (A) (A) (A) (A) (A)
                 (A) (A) (A) (A) (A) (A) (A) (A) (A) (A) (A) (A)
                 (A) (A) (A) (A) (A) (A) (A) (A) (A) (A) (A) (A)
                 (A) (A) (A) (A) (A) (A) (A) (A) (A) (A) (A) (A)
                 (A) (A) (A) (A) (A) (A) (A) (A) (A) (A) (A) (A)
                 (A) (A) (A) (A) (A) (A) (A) (A) (A) (A) (A) (A)
                 (A) (A) (A) (A) (A) (A) (A) (A) (A) (A) (A) (A)
                 (A) (A) (A) (A) (A) (A) (A) (A) (A) (A) (A) (A)
                 (A) (A) (A) (A) (A) (A) (A) (A) (A) (A) (A) (A)
                 (A) (A) (A) (A) (A) (A) (A) (A) (A) (A) (A) (A)
                 (A) (A) (A) (A) (A) (A) (A) (A) (A)
 The electronic state is 1-A.
 Alpha  occ. eigenvalues -- -483.06060 -62.64267 -56.45043 -56.44674 -56.44671
 Alpha  occ. eigenvalues --  -19.30015 -10.37432 -10.37010 -10.35751 -10.35175
 Alpha  occ. eigenvalues --  -10.32810 -10.32574 -10.32468 -10.32340  -8.81221
 Alpha  occ. eigenvalues --   -6.96250  -6.63788  -6.62437  -6.62434  -4.98590
 Alpha  occ. eigenvalues --   -4.96940  -4.96906  -2.74159  -2.73763  -2.73762
 Alpha  occ. eigenvalues --   -2.72684  -2.72684  -2.01990  -2.01455  -2.01437
 Alpha  occ. eigenvalues --   -2.00027  -2.00027  -1.18680  -0.98810  -0.91526
 Alpha  occ. eigenvalues --   -0.91093  -0.85255  -0.83284  -0.79202  -0.74020
 Alpha  occ. eigenvalues --   -0.70573  -0.68640  -0.61720  -0.60608  -0.60117
 Alpha  occ. eigenvalues --   -0.56110  -0.52338  -0.51114  -0.50675  -0.50294
 Alpha  occ. eigenvalues --   -0.49608  -0.46441  -0.44986  -0.44213  -0.42498
 Alpha  occ. eigenvalues --   -0.39219  -0.37213  -0.36751  -0.33896  -0.32190
 Alpha  occ. eigenvalues --   -0.29542
 Alpha virt. eigenvalues --    0.03463   0.04049   0.05718   0.09114   0.13165
 Alpha virt. eigenvalues --    0.16014   0.17148   0.18412   0.20021   0.20879
 Alpha virt. eigenvalues --    0.22376   0.25081   0.25489   0.27647   0.30544
 Alpha virt. eigenvalues --    0.32008   0.33522   0.35336   0.37772   0.39054
 Alpha virt. eigenvalues --    0.40356   0.41787   0.44043   0.45979   0.47085
 Alpha virt. eigenvalues --    0.47551   0.48421   0.48698   0.49792   0.49963
 Alpha virt. eigenvalues --    0.50918   0.51336   0.53089   0.54716   0.56820
 Alpha virt. eigenvalues --    0.57998   0.58435   0.58659   0.58961   0.59954
 Alpha virt. eigenvalues --    0.61880   0.64563   0.64982   0.65889   0.66378
 Alpha virt. eigenvalues --    0.69224   0.69857   0.70221   0.71705   0.72223
 Alpha virt. eigenvalues --    0.73191   0.74092   0.74715   0.75054   0.76669
 Alpha virt. eigenvalues --    0.77237   0.77913   0.78845   0.80849   0.82072
 Alpha virt. eigenvalues --    0.83075   0.84285   0.87673   0.89150   0.90053
 Alpha virt. eigenvalues --    0.91886   0.98603   1.00204   1.05882   1.08374
 Alpha virt. eigenvalues --    1.09528   1.11056   1.16813   1.17082   1.23018
 Alpha virt. eigenvalues --    1.28373   1.29787   1.32585   1.34824   1.34862
 Alpha virt. eigenvalues --    1.39162   1.40658   1.46358   1.49474   1.54554
 Alpha virt. eigenvalues --    1.57451   1.59849   1.62023   1.66055   1.69851
 Alpha virt. eigenvalues --    1.75546   1.76823   1.78222   1.81814   1.82305
 Alpha virt. eigenvalues --    1.84048   1.84647   1.85340   1.86160   1.89716
 Alpha virt. eigenvalues --    1.90314   1.91371   1.95149   1.96173   2.00981
 Alpha virt. eigenvalues --    2.02191   2.05258   2.06628   2.10148   2.11392
 Alpha virt. eigenvalues --    2.17160   2.19616   2.21548   2.22764   2.29819
 Alpha virt. eigenvalues --    2.33815   2.34782   2.36080   2.38056   2.39352
 Alpha virt. eigenvalues --    2.45410   2.45756   2.50240   2.54371   2.60299
 Alpha virt. eigenvalues --    2.64883   2.69732   2.71811   2.75238   2.79716
 Alpha virt. eigenvalues --    2.82852   2.90034   2.94249   2.96208   2.97558
 Alpha virt. eigenvalues --    3.02858   3.03966   3.07184   3.12802   3.16588
 Alpha virt. eigenvalues --    3.23502   3.38952   3.49275   3.52568   3.56429
 Alpha virt. eigenvalues --    3.60457   3.71521   3.73054   3.92628  18.77827
 Alpha virt. eigenvalues --   18.98290  19.49632  56.60152
          Condensed to atoms (all electrons):
               1          2          3          4          5          6
     1  Br  34.938082   0.220338  -0.060753   0.004386  -0.000168   0.000875
     2  C    0.220338   5.254078   0.349667   0.077879   0.004477  -0.146521
     3  C   -0.060753   0.349667   4.928174   0.381835  -0.068721   0.058331
     4  C    0.004386   0.077879   0.381835   5.489480   0.241537   0.264653
     5  I   -0.000168   0.004477  -0.068721   0.241537  24.774579  -0.057377
     6  C    0.000875  -0.146521   0.058331   0.264653  -0.057377   4.923006
     7  C    0.004215   0.085950  -0.110973  -0.005436   0.005345   0.395405
     8  C   -0.061159   0.301722   0.061748  -0.127904   0.000503   0.076329
     9  C   -0.000117   0.013740  -0.002122   0.025884  -0.000435  -0.109359
    10  C    0.000003  -0.000873   0.000206   0.005438   0.000144  -0.062116
    11  O    0.000000   0.000295   0.001677  -0.074381   0.005357   0.399383
    12  H   -0.000737  -0.055064   0.434033  -0.051837  -0.003108   0.014449
    13  H   -0.000082  -0.061513   0.013335  -0.001957   0.000029   0.013908
    14  H   -0.000001  -0.000218   0.000136  -0.000821   0.000009   0.003601
    15  H   -0.000000  -0.000150   0.000110  -0.000686   0.000010   0.001994
    16  H   -0.000000   0.000008   0.000016  -0.000190  -0.000004   0.004849
    17  H   -0.000000   0.000011  -0.000006   0.000145  -0.000001   0.005458
               7          8          9         10         11         12
     1  Br   0.004215  -0.061159  -0.000117   0.000003   0.000000  -0.000737
     2  C    0.085950   0.301722   0.013740  -0.000873   0.000295  -0.055064
     3  C   -0.110973   0.061748  -0.002122   0.000206   0.001677   0.434033
     4  C   -0.005436  -0.127904   0.025884   0.005438  -0.074381  -0.051837
     5  I    0.005345   0.000503  -0.000435   0.000144   0.005357  -0.003108
     6  C    0.395405   0.076329  -0.109359  -0.062116   0.399383   0.014449
     7  C    5.280356   0.326707   0.357783  -0.079070  -0.069780  -0.001127
     8  C    0.326707   5.057269  -0.075877   0.012783   0.005960   0.012512
     9  C    0.357783  -0.075877   4.747048   0.419140  -0.059173   0.000000
    10  C   -0.079070   0.012783   0.419140   4.428190   0.306356   0.000010
    11  O   -0.069780   0.005960  -0.059173   0.306356   7.870644  -0.000056
    12  H   -0.001127   0.012512   0.000000   0.000010  -0.000056   0.625957
    13  H   -0.055592   0.444502  -0.014802   0.000112  -0.000095  -0.000224
    14  H    0.001710  -0.002480   0.349871  -0.007764   0.002750  -0.000000
    15  H   -0.002147  -0.003243   0.352682  -0.007583   0.002553  -0.000000
    16  H    0.002027  -0.000246  -0.015873   0.390229  -0.025727  -0.000000
    17  H   -0.000651  -0.000333  -0.015565   0.388816  -0.028816  -0.000000
              13         14         15         16         17
     1  Br  -0.000082  -0.000001  -0.000000  -0.000000  -0.000000
     2  C   -0.061513  -0.000218  -0.000150   0.000008   0.000011
     3  C    0.013335   0.000136   0.000110   0.000016  -0.000006
     4  C   -0.001957  -0.000821  -0.000686  -0.000190   0.000145
     5  I    0.000029   0.000009   0.000010  -0.000004  -0.000001
     6  C    0.013908   0.003601   0.001994   0.004849   0.005458
     7  C   -0.055592   0.001710  -0.002147   0.002027  -0.000651
     8  C    0.444502  -0.002480  -0.003243  -0.000246  -0.000333
     9  C   -0.014802   0.349871   0.352682  -0.015873  -0.015565
    10  C    0.000112  -0.007764  -0.007583   0.390229   0.388816
    11  O   -0.000095   0.002750   0.002553  -0.025727  -0.028816
    12  H   -0.000224  -0.000000  -0.000000  -0.000000  -0.000000
    13  H    0.648874   0.001720   0.001394  -0.000002  -0.000006
    14  H    0.001720   0.624213  -0.021190   0.004765  -0.013894
    15  H    0.001394  -0.021190   0.624153  -0.013975   0.005520
    16  H   -0.000002   0.004765  -0.013975   0.633334  -0.032318
    17  H   -0.000006  -0.013894   0.005520  -0.032318   0.638704
 Mulliken charges:
               1
     1  Br  -0.044882
     2  C   -0.043824
     3  C    0.013307
     4  C   -0.228026
     5  I    0.097823
     6  C    0.213132
     7  C   -0.134722
     8  C   -0.028794
     9  C    0.027174
    10  C    0.205979
    11  O   -0.336949
    12  H    0.025194
    13  H    0.010399
    14  H    0.057593
    15  H    0.060558
    16  H    0.053105
    17  H    0.052935
 Sum of Mulliken charges =  -0.00000
 Mulliken charges with hydrogens summed into heavy atoms:
               1
     1  Br  -0.044882
     2  C   -0.043824
     3  C    0.038501
     4  C   -0.228026
     5  I    0.097823
     6  C    0.213132
     7  C   -0.134722
     8  C   -0.018396
     9  C    0.145324
    10  C    0.312018
    11  O   -0.336949
 Electronic spatial extent (au):  <R**2>=           3858.0775
 Charge=             -0.0000 electrons
 Dipole moment (field-independent basis, Debye):
    X=              0.0439    Y=              3.3708    Z=              0.0385  Tot=              3.3714
 Quadrupole moment (field-independent basis, Debye-Ang):
   XX=            -99.4608   YY=            -80.1616   ZZ=            -98.1866
   XY=              1.7225   XZ=             -0.1108   YZ=              0.1012
 Traceless Quadrupole moment (field-independent basis, Debye-Ang):
   XX=             -6.8578   YY=             12.4414   ZZ=             -5.5836
   XY=              1.7225   XZ=             -0.1108   YZ=              0.1012
 Octapole moment (field-independent basis, Debye-Ang**2):
  XXX=            -24.3700  YYY=            -27.5856  ZZZ=              0.0060  XYY=            -13.1508
  XXY=            -30.7281  XXZ=              0.1186  XZZ=             -8.1459  YZZ=            -22.4310
  YYZ=              0.2673  XYZ=             -0.1620
 Hexadecapole moment (field-independent basis, Debye-Ang**3):
 XXXX=          -2707.6732 YYYY=          -1596.6297 ZZZZ=           -125.9946 XXXY=             65.6691
 XXXZ=              0.3305 YYYX=             -1.8311 YYYZ=              0.3842 ZZZX=              0.1001
 ZZZY=             -0.1011 XXYY=           -708.3041 XXZZ=           -496.3420 YYZZ=           -310.6564
 XXYZ=              0.0400 YYXZ=              0.2823 ZZXY=              4.2273
 N-N= 1.002456728658D+03 E-N=-9.678791069142D+03  KE= 3.064307507065D+03
   1 Symmetry operations used in ECPInt.
 ECPInt:  NShTT=    4465 NPrTT=   18543 LenC2=    4271 LenP2D=   13053.
 LDataN:  DoStor=T MaxTD1= 7 Len=  274
 Calling FoFJK, ICntrl=      2127 FMM=F ISym2X=0 I1Cent= 0 IOpClX= 0 NMat=1 NMatS=1 NMatT=0.
 Defaulting to unpruned grid for atomic number  53.
 Defaulting to unpruned grid for atomic number  53.
 Defaulting to unpruned grid for atomic number  53.
 Defaulting to unpruned grid for atomic number  53.
 Defaulting to unpruned grid for atomic number  53.
 Defaulting to unpruned grid for atomic number  53.
 Defaulting to unpruned grid for atomic number  53.
 Defaulting to unpruned grid for atomic number  53.
 Defaulting to unpruned grid for atomic number  53.
 Defaulting to unpruned grid for atomic number  53.
 Defaulting to unpruned grid for atomic number  53.
 Defaulting to unpruned grid for atomic number  53.
 Defaulting to unpruned grid for atomic number  53.
 Defaulting to unpruned grid for atomic number  53.
 Defaulting to unpruned grid for atomic number  53.
 Defaulting to unpruned grid for atomic number  53.
 Defaulting to unpruned grid for atomic number  53.
 Defaulting to unpruned grid for atomic number  53.
 Defaulting to unpruned grid for atomic number  53.
 Defaulting to unpruned grid for atomic number  53.
 Defaulting to unpruned grid for atomic number  53.
 Defaulting to unpruned grid for atomic number  53.
 Defaulting to unpruned grid for atomic number  53.
 Defaulting to unpruned grid for atomic number  53.
 ***** Axes restored to original set *****
 -------------------------------------------------------------------
 Center     Atomic                   Forces (Hartrees/Bohr)
 Number     Number              X              Y              Z
 -------------------------------------------------------------------
      1       35           0.000097014   -0.000014316    0.000093680
      2        6           0.008423268   -0.004172945    0.000096745
      3        6          -0.000980144   -0.001220401   -0.000141652
      4        6          -0.001985263   -0.002975232    0.000075432
      5       53          -0.004341879   -0.002325782   -0.000037263
      6        6          -0.010531042    0.004804424   -0.000327221
      7        6           0.000773460    0.006111974    0.000454906
      8        6           0.001657807    0.001162337   -0.000189782
      9        6          -0.004411337   -0.003139945   -0.000061795
     10        6           0.001466175   -0.007260718   -0.001877735
     11        8           0.003360634    0.002885613    0.000243902
     12        1           0.000387061   -0.007046935    0.000063537
     13        1           0.005679751    0.003562284    0.000039474
     14        1           0.002441574    0.002786473    0.004059301
     15        1           0.001790136    0.002502968   -0.004303277
     16        1          -0.001842191    0.002087384   -0.002254746
     17        1          -0.001985024    0.002252817    0.004066493
 -------------------------------------------------------------------
 Cartesian Forces:  Max     0.010531042 RMS     0.003438685

 GradGradGradGradGradGradGradGradGradGradGradGradGradGradGradGradGradGrad
 Berny optimization.
 FormGI is forming the generalized inverse of G from B-inverse, IUseBI=4.
 Internal  Forces:  Max     0.009354416 RMS     0.002739138
 Search for a local minimum.
 Step number   1 out of a maximum of  102
 All quantities printed in internal units (Hartrees-Bohrs-Radians)
 Mixed Optimization -- RFO/linear search
 Second derivative matrix not updated -- first step.
 ITU=  0
     Eigenvalues ---    0.00545   0.01546   0.01837   0.02234   0.02252
     Eigenvalues ---    0.02255   0.02268   0.02287   0.02307   0.02342
     Eigenvalues ---    0.04290   0.04466   0.05502   0.05894   0.07987
     Eigenvalues ---    0.08858   0.11413   0.11719   0.14665   0.16000
     Eigenvalues ---    0.16000   0.18472   0.22650   0.23496   0.23597
     Eigenvalues ---    0.24764   0.24998   0.25000   0.25000   0.27578
     Eigenvalues ---    0.31197   0.34427   0.34495   0.34538   0.34620
     Eigenvalues ---    0.35791   0.35901   0.37801   0.41952   0.43691
     Eigenvalues ---    0.46665   0.47731   0.48116   0.49119   0.53720
 RFO step:  Lambda=-1.75210884D-03 EMin= 5.45412191D-03
 Linear search not attempted -- first point.
 Iteration  1 RMS(Cart)=  0.01258110 RMS(Int)=  0.00003044
 Iteration  2 RMS(Cart)=  0.00003448 RMS(Int)=  0.00000536
 Iteration  3 RMS(Cart)=  0.00000000 RMS(Int)=  0.00000536
 Variable       Old X    -DE/DX   Delta X   Delta X   Delta X     New X
                                 (Linear)    (Quad)   (Total)
    R1        3.58198   0.00009   0.00000   0.00050   0.00050   3.58248
    R2        2.61614   0.00935   0.00000   0.01922   0.01922   2.63537
    R3        2.62662   0.00886   0.00000   0.01866   0.01866   2.64528
    R4        2.62961   0.00834   0.00000   0.01757   0.01757   2.64718
    R5        2.04237   0.00706   0.00000   0.01956   0.01956   2.06193
    R6        3.93306   0.00491   0.00000   0.03311   0.03311   3.96617
    R7        2.61391   0.00892   0.00000   0.01831   0.01831   2.63222
    R8        2.62282   0.00775   0.00000   0.01726   0.01726   2.64007
    R9        2.54146  -0.00172   0.00000  -0.00292  -0.00292   2.53854
   R10        2.60223   0.00877   0.00000   0.01769   0.01769   2.61992
   R11        2.84224   0.00195   0.00000   0.00688   0.00688   2.84911
   R12        2.04410   0.00671   0.00000   0.01864   0.01864   2.06274
   R13        2.91897   0.00145   0.00000   0.00388   0.00388   2.92284
   R14        2.06296   0.00548   0.00000   0.01575   0.01575   2.07872
   R15        2.06503   0.00529   0.00000   0.01524   0.01524   2.08027
   R16        2.72286  -0.00253   0.00000  -0.00749  -0.00749   2.71538
   R17        2.06616   0.00352   0.00000   0.01016   0.01016   2.07632
   R18        2.06432   0.00503   0.00000   0.01450   0.01450   2.07882
    A1        2.07854   0.00034   0.00000   0.00124   0.00124   2.07978
    A2        2.08192   0.00020   0.00000   0.00070   0.00070   2.08261
    A3        2.12273  -0.00055   0.00000  -0.00194  -0.00194   2.12079
    A4        2.09442   0.00021   0.00000   0.00098   0.00098   2.09540
    A5        2.09449  -0.00015   0.00000  -0.00076  -0.00076   2.09372
    A6        2.09428  -0.00006   0.00000  -0.00022  -0.00022   2.09406
    A7        2.11082   0.00053   0.00000   0.00205   0.00205   2.11287
    A8        2.06556   0.00017   0.00000   0.00082   0.00082   2.06638
    A9        2.10680  -0.00071   0.00000  -0.00287  -0.00287   2.10393
   A10        2.11573  -0.00038   0.00000  -0.00190  -0.00191   2.11382
   A11        2.18132   0.00143   0.00000   0.00460   0.00461   2.18593
   A12        1.98612  -0.00106   0.00000  -0.00269  -0.00269   1.98344
   A13        2.10753   0.00063   0.00000   0.00184   0.00184   2.10937
   A14        1.88683  -0.00183   0.00000  -0.00502  -0.00503   1.88180
   A15        2.28873   0.00120   0.00000   0.00315   0.00315   2.29188
   A16        2.06040  -0.00009   0.00000   0.00021   0.00021   2.06061
   A17        2.10511   0.00008   0.00000   0.00012   0.00012   2.10522
   A18        2.11767   0.00001   0.00000  -0.00032  -0.00032   2.11735
   A19        1.77829   0.00005   0.00000   0.00012   0.00011   1.77840
   A20        1.95796  -0.00016   0.00000  -0.00156  -0.00156   1.95640
   A21        1.94317   0.00009   0.00000   0.00126   0.00127   1.94445
   A22        1.95163   0.00019   0.00000   0.00176   0.00177   1.95340
   A23        1.95437   0.00002   0.00000   0.00104   0.00103   1.95540
   A24        1.87911  -0.00017   0.00000  -0.00240  -0.00240   1.87671
   A25        1.87379   0.00084   0.00000   0.00125   0.00124   1.87503
   A26        1.96967  -0.00002   0.00000   0.00111   0.00111   1.97078
   A27        1.96045  -0.00009   0.00000  -0.00011  -0.00011   1.96033
   A28        1.87726  -0.00020   0.00000   0.00220   0.00219   1.87946
   A29        1.87887  -0.00019   0.00000   0.00163   0.00164   1.88052
   A30        1.89968  -0.00033   0.00000  -0.00575  -0.00576   1.89392
   A31        1.89561   0.00200   0.00000   0.00566   0.00565   1.90126
    D1       -3.13827  -0.00010   0.00000  -0.00404  -0.00404   3.14087
    D2        0.00214  -0.00003   0.00000  -0.00111  -0.00111   0.00103
    D3        0.00163  -0.00007   0.00000  -0.00298  -0.00298  -0.00135
    D4       -3.14114  -0.00000   0.00000  -0.00005  -0.00005  -3.14119
    D5        3.13826   0.00013   0.00000   0.00544   0.00544  -3.13949
    D6        0.00049   0.00003   0.00000   0.00146   0.00146   0.00195
    D7       -0.00164   0.00010   0.00000   0.00438   0.00437   0.00273
    D8       -3.13941   0.00001   0.00000   0.00040   0.00040  -3.13902
    D9       -3.14041   0.00003   0.00000   0.00107   0.00107  -3.13934
   D10        0.00007  -0.00000   0.00000  -0.00018  -0.00018  -0.00010
   D11        0.00237  -0.00004   0.00000  -0.00186  -0.00186   0.00051
   D12       -3.14033  -0.00007   0.00000  -0.00311  -0.00311   3.13974
   D13       -0.00173   0.00004   0.00000   0.00183   0.00184   0.00010
   D14        3.13443   0.00014   0.00000   0.00540   0.00542   3.13985
   D15        3.13875   0.00001   0.00000   0.00059   0.00060   3.13935
   D16       -0.00826   0.00011   0.00000   0.00417   0.00418  -0.00409
   D17        0.00173  -0.00001   0.00000  -0.00038  -0.00038   0.00135
   D18        3.12999  -0.00003   0.00000  -0.00237  -0.00237   3.12763
   D19       -3.13500  -0.00011   0.00000  -0.00360  -0.00360  -3.13860
   D20       -0.00674  -0.00012   0.00000  -0.00559  -0.00558  -0.01232
   D21        3.09736  -0.00004   0.00000  -0.00316  -0.00317   3.09420
   D22       -0.04930   0.00005   0.00000   0.00018   0.00018  -0.04912
   D23       -0.00003  -0.00006   0.00000  -0.00269  -0.00268  -0.00271
   D24        3.13771   0.00004   0.00000   0.00133   0.00133   3.13904
   D25       -3.12479  -0.00001   0.00000  -0.00010  -0.00010  -3.12489
   D26        0.01295   0.00009   0.00000   0.00391   0.00391   0.01686
   D27        0.05437   0.00004   0.00000   0.00771   0.00769   0.06206
   D28        2.14419   0.00021   0.00000   0.00912   0.00911   2.15330
   D29       -2.03175  -0.00006   0.00000   0.00584   0.00583  -2.02592
   D30       -3.10244   0.00000   0.00000   0.00542   0.00540  -3.09704
   D31       -1.01261   0.00018   0.00000   0.00682   0.00681  -1.00580
   D32        1.09463  -0.00009   0.00000   0.00354   0.00354   1.09817
   D33       -0.08168  -0.00009   0.00000  -0.00779  -0.00780  -0.08949
   D34       -2.14719  -0.00037   0.00000  -0.01196  -0.01196  -2.15915
   D35        1.98046   0.00015   0.00000  -0.00506  -0.00507   1.97540
   D36       -2.17596  -0.00002   0.00000  -0.00686  -0.00687  -2.18283
   D37        2.04171  -0.00030   0.00000  -0.01103  -0.01103   2.03069
   D38       -0.11382   0.00023   0.00000  -0.00413  -0.00413  -0.11795
   D39        1.99651   0.00005   0.00000  -0.00575  -0.00576   1.99074
   D40       -0.06900  -0.00023   0.00000  -0.00992  -0.00992  -0.07892
   D41       -2.22453   0.00029   0.00000  -0.00302  -0.00303  -2.22756
   D42        0.08265   0.00009   0.00000   0.00523   0.00523   0.08788
   D43        2.20702   0.00042   0.00000   0.00849   0.00849   2.21551
   D44       -2.03165  -0.00017   0.00000   0.00375   0.00375  -2.02790
         Item               Value     Threshold  Converged?
 Maximum Force            0.009354     0.000450     NO 
 RMS     Force            0.002739     0.000300     NO 
 Maximum Displacement     0.043749     0.001800     NO 
 RMS     Displacement     0.012579     0.001200     NO 
 Predicted change in Energy=-8.813525D-04
 GradGradGradGradGradGradGradGradGradGradGradGradGradGradGradGradGradGrad

                          Input orientation:                          
 ---------------------------------------------------------------------
 Center     Atomic      Atomic             Coordinates (Angstroms)
 Number     Number       Type             X           Y           Z
 ---------------------------------------------------------------------
      1         35           0        3.505890   -0.903489    0.014605
      2          6           0        1.833372   -0.011017    0.004054
      3          6           0        0.660517   -0.765498    0.000730
      4          6           0       -0.585495   -0.125404   -0.006182
      5         53           0       -2.370203   -1.229856   -0.007284
      6          6           0       -0.614770    1.267198   -0.009452
      7          6           0        0.565882    2.014087   -0.006078
      8          6           0        1.803092    1.388468   -0.000970
      9          6           0        0.188605    3.473593   -0.031039
     10          6           0       -1.354684    3.405292    0.045663
     11          8           0       -1.727897    2.019148   -0.017944
     12          1           0        0.713628   -1.855322    0.005173
     13          1           0        2.730194    1.964641   -0.000693
     14          1           0        0.617891    4.026463    0.817530
     15          1           0        0.535012    3.962430   -0.954548
     16          1           0       -1.847849    3.922378   -0.788986
     17          1           0       -1.744576    3.814534    0.989405
 ---------------------------------------------------------------------
                    Distance matrix (angstroms):
                    1          2          3          4          5
     1  Br   0.000000
     2  C    1.895768   0.000000
     3  C    2.848751   1.394576   0.000000
     4  C    4.164767   2.421592   1.400827   0.000000
     5  I    5.885191   4.376727   3.066098   2.098809   0.000000
     6  C    4.657499   2.761777   2.399649   1.392913   3.052348
     7  C    4.142020   2.389076   2.781204   2.429628   4.375359
     8  C    2.855317   1.399822   2.438248   2.827929   4.926667
     9  C    5.492297   3.853440   4.265397   3.681390   5.354483
    10  C    6.495517   4.672965   4.632337   3.613883   4.745384
    11  O    5.994615   4.099353   3.668668   2.429881   3.311902
    12  H    2.950052   2.157611   1.091126   2.163438   3.146645
    13  H    2.971214   2.169686   3.425963   3.919453   6.018214
    14  H    5.769719   4.294227   4.861262   4.400527   6.102287
    15  H    5.782953   4.288699   4.825103   4.343423   6.024734
    16  H    7.252398   5.445356   5.375103   4.311712   5.237311
    17  H    7.125825   5.329866   5.266749   4.225846   5.179833
                    6          7          8          9         10
     6  C    0.000000
     7  C    1.397066   0.000000
     8  C    2.420916   1.386403   0.000000
     9  C    2.348203   1.507687   2.637275   0.000000
    10  C    2.263174   2.372067   3.747172   1.546702   0.000000
    11  O    1.343337   2.293816   3.586911   2.405943   1.436916
    12  H    3.393373   3.872245   3.421863   5.354839   5.652752
    13  H    3.416911   2.164883   1.091555   2.955932   4.331726
    14  H    3.133192   2.175015   3.005604   1.100009   2.207416
    15  H    3.078876   2.167161   3.023676   1.100831   2.209474
    16  H    3.029544   3.174998   4.513429   2.218791   1.098740
    17  H    2.960254   3.093673   4.410509   2.212404   1.100065
                   11         12         13         14         15
    11  O    0.000000
    12  H    4.579639   0.000000
    13  H    4.458458   4.319571   0.000000
    14  H    3.198445   5.938390   3.063073   0.000000
    15  H    3.126393   5.899085   3.117663   1.775170   0.000000
    16  H    2.056983   6.369746   5.041092   2.944758   2.388941
    17  H    2.058748   6.257695   4.942263   2.378173   2.999558
                   16         17
    16  H    0.000000
    17  H    1.784648   0.000000
 Stoichiometry    C8H6BrIO
 Framework group  C1[X(C8H6BrIO)]
 Deg. of freedom    45
 Full point group                 C1      NOp   1
 Largest Abelian subgroup         C1      NOp   1
 Largest concise Abelian subgroup C1      NOp   1
                         Standard orientation:                         
 ---------------------------------------------------------------------
 Center     Atomic      Atomic             Coordinates (Angstroms)
 Number     Number       Type             X           Y           Z
 ---------------------------------------------------------------------
      1         35           0        3.508433   -0.907029    0.004458
      2          6           0        1.838384   -0.009900   -0.001391
      3          6           0        0.663427   -0.761111   -0.001308
      4          6           0       -0.580812   -0.117547   -0.004715
      5         53           0       -2.368586   -1.217022   -0.000636
      6          6           0       -0.606215    1.275130   -0.008012
      7          6           0        0.576518    2.018727   -0.008066
      8          6           0        1.811989    1.389664   -0.006439
      9          6           0        0.203238    3.479277   -0.032065
     10          6           0       -1.340010    3.415281    0.049046
     11          8           0       -1.717263    2.030178   -0.013386
     12          1           0        0.713514   -1.851078    0.003069
     13          1           0        2.740690    1.963251   -0.008853
     14          1           0        0.636483    4.031009    0.815231
     15          1           0        0.548369    3.967081   -0.956598
     16          1           0       -1.834112    3.933681   -0.784233
     17          1           0       -1.726065    3.825676    0.993864
 ---------------------------------------------------------------------
 Rotational constants (GHZ):           0.6585771           0.2704604           0.1921990
 Standard basis: def2SVP (5D, 7F)
 There are   228 symmetry adapted cartesian basis functions of A   symmetry.
 There are   214 symmetry adapted basis functions of A   symmetry.
   214 basis functions,   414 primitive gaussians,   228 cartesian basis functions
    61 alpha electrons       61 beta electrons
       nuclear repulsion energy       997.7569899714 Hartrees.
 NAtoms=   17 NActive=   17 NUniq=   17 SFac= 1.00D+00 NAtFMM=   60 NAOKFM=F Big=F
 Integral buffers will be    131072 words long.
 Raffenetti 2 integral format.
 Two-electron integral symmetry is turned on.
 Nuclear repulsion after empirical dispersion term =      997.7463636776 Hartrees.
 One-electron integrals computed using PRISM.
   1 Symmetry operations used in ECPInt.
 ECPInt:  NShTT=    4465 NPrTT=   18543 LenC2=    4269 LenP2D=   13034.
 LDataN:  DoStor=T MaxTD1= 6 Len=  172
 NBasis=   214 RedAO= T EigKep=  2.20D-04  NBF=   214
 NBsUse=   214 1.00D-06 EigRej= -1.00D+00 NBFU=   214
 Defaulting to unpruned grid for atomic number  53.
 Initial guess from the checkpoint file:  "arbr48_wb97xd_QRC.chk"
 B after Tr=     0.000000    0.000000   -0.000000
         Rot=    0.999999    0.000027    0.000014    0.001705 Ang=   0.20 deg.
 ExpMin= 1.11D-01 ExpMax= 1.13D+05 ExpMxC= 1.70D+04 IAcc=3 IRadAn=         5 AccDes= 0.00D+00
 Harris functional with IExCor= 4639 and IRadAn=       5 diagonalized for initial guess.
 HarFok:  IExCor= 4639 AccDes= 0.00D+00 IRadAn=         5 IDoV= 1 UseB2=F ITyADJ=14
 ICtDFT=  3500011 ScaDFX=  1.000000  1.000000  1.000000  1.000000
 Defaulting to unpruned grid for atomic number  53.
 FoFCou: FMM=F IPFlag=           0 FMFlag=      100000 FMFlg1=           0
         NFxFlg=           0 DoJE=T BraDBF=F KetDBF=T FulRan=T
         wScrn=  0.000000 ICntrl=       500 IOpCl=  0 I1Cent=   200000004 NGrid=           0
         NMat0=    1 NMatS0=      1 NMatT0=    0 NMatD0=    1 NMtDS0=    0 NMtDT0=    0
 Petite list used in FoFCou.
 Requested convergence on RMS density matrix=1.00D-08 within 128 cycles.
 Requested convergence on MAX density matrix=1.00D-06.
 Requested convergence on             energy=1.00D-06.
 No special actions if energy rises.
 Integral accuracy reduced to 1.0D-05 until final iterations.
 Defaulting to unpruned grid for atomic number  53.
 Defaulting to unpruned grid for atomic number  53.
 Defaulting to unpruned grid for atomic number  53.
 Defaulting to unpruned grid for atomic number  53.
 Defaulting to unpruned grid for atomic number  53.
 Defaulting to unpruned grid for atomic number  53.
 Defaulting to unpruned grid for atomic number  53.
 Defaulting to unpruned grid for atomic number  53.
 Defaulting to unpruned grid for atomic number  53.
 Defaulting to unpruned grid for atomic number  53.
 Defaulting to unpruned grid for atomic number  53.
 Defaulting to unpruned grid for atomic number  53.
 Defaulting to unpruned grid for atomic number  53.
 Defaulting to unpruned grid for atomic number  53.
 Defaulting to unpruned grid for atomic number  53.
 Defaulting to unpruned grid for atomic number  53.
 Defaulting to unpruned grid for atomic number  53.
 Defaulting to unpruned grid for atomic number  53.
 Defaulting to unpruned grid for atomic number  53.
 Defaulting to unpruned grid for atomic number  53.
 Defaulting to unpruned grid for atomic number  53.
 Defaulting to unpruned grid for atomic number  53.
 Defaulting to unpruned grid for atomic number  53.
 Defaulting to unpruned grid for atomic number  53.
 Initial convergence to 1.0D-05 achieved.  Increase integral accuracy.
 SCF Done:  E(RwB97XD) =  -3254.95335673     A.U. after   13 cycles
            NFock= 13  Conv=0.73D-08     -V/T= 2.0623
   1 Symmetry operations used in ECPInt.
 ECPInt:  NShTT=    4465 NPrTT=   18543 LenC2=    4269 LenP2D=   13034.
 LDataN:  DoStor=T MaxTD1= 7 Len=  274
 Calling FoFJK, ICntrl=      2127 FMM=F ISym2X=0 I1Cent= 0 IOpClX= 0 NMat=1 NMatS=1 NMatT=0.
 Defaulting to unpruned grid for atomic number  53.
 Defaulting to unpruned grid for atomic number  53.
 Defaulting to unpruned grid for atomic number  53.
 Defaulting to unpruned grid for atomic number  53.
 Defaulting to unpruned grid for atomic number  53.
 Defaulting to unpruned grid for atomic number  53.
 Defaulting to unpruned grid for atomic number  53.
 Defaulting to unpruned grid for atomic number  53.
 Defaulting to unpruned grid for atomic number  53.
 Defaulting to unpruned grid for atomic number  53.
 Defaulting to unpruned grid for atomic number  53.
 Defaulting to unpruned grid for atomic number  53.
 Defaulting to unpruned grid for atomic number  53.
 Defaulting to unpruned grid for atomic number  53.
 Defaulting to unpruned grid for atomic number  53.
 Defaulting to unpruned grid for atomic number  53.
 Defaulting to unpruned grid for atomic number  53.
 Defaulting to unpruned grid for atomic number  53.
 Defaulting to unpruned grid for atomic number  53.
 Defaulting to unpruned grid for atomic number  53.
 Defaulting to unpruned grid for atomic number  53.
 Defaulting to unpruned grid for atomic number  53.
 Defaulting to unpruned grid for atomic number  53.
 Defaulting to unpruned grid for atomic number  53.
 ***** Axes restored to original set *****
 -------------------------------------------------------------------
 Center     Atomic                   Forces (Hartrees/Bohr)
 Number     Number              X              Y              Z
 -------------------------------------------------------------------
      1       35          -0.000765090    0.000385474    0.000007824
      2        6           0.000242286   -0.000069735   -0.000036363
      3        6          -0.001015961    0.000778597   -0.000008522
      4        6           0.000993934   -0.000161560    0.000066778
      5       53           0.001278665    0.000947271   -0.000028413
      6        6          -0.002063047   -0.000108853    0.000097529
      7        6           0.001340026   -0.000497958   -0.000057605
      8        6          -0.001123282   -0.000180421    0.000081598
      9        6          -0.000513917   -0.000330195    0.000178020
     10        6          -0.000217673   -0.002093466   -0.000192989
     11        8           0.002079873    0.000625240   -0.000162512
     12        1          -0.000014514    0.000367758   -0.000010338
     13        1          -0.000292751   -0.000236677   -0.000004994
     14        1           0.000088556    0.000121522   -0.000230502
     15        1           0.000050798   -0.000016952    0.000059995
     16        1          -0.000070114    0.000254826    0.000235725
     17        1           0.000002210    0.000215130    0.000004771
 -------------------------------------------------------------------
 Cartesian Forces:  Max     0.002093466 RMS     0.000682569

 GradGradGradGradGradGradGradGradGradGradGradGradGradGradGradGradGradGrad
 Berny optimization.
 Using GEDIIS/GDIIS optimizer.
 FormGI is forming the generalized inverse of G from B-inverse, IUseBI=4.
 Internal  Forces:  Max     0.001790723 RMS     0.000452951
 Search for a local minimum.
 Step number   2 out of a maximum of  102
 All quantities printed in internal units (Hartrees-Bohrs-Radians)
 Mixed Optimization -- En-DIIS/RFO-DIIS
 Update second derivatives using D2CorX and points    1    2
 DE= -7.92D-04 DEPred=-8.81D-04 R= 8.99D-01
 TightC=F SS=  1.41D+00  RLast= 7.79D-02 DXNew= 5.0454D-01 2.3357D-01
 Trust test= 8.99D-01 RLast= 7.79D-02 DXMaxT set to 3.00D-01
 ITU=  1  0
 Use linear search instead of GDIIS.
     Eigenvalues ---    0.00543   0.01546   0.01838   0.02233   0.02252
     Eigenvalues ---    0.02255   0.02268   0.02287   0.02307   0.02343
     Eigenvalues ---    0.04279   0.04456   0.05493   0.05875   0.07992
     Eigenvalues ---    0.08858   0.11415   0.11737   0.15320   0.16000
     Eigenvalues ---    0.16001   0.18469   0.22627   0.23497   0.23547
     Eigenvalues ---    0.24761   0.24888   0.24999   0.25000   0.27584
     Eigenvalues ---    0.31090   0.33772   0.34440   0.34515   0.34599
     Eigenvalues ---    0.35643   0.35852   0.37556   0.42001   0.43728
     Eigenvalues ---    0.47240   0.47759   0.48269   0.51665   0.55582
 RFO step:  Lambda=-4.42247137D-05 EMin= 5.43297635D-03
 Quartic linear search produced a step of -0.08209.
 Iteration  1 RMS(Cart)=  0.00435993 RMS(Int)=  0.00001016
 Iteration  2 RMS(Cart)=  0.00001184 RMS(Int)=  0.00000212
 Iteration  3 RMS(Cart)=  0.00000000 RMS(Int)=  0.00000212
 Variable       Old X    -DE/DX   Delta X   Delta X   Delta X     New X
                                 (Linear)    (Quad)   (Total)
    R1        3.58248  -0.00086  -0.00004  -0.00420  -0.00424   3.57824
    R2        2.63537  -0.00084  -0.00158   0.00041  -0.00116   2.63420
    R3        2.64528  -0.00084  -0.00153   0.00039  -0.00115   2.64413
    R4        2.64718  -0.00179  -0.00144  -0.00169  -0.00313   2.64405
    R5        2.06193  -0.00037  -0.00161   0.00112  -0.00048   2.06145
    R6        3.96617  -0.00159  -0.00272  -0.00649  -0.00921   3.95697
    R7        2.63222  -0.00140  -0.00150  -0.00074  -0.00224   2.62998
    R8        2.64007  -0.00027  -0.00142   0.00139  -0.00002   2.64005
    R9        2.53854  -0.00172   0.00024  -0.00322  -0.00298   2.53556
   R10        2.61992  -0.00132  -0.00145  -0.00052  -0.00197   2.61795
   R11        2.84911  -0.00035  -0.00056  -0.00004  -0.00060   2.84851
   R12        2.06274  -0.00037  -0.00153   0.00101  -0.00052   2.06222
   R13        2.92284  -0.00027  -0.00032  -0.00045  -0.00077   2.92207
   R14        2.07872  -0.00008  -0.00129   0.00144   0.00015   2.07886
   R15        2.08027  -0.00004  -0.00125   0.00150   0.00024   2.08051
   R16        2.71538  -0.00156   0.00061  -0.00460  -0.00399   2.71139
   R17        2.07632  -0.00003  -0.00083   0.00100   0.00016   2.07648
   R18        2.07882   0.00008  -0.00119   0.00175   0.00056   2.07938
    A1        2.07978   0.00006  -0.00010   0.00033   0.00023   2.08001
    A2        2.08261   0.00011  -0.00006   0.00047   0.00041   2.08303
    A3        2.12079  -0.00017   0.00016  -0.00080  -0.00064   2.12015
    A4        2.09540  -0.00002  -0.00008  -0.00016  -0.00024   2.09516
    A5        2.09372   0.00000   0.00006   0.00001   0.00007   2.09380
    A6        2.09406   0.00002   0.00002   0.00015   0.00017   2.09423
    A7        2.11287  -0.00001  -0.00017   0.00029   0.00012   2.11299
    A8        2.06638   0.00052  -0.00007   0.00182   0.00175   2.06813
    A9        2.10393  -0.00052   0.00024  -0.00210  -0.00187   2.10207
   A10        2.11382  -0.00040   0.00016  -0.00156  -0.00140   2.11242
   A11        2.18593   0.00019  -0.00038   0.00133   0.00096   2.18689
   A12        1.98344   0.00021   0.00022   0.00022   0.00044   1.98388
   A13        2.10937  -0.00002  -0.00015   0.00015   0.00000   2.10938
   A14        1.88180  -0.00039   0.00041  -0.00180  -0.00139   1.88041
   A15        2.29188   0.00040  -0.00026   0.00163   0.00137   2.29325
   A16        2.06061   0.00008  -0.00002   0.00055   0.00053   2.06114
   A17        2.10522  -0.00008  -0.00001  -0.00051  -0.00052   2.10470
   A18        2.11735   0.00001   0.00003  -0.00004  -0.00001   2.11734
   A19        1.77840  -0.00021  -0.00001  -0.00040  -0.00042   1.77798
   A20        1.95640   0.00008   0.00013   0.00072   0.00085   1.95725
   A21        1.94445   0.00006  -0.00010  -0.00016  -0.00027   1.94418
   A22        1.95340   0.00012  -0.00015   0.00099   0.00085   1.95424
   A23        1.95540   0.00009  -0.00008   0.00051   0.00042   1.95583
   A24        1.87671  -0.00013   0.00020  -0.00152  -0.00132   1.87539
   A25        1.87503  -0.00001  -0.00010   0.00011  -0.00000   1.87503
   A26        1.97078   0.00002  -0.00009   0.00016   0.00007   1.97085
   A27        1.96033  -0.00005   0.00001  -0.00063  -0.00062   1.95971
   A28        1.87946   0.00006  -0.00018   0.00183   0.00166   1.88111
   A29        1.88052   0.00013  -0.00013   0.00151   0.00138   1.88190
   A30        1.89392  -0.00014   0.00047  -0.00273  -0.00226   1.89167
   A31        1.90126   0.00039  -0.00046   0.00095   0.00048   1.90174
    D1        3.14087  -0.00001   0.00033  -0.00069  -0.00036   3.14051
    D2        0.00103  -0.00001   0.00009  -0.00060  -0.00051   0.00052
    D3       -0.00135  -0.00001   0.00024  -0.00064  -0.00040  -0.00175
    D4       -3.14119  -0.00001   0.00000  -0.00055  -0.00055   3.14145
    D5       -3.13949  -0.00000  -0.00045   0.00050   0.00005  -3.13943
    D6        0.00195   0.00001  -0.00012   0.00087   0.00075   0.00270
    D7        0.00273  -0.00000  -0.00036   0.00045   0.00009   0.00283
    D8       -3.13902   0.00001  -0.00003   0.00082   0.00079  -3.13823
    D9       -3.13934  -0.00002  -0.00009  -0.00076  -0.00085  -3.14019
   D10       -0.00010   0.00001   0.00001   0.00007   0.00008  -0.00002
   D11        0.00051  -0.00002   0.00015  -0.00086  -0.00071  -0.00020
   D12        3.13974   0.00001   0.00026  -0.00003   0.00023   3.13997
   D13        0.00010   0.00001  -0.00015   0.00069   0.00054   0.00064
   D14        3.13985  -0.00001  -0.00044   0.00043  -0.00001   3.13984
   D15        3.13935   0.00004  -0.00005   0.00152   0.00147   3.14082
   D16       -0.00409   0.00002  -0.00034   0.00126   0.00092  -0.00317
   D17        0.00135  -0.00002   0.00003  -0.00089  -0.00086   0.00049
   D18        3.12763  -0.00002   0.00019  -0.00216  -0.00196   3.12566
   D19       -3.13860  -0.00001   0.00030  -0.00066  -0.00037  -3.13897
   D20       -0.01232  -0.00000   0.00046  -0.00193  -0.00147  -0.01379
   D21        3.09420  -0.00003   0.00026  -0.00372  -0.00346   3.09073
   D22       -0.04912  -0.00005  -0.00001  -0.00397  -0.00398  -0.05310
   D23       -0.00271   0.00002   0.00022   0.00031   0.00053  -0.00219
   D24        3.13904   0.00000  -0.00011  -0.00006  -0.00017   3.13886
   D25       -3.12489   0.00002   0.00001   0.00195   0.00196  -3.12293
   D26        0.01686   0.00001  -0.00032   0.00158   0.00126   0.01812
   D27        0.06206   0.00001  -0.00063   0.00627   0.00564   0.06770
   D28        2.15330   0.00007  -0.00075   0.00754   0.00679   2.16009
   D29       -2.02592   0.00000  -0.00048   0.00598   0.00550  -2.02041
   D30       -3.09704   0.00001  -0.00044   0.00480   0.00436  -3.09269
   D31       -1.00580   0.00007  -0.00056   0.00607   0.00551  -1.00029
   D32        1.09817   0.00000  -0.00029   0.00451   0.00422   1.10239
   D33       -0.08949  -0.00004   0.00064  -0.00856  -0.00792  -0.09740
   D34       -2.15915  -0.00013   0.00098  -0.01099  -0.01001  -2.16916
   D35        1.97540   0.00008   0.00042  -0.00700  -0.00659   1.96881
   D36       -2.18283  -0.00008   0.00056  -0.00964  -0.00908  -2.19191
   D37        2.03069  -0.00016   0.00091  -0.01207  -0.01117   2.01952
   D38       -0.11795   0.00004   0.00034  -0.00808  -0.00775  -0.12570
   D39        1.99074  -0.00005   0.00047  -0.00875  -0.00827   1.98247
   D40       -0.07892  -0.00014   0.00081  -0.01118  -0.01036  -0.08929
   D41       -2.22756   0.00007   0.00025  -0.00719  -0.00694  -2.23450
   D42        0.08788   0.00007  -0.00043   0.00800   0.00757   0.09545
   D43        2.21551   0.00013  -0.00070   0.00930   0.00860   2.22411
   D44       -2.02790   0.00006  -0.00031   0.00784   0.00754  -2.02036
         Item               Value     Threshold  Converged?
 Maximum Force            0.001791     0.000450     NO 
 RMS     Force            0.000453     0.000300     NO 
 Maximum Displacement     0.015219     0.001800     NO 
 RMS     Displacement     0.004361     0.001200     NO 
 Predicted change in Energy=-2.888567D-05
 GradGradGradGradGradGradGradGradGradGradGradGradGradGradGradGradGradGrad

                          Input orientation:                          
 ---------------------------------------------------------------------
 Center     Atomic      Atomic             Coordinates (Angstroms)
 Number     Number       Type             X           Y           Z
 ---------------------------------------------------------------------
      1         35           0        3.502938   -0.902919    0.019477
      2          6           0        1.832743   -0.010897    0.006135
      3          6           0        0.659967   -0.764354    0.001082
      4          6           0       -0.584029   -0.123982   -0.007471
      5         53           0       -2.365627   -1.224187   -0.012729
      6          6           0       -0.614551    1.267407   -0.010707
      7          6           0        0.566447    2.013720   -0.006335
      8          6           0        1.802415    1.387979    0.000772
      9          6           0        0.187980    3.472532   -0.034365
     10          6           0       -1.354530    3.402607    0.048118
     11          8           0       -1.726333    2.018518   -0.020665
     12          1           0        0.712341   -1.853958    0.005316
     13          1           0        2.729556    1.963571    0.001679
     14          1           0        0.620465    4.029387    0.810066
     15          1           0        0.530929    3.958668   -0.960741
     16          1           0       -1.851559    3.925157   -0.780933
     17          1           0       -1.740543    3.808400    0.995284
 ---------------------------------------------------------------------
                    Distance matrix (angstroms):
                    1          2          3          4          5
     1  Br   0.000000
     2  C    1.893524   0.000000
     3  C    2.846405   1.393961   0.000000
     4  C    4.160621   2.419454   1.399169   0.000000
     5  I    5.877441   4.370211   3.060369   2.093937   0.000000
     6  C    4.654562   2.761085   2.398455   1.391728   3.045376
     7  C    4.138892   2.388040   2.779657   2.427626   4.368197
     8  C    2.853129   1.399215   2.436745   2.825104   4.918961
     9  C    5.489665   3.852424   4.263242   3.678538   5.346078
    10  C    6.491022   4.670383   4.628604   3.610207   4.736375
    11  O    5.990132   4.097104   3.665962   2.428033   3.305132
    12  H    2.948238   2.156890   1.090871   2.161841   3.141787
    13  H    2.969041   2.168598   3.424145   3.916351   6.010233
    14  H    5.767263   4.294161   4.861683   4.401096   6.098670
    15  H    5.781756   4.288009   4.821690   4.338190   6.012550
    16  H    7.254076   5.448493   5.376879   4.312819   5.231649
    17  H    7.116377   5.322952   5.259369   4.219795   5.170469
                    6          7          8          9         10
     6  C    0.000000
     7  C    1.397054   0.000000
     8  C    2.419999   1.385359   0.000000
     9  C    2.346741   1.507368   2.636854   0.000000
    10  C    2.260555   2.371102   3.745299   1.546295   0.000000
    11  O    1.341762   2.292830   3.584704   2.403942   1.434806
    12  H    3.391728   3.870446   3.420299   5.352386   5.648475
    13  H    3.415823   2.163705   1.091282   2.955989   4.330443
    14  H    3.134879   2.175395   3.004829   1.100088   2.207719
    15  H    3.075317   2.166789   3.024835   1.100961   2.209514
    16  H    3.031018   3.178104   4.516620   2.218547   1.098827
    17  H    2.955760   3.089712   4.404548   2.211828   1.100363
                   11         12         13         14         15
    11  O    0.000000
    12  H    4.576449   0.000000
    13  H    4.456283   4.317719   0.000000
    14  H    3.200182   5.938839   3.060939   0.000000
    15  H    3.121402   5.895151   3.120998   1.774478   0.000000
    16  H    2.056443   6.371024   5.044493   2.941605   2.389498
    17  H    2.058161   6.249718   4.936844   2.378550   3.001366
                   16         17
    16  H    0.000000
    17  H    1.783508   0.000000
 Stoichiometry    C8H6BrIO
 Framework group  C1[X(C8H6BrIO)]
 Deg. of freedom    45
 Full point group                 C1      NOp   1
 Largest Abelian subgroup         C1      NOp   1
 Largest concise Abelian subgroup C1      NOp   1
                         Standard orientation:                         
 ---------------------------------------------------------------------
 Center     Atomic      Atomic             Coordinates (Angstroms)
 Number     Number       Type             X           Y           Z
 ---------------------------------------------------------------------
      1         35           0        3.506221   -0.901857    0.004854
      2          6           0        1.836790   -0.008328   -0.001390
      3          6           0        0.663322   -0.760724   -0.000873
      4          6           0       -0.580120   -0.119229   -0.004129
      5         53           0       -2.362718   -1.217820   -0.000943
      6          6           0       -0.609398    1.272186   -0.007820
      7          6           0        0.572283    2.017430   -0.009052
      8          6           0        1.807704    1.390573   -0.007212
      9          6           0        0.195013    3.476574   -0.036007
     10          6           0       -1.347175    3.408081    0.053409
     11          8           0       -1.720533    2.024301   -0.013120
     12          1           0        0.714729   -1.850373    0.003590
     13          1           0        2.735359    1.965324   -0.010700
     14          1           0        0.631777    4.033391    0.806242
     15          1           0        0.534250    3.962008   -0.964116
     16          1           0       -1.847437    3.930732   -0.773630
     17          1           0       -1.728577    3.814622    1.002122
 ---------------------------------------------------------------------
 Rotational constants (GHZ):           0.6602384           0.2711286           0.1926792
 Standard basis: def2SVP (5D, 7F)
 There are   228 symmetry adapted cartesian basis functions of A   symmetry.
 There are   214 symmetry adapted basis functions of A   symmetry.
   214 basis functions,   414 primitive gaussians,   228 cartesian basis functions
    61 alpha electrons       61 beta electrons
       nuclear repulsion energy       998.7651910714 Hartrees.
 NAtoms=   17 NActive=   17 NUniq=   17 SFac= 1.00D+00 NAtFMM=   60 NAOKFM=F Big=F
 Integral buffers will be    131072 words long.
 Raffenetti 2 integral format.
 Two-electron integral symmetry is turned on.
 Nuclear repulsion after empirical dispersion term =      998.7545592475 Hartrees.
 One-electron integrals computed using PRISM.
   1 Symmetry operations used in ECPInt.
 ECPInt:  NShTT=    4465 NPrTT=   18543 LenC2=    4269 LenP2D=   13039.
 LDataN:  DoStor=T MaxTD1= 6 Len=  172
 NBasis=   214 RedAO= T EigKep=  2.18D-04  NBF=   214
 NBsUse=   214 1.00D-06 EigRej= -1.00D+00 NBFU=   214
 Defaulting to unpruned grid for atomic number  53.
 Initial guess from the checkpoint file:  "arbr48_wb97xd_QRC.chk"
 B after Tr=    -0.000000    0.000000    0.000000
         Rot=    1.000000   -0.000005   -0.000021   -0.000767 Ang=  -0.09 deg.
 Requested convergence on RMS density matrix=1.00D-08 within 128 cycles.
 Requested convergence on MAX density matrix=1.00D-06.
 Requested convergence on             energy=1.00D-06.
 No special actions if energy rises.
 Defaulting to unpruned grid for atomic number  53.
 Defaulting to unpruned grid for atomic number  53.
 Defaulting to unpruned grid for atomic number  53.
 Defaulting to unpruned grid for atomic number  53.
 Defaulting to unpruned grid for atomic number  53.
 Defaulting to unpruned grid for atomic number  53.
 Defaulting to unpruned grid for atomic number  53.
 Defaulting to unpruned grid for atomic number  53.
 Defaulting to unpruned grid for atomic number  53.
 Defaulting to unpruned grid for atomic number  53.
 Defaulting to unpruned grid for atomic number  53.
 Defaulting to unpruned grid for atomic number  53.
 Defaulting to unpruned grid for atomic number  53.
 Defaulting to unpruned grid for atomic number  53.
 Defaulting to unpruned grid for atomic number  53.
 Defaulting to unpruned grid for atomic number  53.
 Defaulting to unpruned grid for atomic number  53.
 Defaulting to unpruned grid for atomic number  53.
 Defaulting to unpruned grid for atomic number  53.
 Defaulting to unpruned grid for atomic number  53.
 Defaulting to unpruned grid for atomic number  53.
 Defaulting to unpruned grid for atomic number  53.
 Defaulting to unpruned grid for atomic number  53.
 Defaulting to unpruned grid for atomic number  53.
 SCF Done:  E(RwB97XD) =  -3254.95339101     A.U. after   10 cycles
            NFock= 10  Conv=0.97D-08     -V/T= 2.0623
   1 Symmetry operations used in ECPInt.
 ECPInt:  NShTT=    4465 NPrTT=   18543 LenC2=    4269 LenP2D=   13039.
 LDataN:  DoStor=T MaxTD1= 7 Len=  274
 Calling FoFJK, ICntrl=      2127 FMM=F ISym2X=0 I1Cent= 0 IOpClX= 0 NMat=1 NMatS=1 NMatT=0.
 Defaulting to unpruned grid for atomic number  53.
 Defaulting to unpruned grid for atomic number  53.
 Defaulting to unpruned grid for atomic number  53.
 Defaulting to unpruned grid for atomic number  53.
 Defaulting to unpruned grid for atomic number  53.
 Defaulting to unpruned grid for atomic number  53.
 Defaulting to unpruned grid for atomic number  53.
 Defaulting to unpruned grid for atomic number  53.
 Defaulting to unpruned grid for atomic number  53.
 Defaulting to unpruned grid for atomic number  53.
 Defaulting to unpruned grid for atomic number  53.
 Defaulting to unpruned grid for atomic number  53.
 Defaulting to unpruned grid for atomic number  53.
 Defaulting to unpruned grid for atomic number  53.
 Defaulting to unpruned grid for atomic number  53.
 Defaulting to unpruned grid for atomic number  53.
 Defaulting to unpruned grid for atomic number  53.
 Defaulting to unpruned grid for atomic number  53.
 Defaulting to unpruned grid for atomic number  53.
 Defaulting to unpruned grid for atomic number  53.
 Defaulting to unpruned grid for atomic number  53.
 Defaulting to unpruned grid for atomic number  53.
 Defaulting to unpruned grid for atomic number  53.
 Defaulting to unpruned grid for atomic number  53.
 ***** Axes restored to original set *****
 -------------------------------------------------------------------
 Center     Atomic                   Forces (Hartrees/Bohr)
 Number     Number              X              Y              Z
 -------------------------------------------------------------------
      1       35           0.000056412   -0.000031215    0.000009545
      2        6           0.000067298   -0.000064618   -0.000013115
      3        6          -0.000101186    0.000193119   -0.000007863
      4        6           0.000424118    0.000011550    0.000025885
      5       53          -0.000241715   -0.000092368   -0.000006145
      6        6          -0.000548563    0.000007178    0.000097847
      7        6           0.000511090   -0.000065079   -0.000018287
      8        6          -0.000399257    0.000053359    0.000026385
      9        6          -0.000089388    0.000042008    0.000178505
     10        6          -0.000238167   -0.000705504   -0.000045482
     11        8           0.000672006    0.000418907   -0.000266326
     12        1          -0.000000399    0.000192426    0.000001324
     13        1          -0.000128031   -0.000105681    0.000007681
     14        1          -0.000014820    0.000066380   -0.000215439
     15        1          -0.000009261   -0.000085522    0.000036691
     16        1          -0.000041413    0.000101953    0.000176393
     17        1           0.000081274    0.000063106    0.000012400
 -------------------------------------------------------------------
 Cartesian Forces:  Max     0.000705504 RMS     0.000222386

 GradGradGradGradGradGradGradGradGradGradGradGradGradGradGradGradGradGrad
 Berny optimization.
 Using GEDIIS/GDIIS optimizer.
 FormGI is forming the generalized inverse of G from B-inverse, IUseBI=4.
 Internal  Forces:  Max     0.000551477 RMS     0.000110175
 Search for a local minimum.
 Step number   3 out of a maximum of  102
[...]
   zx        -0.354891D+00     -0.525895D-01     -0.585137D-01
   zy         0.318482D+01      0.471942D+00      0.525106D+00
   zz         0.146101D+03      0.216500D+02      0.240888D+02

 ----------------------------------------------------------------------
 Unable to Open any file for archive entry.
 1\1\GINC-DYNAMO\Freq\RwB97XD\def2SVP\C8H6Br1I1O1\RPATON\23-Sep-2024\0\
 \#N Geom=AllCheck Guess=TCheck SCRF=Check GenChk RwB97XD/def2SVP Freq\
 \arbr48_wb97xd_QRC\\0,1\Br,3.4956671428,-0.8999365261,0.1453500317\C,1
 .8286365191,-0.0063875336,0.0553645282\C,0.6562570815,-0.7583576862,0.
 007850655\C,-0.5862684028,-0.1173899133,-0.0526829753\I,-2.3686397138,
 -1.2158859222,-0.1173526152\C,-0.6144588597,1.2730349083,-0.063965242\
 C,0.5674084753,2.0192265058,-0.020126713\C,1.8007822759,1.3928214519,0
 .0369310613\C,0.1814142471,3.4740943312,-0.1139873055\C,-1.3414422781,
 3.3935146943,0.1086049531\O,-1.7216705874,2.0316452614,-0.1230459\H,0.
 7072879372,-1.8476683829,0.0231885541\H,2.7282241975,1.9667688567,0.06
 554427\H,0.6771779172,4.1054529265,0.6365206773\H,0.4318857494,3.87732
 46471,-1.1086117516\H,-1.9233551323,4.0279830373,-0.5718325738\H,-1.61
 02985688,3.6514073436,1.1462333456\\Version=ES64L-G16RevC.01\State=1-A
 \HF=-3254.9536048\RMSD=2.324e-09\RMSF=2.224e-05\ZeroPoint=0.1213458\Th
 ermal=0.1310588\ETot=-3254.8225461\HTot=-3254.8216019\GTot=-3254.87051
 05\Dipole=0.0229971,1.29555,0.0506911\DipoleDeriv=-0.4903771,0.1939743
 ,-0.02143,0.2154591,-0.175218,0.010514,-0.0255555,0.0099738,-0.0379687
 ,0.6938635,-0.5177671,0.0468068,-0.4391652,-0.0249382,-0.0214258,0.045
 5265,-0.0201224,-0.0987549,-0.2562528,0.1719065,-0.015537,-0.1360447,-
 0.1522366,-0.0036697,-0.009207,0.007244,-0.0283157,0.4710359,0.3824918
 ,0.0315292,0.6520927,0.1372518,0.0159382,0.0261579,0.0073883,-0.165732
 8,-0.1741636,-0.1018661,-0.0065012,-0.1255708,-0.023661,-0.0037317,-0.
 0038184,-0.0032486,0.0173813,0.5374289,-1.2261396,-0.0270657,-0.553648
 6,0.4097247,-0.0006087,0.0465899,-0.0857152,0.1550405,-0.1207561,0.428
 3165,0.0083865,-0.1789146,0.1754056,-0.0238298,-0.0148215,-0.0411424,-
 0.103697,-0.1621883,-0.025522,-0.0112256,0.1292284,0.0925125,0.0081703
 ,-0.0055416,0.0099405,-0.052047,-0.0507529,-0.0625377,0.0023245,0.0913
 006,-0.0385319,0.0050299,0.0243085,0.025752,0.1307687,0.2670272,0.0526
 099,0.0198645,-0.2185529,0.9401583,0.0883422,-0.0346452,0.1265555,0.34
 6165,-0.9218786,0.7107324,-0.0201186,0.5348033,-1.2915413,-0.0915029,-
 0.0649985,0.0079041,-0.2499541,0.1112043,0.0047239,0.0003384,0.0069782
 ,0.0337361,0.0007189,-0.0022325,0.0018719,0.11055,0.017477,-0.0476875,
 -0.0025044,-0.0482719,0.0729649,-0.0019474,-0.0021306,-0.0065187,0.112
 3608,0.0279767,-0.0269151,-0.0340544,-0.0280126,-0.0363987,-0.034381,-
 0.0461572,-0.0891593,0.0163419,0.0275107,0.0237724,0.0351872,-0.003672
 3,-0.0378766,0.038167,0.046942,0.0868652,-0.048885,-0.0045821,0.065821
 2,-0.0328293,0.0614921,-0.0450425,0.0277071,-0.0714788,0.0720727,0.007
 4277,0.0274274,-0.0259139,0.0268292,0.0404993,-0.0363093,-0.0134905,0.
 0910619,-0.1096615,-0.1106808\Polar=166.7334371,-0.9105432,146.2564482
 ,3.4461071,-0.1901615,68.162034\Quadrupole=-4.8561016,9.1393701,-4.283
 2685,1.2793415,-0.2866992,0.3045426\PG=C01 [X(C8H6Br1I1O1)]\NImag=0\\0
 .17535838,-0.07772506,0.07191531,0.00879708,-0.00445292,0.00994511,-0.
 12613221,0.05094570,-0.00565089,0.54942109,0.05117239,-0.05889680,0.00
 295846,0.05991223,0.62313777,-0.00570642,0.00284497,-0.01875543,0.0196
 0145,-0.00278439,0.11856514,-0.03402660,-0.00446473,-0.00177898,-0.265
 85036,-0.07407918,-0.00922174,0.66660235,0.01878797,0.00411053,0.00086
 485,-0.14437674,-0.19128029,-0.00548831,-0.00053421,0.76543270,-0.0020
 2156,-0.00018530,0.00342001,-0.00814809,-0.00248718,-0.06555821,0.0244
 7018,-0.00667202,0.13572912,-0.00045854,-0.00023838,-0.00015439,-0.060
 92326,-0.03627313,-0.00263812,-0.28731602,0.12785425,-0.01170607,0.543
 95625,-0.00253599,-0.00152518,-0.00007059,0.02983237,0.06793811,0.0004
 6384,0.06758797,-0.16713617,0.00453836,-0.06677512,0.62207163,-0.00010
 718,-0.00000985,0.00388062,-0.00309871,-0.00186990,0.01046806,-0.01093
 911,0.00715318,-0.05861717,0.01971001,-0.00678349,0.10595958,-0.000648
 44,-0.00010060,-0.00002084,0.00056779,0.00316353,-0.00018518,-0.026836
 40,-0.01687638,-0.00116202,-0.09795487,-0.04930013,-0.00300621,0.13636
 918,0.00000935,-0.00000180,0.00001126,0.00159100,0.00067090,0.00007123
 ,-0.00144546,0.00226476,-0.00013218,-0.04550128,-0.05459215,-0.0015897
 8,0.07101492,0.06591097,-0.00002990,-0.00000569,0.00013398,-0.00013090
 ,0.00020533,0.00324211,-0.00127102,-0.00067804,0.00237175,-0.00300123,
 -0.00192836,-0.01492724,0.00486346,0.00252366,0.00696745,0.00177520,-0
 .00005696,0.00022220,-0.02048026,-0.03949558,-0.00036986,0.03933417,0.
 03440893,0.00129099,-0.11347659,0.02856416,-0.00309932,-0.01536027,-0.
 02760266,-0.00076891,0.68527369,-0.00084113,0.00194846,-0.00010336,-0.
 03791685,-0.07003273,-0.00070970,0.08939164,-0.01863678,0.00383229,-0.
 03780605,-0.34589941,-0.00000418,-0.00748199,-0.01120850,0.00000011,-0
 .02024495,0.81565161,0.00025111,-0.00006996,-0.00067995,-0.00047870,-0
 .00183925,-0.00449138,0.00132543,0.00215267,0.00353636,-0.00267109,0.0
 0205285,-0.06593564,-0.00084511,-0.00098486,0.00440327,0.02336128,0.00
 081626,0.15823467,0.00090841,-0.00302256,-0.00014793,0.03240203,0.0939
 8520,-0.00010058,-0.07502834,-0.00800682,-0.00301231,0.03955598,-0.076
 12955,0.00219499,0.00277792,0.00347246,-0.00000434,-0.24277035,-0.0477
 6799,-0.00699955,0.77950848,0.00141334,-0.00356385,0.00012172,0.031794
 17,-0.02104751,0.00128914,-0.00490744,-0.00201612,0.00004897,-0.018234
 12,-0.02701225,-0.00048695,-0.00028023,-0.00256756,-0.00005214,-0.1397
 3081,-0.17793178,-0.00544890,-0.06704410,0.64079316,-0.00026143,0.0001
 8659,0.00344033,-0.00106547,0.00278555,0.00882350,-0.00145568,-0.00121
 210,-0.00242034,0.00181123,-0.00114667,0.00937558,0.00012257,0.0003516
 2,0.00288397,-0.00590467,-0.00335512,-0.07310996,0.02957863,-0.0175249
 2,0.15651836,-0.01466347,0.03234724,-0.00127071,-0.11320128,-0.0417395
 0,-0.00122421,0.03818908,-0.02162864,0.00149783,-0.01869290,0.03000006
 ,-0.00083529,-0.00110351,-0.00066322,0.00001795,-0.05850051,-0.0306004
 6,-0.00329028,-0.33396458,0.13072365,-0.01276561,0.76896461,0.00813250
 ,-0.01449309,0.00048135,0.02627348,-0.33620021,0.00480130,-0.07763680,
 -0.03039014,-0.00301389,0.03509097,-0.05476466,0.00180571,-0.00082984,
 -0.00017205,-0.00005069,0.02746884,0.07592689,0.00080521,0.06286191,-0
 .17840564,0.00677024,0.03343243,0.69278517,-0.00097824,0.00171647,0.00
 333509,-0.00175559,0.00265018,-0.06402017,0.00136533,-0.00053769,0.008
 36166,-0.00090169,0.00110317,-0.00203753,-0.00000780,-0.00003069,-0.00
 033889,-0.00227461,-0.00107083,0.00333763,-0.01214721,0.00749284,-0.06
 078945,0.02535369,-0.00793742,0.13647758,-0.00058882,0.00107929,-0.000
 12283,-0.00419178,-0.00055673,-0.00096312,0.00044256,-0.00045090,0.000
 12766,-0.00312455,0.00050982,-0.00034857,-0.00049812,-0.00098470,-0.00
 011329,0.00458505,-0.01954778,0.00086118,-0.08996745,0.03290918,-0.000
 94021,0.00197700,0.02829991,-0.00064918,0.47106708,-0.00050005,0.00036
 190,0.00008709,0.00058946,0.00300390,0.00003766,-0.00060697,-0.0005793
 4,-0.00021901,-0.00267116,-0.00027654,-0.00020702,0.00023201,-0.000169
 09,0.00003490,-0.01273252,-0.03625128,0.00253316,0.02130834,-0.2081590
 7,0.00837058,0.00467026,-0.00817476,0.00020422,0.08252444,0.54759843,0
 .00012493,-0.00017774,0.00037494,0.00066744,0.00068728,0.00608235,-0.0
 0100192,0.00062226,-0.00086545,-0.00036467,-0.00125578,0.00396434,-0.0
 0014575,-0.00021662,-0.00026064,-0.00116993,0.00178302,0.01004137,-0.0
 0364510,0.00995204,-0.06957870,-0.00021691,-0.00004307,0.00141592,0.01
 370389,0.01581498,0.59135748,-0.00026858,0.00008660,0.00006543,-0.0014
 0413,-0.00140286,0.00014076,0.00250651,0.00032115,-0.00027468,-0.00672
 285,0.00422679,0.00023291,-0.00024092,-0.00050379,0.00010904,0.0120430
 5,0.02278050,0.00577039,-0.02579151,0.02268595,-0.00146883,-0.00074872
 ,0.00121573,-0.00041570,-0.17964381,0.00578499,0.02286416,0.51198167,-
 0.00092140,0.00008169,-0.00000184,0.00110365,0.00120069,0.00057288,-0.
 00016947,-0.00146294,-0.00013068,-0.00163263,0.00401010,-0.00003748,-0
 .00000541,-0.00060273,0.00006526,0.03345665,-0.06630203,-0.00096672,0.
 02047948,-0.00113817,-0.00626121,-0.00060182,-0.00872157,-0.00033791,-
 0.00560737,-0.07332590,0.00059001,-0.11147298,0.50965352,-0.00020481,0
 .00013913,-0.00016787,0.00039937,0.00059602,0.00012526,-0.00079478,0.0
 0061999,0.00121035,-0.00130057,-0.00044950,0.00242362,0.00008270,-0.00
 002564,-0.00024515,0.00013392,0.00251904,-0.00145723,-0.00542152,0.001
 41773,0.00041184,0.00011701,0.00010473,0.00102375,0.01909689,0.0007413
 4,-0.09141247,0.01800640,-0.02864078,0.62198219,-0.00229354,0.00119649
 ,-0.00017124,0.00173335,0.00702512,0.00010098,-0.00509592,-0.00490309,
 0.00002542,0.00275055,0.00840987,-0.00009047,0.00275785,-0.00059146,0.
 00021734,-0.27541432,0.08007001,-0.01500160,-0.07650528,0.01916127,-0.
 00674698,0.00421287,-0.01195248,0.00006411,-0.01987898,-0.02635147,-0.
 00873919,-0.10012501,-0.01539029,-0.00482229,0.45792064,0.00247750,-0.
 00104512,0.00017863,0.00291390,0.00292271,-0.00020538,-0.00812228,-0.0
 0255927,-0.00019495,0.04587313,-0.03327164,0.00185570,0.00121572,0.000
 02702,-0.00006400,0.12025364,-0.15882784,0.00151966,0.00774127,0.00000
 613,0.00154037,-0.00097322,-0.00353881,0.00022481,-0.01987231,-0.02100
 591,-0.00546056,-0.04460759,-0.17782132,-0.03024291,-0.08212142,0.4555
 0757,-0.00024923,0.00014262,-0.00010916,-0.00046277,0.00032478,-0.0009
 3861,-0.00002552,-0.00113977,0.00458719,0.00058971,0.00193379,0.004471
 83,0.00016226,-0.00013994,-0.00192514,-0.00953844,-0.00244336,-0.04717
 524,-0.00368957,0.00014423,0.01423902,0.00046322,0.00016437,0.00534366
 ,-0.00180032,0.00229228,0.00137508,-0.01141784,-0.02448859,-0.07369780
 ,0.02876237,0.04415072,0.08104357,0.00015136,-0.00078643,0.00014002,0.
 00421352,-0.02534288,0.00029038,-0.05386084,0.01346815,-0.00091609,0.0
 0130859,0.02630069,-0.00048550,-0.00002023,0.00097132,0.00006586,-0.00
 433564,0.00136177,-0.00041502,-0.00121672,0.00012100,-0.00003451,-0.00
 422687,-0.00221295,-0.00042092,0.00008372,-0.00002440,0.00001453,-0.00
 029860,-0.00004755,-0.00012553,0.00026065,0.00152226,0.00012451,0.0575
 8705,0.00055771,0.00073149,-0.00001331,0.00463923,-0.01037999,0.000415
 85,0.01302934,-0.35175751,0.00427647,-0.00278843,-0.00766479,0.0000346
 5,-0.00054186,0.00059485,-0.00005348,0.00211209,0.00066123,0.00011516,
 -0.00016300,0.00088295,0.00003960,-0.00263725,0.00019958,-0.00007725,0
 .00007021,0.00000944,-0.00005014,0.00015218,0.00011624,0.00005874,-0.0
 0017783,-0.00045791,-0.00003233,-0.01426640,0.36753698,0.00010417,-0.0
 0005721,-0.00256106,-0.00008716,-0.00115836,0.00360841,-0.00097995,0.0
 0436734,-0.03722718,0.00013827,0.00116437,0.00220807,0.00010257,0.0000
 2584,-0.00192306,-0.00041073,0.00024631,0.00616210,-0.00004531,-0.0001
 0408,-0.00104059,-0.00051731,0.00005884,0.00544999,0.00004487,0.000132
 34,0.00003836,-0.00007355,-0.00000016,-0.00020001,0.00004581,0.0001074
 7,0.00028417,0.00169737,-0.00471074,0.02508797,0.00083015,0.00067494,0
 .00011005,0.00345934,0.00439044,-0.00007146,0.00128097,0.00082879,-0.0
 0015037,0.00004039,0.00093015,0.00002426,-0.00001271,-0.00003720,0.000
 01462,-0.00177454,0.00302586,-0.00047093,-0.01552084,-0.01622559,-0.00
 075294,-0.26847453,-0.13280721,-0.00705696,0.00142093,-0.00069152,0.00
 028906,-0.00010474,-0.00068711,-0.00008270,-0.00142391,0.00004770,0.00
 007396,0.00030003,0.00008907,0.00001042,0.28024383,-0.00045253,0.00046
 412,-0.00005028,-0.02612332,-0.00942620,-0.00089187,0.00151563,-0.0052
 3966,0.00025973,0.00103260,-0.00051964,0.00003233,-0.00003984,0.000043
 93,-0.00000753,0.00263293,-0.00104957,0.00031692,0.01292333,0.01202202
 ,0.00026917,-0.12998574,-0.13810103,-0.00373203,-0.00058300,0.00069659
 ,0.00008221,0.00004391,0.00035419,-0.00000341,0.00101306,0.00019393,-0
 .00001606,-0.00127577,-0.00044779,-0.00008614,0.13952772,0.14105217,0.
 00018231,-0.00000906,-0.00226250,0.00025526,-0.00000530,0.00277511,0.0
 0001303,0.00022953,0.00555025,-0.00007563,0.00015905,-0.00100244,0.000
 02030,0.00000146,-0.00044300,-0.00058209,-0.00001821,0.00820949,-0.000
 42993,-0.00085784,0.00452085,-0.00767891,-0.00343093,-0.03838284,0.000
 55829,-0.00005494,-0.00391922,-0.00018564,-0.00026362,-0.00009766,0.00
 002017,0.00017275,-0.00043313,0.00002601,0.00000649,0.00017687,0.00806
 046,0.00391923,0.02554529,0.00006210,-0.00006234,-0.00003686,0.0003607
 8,-0.00000892,-0.00015534,-0.00037498,0.00042374,0.00010278,0.00041629
 ,-0.00082138,-0.00041955,0.00008531,0.00009250,0.00001782,-0.00349330,
 0.00370324,-0.00008644,0.00640834,0.00587396,0.00989044,0.00035150,-0.
 00013589,-0.00022645,-0.10202605,-0.06896067,-0.08529135,-0.00819971,-
 0.01627965,-0.02026326,-0.00402039,-0.00406395,0.00008915,-0.00000158,
 -0.00003247,-0.00008170,-0.00021408,-0.00015377,0.00007606,0.10797974,
 0.00008142,0.00000835,0.00005406,-0.00061860,-0.00077905,0.00083362,0.
 00061180,-0.00008572,-0.00011511,-0.00079206,0.00037354,0.00085168,-0.
 00013431,-0.00031029,-0.00005973,0.00146895,-0.00445808,-0.00002126,-0
 .01391496,-0.01636611,-0.01898729,-0.00118378,0.00210949,0.00053596,-0
 .07067710,-0.13276623,-0.10959901,0.00221026,0.00069271,0.00188751,0.0
 0019471,-0.00008644,-0.00045081,0.00003549,0.00001824,-0.00001105,0.00
 055384,-0.00004400,-0.00071522,0.07646127,0.14384541,0.00001938,0.0000
 0247,-0.00001378,-0.00016351,-0.00036403,-0.00003046,0.00037034,-0.000
 04278,-0.00000383,-0.00000289,0.00041444,0.00000334,0.00004568,0.00006
 815,0.00001430,0.00078457,0.00003511,-0.00032622,0.00327979,0.00378171
 ,0.00422012,-0.00025424,-0.00005734,0.00046980,-0.08836341,-0.11174529
 ,-0.18241846,0.00341145,0.00455302,0.00408650,0.00241642,0.00276112,0.
 00027225,0.00000793,0.00001164,-0.00002471,0.00005890,-0.00023025,-0.0
 0005012,0.09062430,0.11708783,0.18992045,0.00002133,0.00000013,0.00003
 662,-0.00002130,-0.00082651,0.00055424,0.00053184,0.00048938,-0.000128
 81,-0.00033950,0.00016083,0.00033908,0.00002282,0.00003227,0.00000912,
 -0.00215815,0.00059643,-0.00044378,0.00388357,0.00318613,-0.01029756,-
 0.00029580,0.00112065,0.00012831,-0.06030458,-0.02122214,0.05051515,-0
 .00526042,-0.00709331,0.03035476,-0.00007813,-0.00309110,-0.00081621,0
 .00000489,-0.00002622,0.00004820,-0.00017056,0.00001486,-0.00032224,0.
 00342454,0.00562211,-0.01275248,0.06452142,0.00007574,0.00000434,-0.00
 006589,-0.00092865,-0.00128676,-0.00120093,0.00104510,-0.00043449,0.00
 018886,-0.00024629,0.00093335,-0.00098639,-0.00010055,-0.00016773,0.00
 008540,0.00242529,-0.00382484,0.00016312,-0.00550295,-0.01463217,0.026
 90605,-0.00150499,0.00158336,-0.00032165,-0.02350896,-0.07871794,0.088
 19513,0.00181941,-0.00028738,-0.00170642,-0.00113640,0.00126110,-0.000
 42743,0.00002171,0.00002887,0.00000813,0.00025844,0.00005021,0.0008514
 7,0.00433201,0.00741864,-0.01650102,0.02175971,0.08669073,-0.00006721,
 0.00001880,0.00000533,0.00019239,0.00075164,0.00008302,-0.00041383,-0.
 00016062,-0.00005308,0.00001766,-0.00008217,0.00003525,-0.00000952,-0.
 00000669,0.00000914,-0.00046619,-0.00004212,-0.00021736,-0.00166270,0.
 00158512,0.00311481,0.00093564,-0.00047178,0.00046826,0.05351638,0.085
 06485,-0.27080889,-0.00008136,-0.00100653,-0.00136835,0.00009892,0.000
 38289,-0.00064335,-0.00000977,0.,-0.00004708,-0.00006929,0.00012217,-0
 .00018283,0.00510592,0.00847156,-0.01781689,-0.05789303,-0.09464565,0.
 28485792,-0.00008001,0.00011793,0.00003908,-0.00003289,0.00007242,-0.0
 0002884,-0.00025254,0.00003800,-0.00009857,0.00053516,-0.00040541,-0.0
 0007623,0.00006639,0.00007512,0.00003032,-0.00238298,-0.00023786,0.000
 61700,-0.00454498,-0.00068589,0.00016910,0.00027738,0.00118041,-0.0003
 0799,-0.01155104,0.01565541,-0.01641705,-0.12999329,0.08672884,-0.0959
 1004,0.00838331,-0.01058558,0.00625508,0.00003593,-0.00001058,0.000011
 73,0.00006324,-0.00005110,0.00001098,-0.00220579,0.00034942,0.00012204
 ,0.00164734,0.00000198,-0.00013651,0.13442449,0.00011367,-0.00002416,0
 .00001374,0.00001559,0.00010405,-0.00000732,-0.00041151,-0.00029524,-0
 .00023167,0.00180515,-0.00099673,-0.00029145,0.00002922,0.00012433,0.0
 0003303,-0.00575458,-0.00275619,0.00246418,-0.00117725,-0.00086051,-0.
 00009538,0.00016367,0.00044473,0.00004558,-0.00210701,0.00583492,-0.00
 199333,0.07973060,-0.13008850,0.09476341,0.01810576,-0.03237856,0.0149
 4080,0.00010729,-0.00004092,0.00002767,0.00006131,-0.00002675,0.000008
 58,0.00020170,-0.00028514,-0.00028483,0.00001097,0.00050733,-0.0002284
 4,-0.08778484,0.15430657,0.00000924,-0.00001412,-0.00000950,0.00006892
 ,-0.00008418,0.00000276,0.00005210,-0.00009903,-0.00003078,0.00028592,
 -0.00003894,-0.00007141,0.00000630,0.00001595,0.00000538,0.00117840,-0
 .00266162,0.00015379,0.00150226,-0.00095280,-0.00021008,-0.00001671,-0
 .00030382,0.00010381,0.00568052,-0.00451246,0.00526110,-0.09751908,0.1
 0394729,-0.17006085,0.00506809,-0.00623696,0.00951528,0.00002240,-0.00
 001078,-0.00000417,-0.00000394,0.00000414,0.00000273,0.00044780,0.0001
 1216,0.00033505,-0.00007472,-0.00034839,0.00137823,0.09952415,-0.10521
 434,0.16995438,0.00005329,0.00000875,-0.00005580,0.00007958,0.00000397
 ,-0.00002294,-0.00024550,0.00015642,0.00010372,0.00044588,-0.00055515,
 0.00000492,0.00002821,0.00007081,-0.00002596,-0.00286424,0.00151562,-0
 .00148389,-0.00013469,-0.00076047,0.00012191,-0.00010026,0.00049831,0.
 00023090,-0.00780118,0.00299598,0.02881269,-0.06772894,0.01814036,0.06
 073445,0.00681625,-0.00860768,-0.00852038,0.00001474,-0.00000579,-0.00
 000771,0.00005703,-0.00003899,0.00005156,0.00144729,-0.00026847,0.0003
 9571,-0.00542933,0.00118939,0.00094251,0.00561026,-0.00310973,-0.01623
 164,0.06975161,0.00015457,-0.00007620,-0.00001298,0.00035338,0.0003514
 2,-0.00004258,-0.00080342,0.00006568,0.00023731,0.00130253,-0.00166760
 ,0.00053324,0.00003575,0.00015513,-0.00004805,-0.00717340,0.00299083,-
 0.00360823,-0.00004282,-0.00000352,0.00136293,0.00018129,-0.00008724,0
 .00007222,-0.00149700,0.00192086,0.00106932,0.01692914,-0.05635859,-0.
 04177896,0.00744816,-0.02892566,-0.03495531,0.00004670,-0.00003098,-0.
 00001057,0.00006036,-0.00002252,0.00000655,-0.00056939,0.00071467,0.00
 051004,-0.00073422,0.00087337,0.00024697,-0.00445831,0.00643078,0.0163
 9790,-0.01123331,0.07366956,0.00013775,-0.00006920,0.00002383,-0.00014
 304,-0.00036664,0.00001855,0.00028610,0.00002053,0.00000935,0.00026356
 ,-0.00007435,-0.00019887,-0.00002341,0.00005722,0.00003175,-0.00238660
 ,0.00117633,-0.00068570,0.00075039,-0.00040586,-0.00039928,-0.00031514
 ,0.00031719,-0.00021827,-0.00028876,0.00142532,-0.00064711,0.06083613,
 -0.04759293,-0.29255611,-0.00124788,-0.01048937,0.00379039,0.00001833,
 -0.00001058,0.00001192,0.00001684,0.00001166,-0.00000685,0.00020668,0.
 00012509,0.00136266,0.00074333,-0.00019438,0.00118586,0.00619574,-0.00
 395023,-0.01632573,-0.06505003,0.06002021,0.30460361\\0.00000627,0.000
 00791,0.00000065,-0.00003468,-0.00003309,-0.00000155,0.00005972,-0.000
 00517,0.00000575,-0.00003528,0.00005295,-0.00000257,0.00000824,-0.0000
 0375,0.00000125,0.00003109,-0.00008209,0.00000063,0.00002838,0.0000194
 4,-0.00000168,-0.00001731,0.00003588,0.00000336,-0.00000227,-0.0000001
 0,-0.00000847,-0.00001127,-0.00004033,0.00001394,-0.00002372,0.0000423
 4,-0.00000123,-0.00000140,0.00000418,-0.00000041,0.00000045,-0.0000028
 4,-0.00000121,0.00000014,-0.00000214,-0.00000346,-0.00000531,0.0000002
 0,0.00000279,0.00000274,0.00000284,-0.00000171,-0.00000580,0.00000376,
 -0.00000607\\\@
 The archive entry for this job was punched.


 IBM COMPATIBILITY IS LIKE PREGNANCY. YOU ARE OR
 OR YOU ARE NOT. -- ADAM OSBORNE
 Job cpu time:       0 days  0 hours 35 minutes 52.9 seconds.
 Elapsed time:       0 days  0 hours  1 minutes 30.8 seconds.
 File lengths (MBytes):  RWF=    116 Int=      0 D2E=      0 Chk=      5 Scr=      1
 Normal termination of Gaussian 16 at Mon Sep 23 09:48:07 2024.
