Job Start Time: Mon Jan 29 12:53:41 MST 2024
SLURM Job ID: 229708
SLURM Job Name: Ac7_rdkit_conf_1_AD_EA
 Entering Gaussian System, Link 0=/opt/apps/Gaussian/G16C/g16/g16
 Initial command:
 /opt/apps/Gaussian/G16C/g16/l1.exe "/tmp/Gau-1822598.inp" -scrdir="/tmp/"
 Entering Link 1 = /opt/apps/Gaussian/G16C/g16/l1.exe PID=   1822599.
  
 Copyright (c) 1988-2019, Gaussian, Inc.  All Rights Reserved.
  
 This is part of the Gaussian(R) 16 program.  It is based on
 the Gaussian(R) 09 system (copyright 2009, Gaussian, Inc.),
 the Gaussian(R) 03 system (copyright 2003, Gaussian, Inc.),
 the Gaussian(R) 98 system (copyright 1998, Gaussian, Inc.),
 the Gaussian(R) 94 system (copyright 1995, Gaussian, Inc.),
 the Gaussian 92(TM) system (copyright 1992, Gaussian, Inc.),
 the Gaussian 90(TM) system (copyright 1990, Gaussian, Inc.),
 the Gaussian 88(TM) system (copyright 1988, Gaussian, Inc.),
 the Gaussian 86(TM) system (copyright 1986, Carnegie Mellon
 University), and the Gaussian 82(TM) system (copyright 1983,
 Carnegie Mellon University). Gaussian is a federally registered
 trademark of Gaussian, Inc.
  
 This software contains proprietary and confidential information,
 including trade secrets, belonging to Gaussian, Inc.
  
 This software is provided under written license and may be
 used, copied, transmitted, or stored only in accord with that
 written license.
  
 The following legend is applicable only to US Government
 contracts under FAR:
  
                    RESTRICTED RIGHTS LEGEND
  
 Use, reproduction and disclosure by the US Government is
 subject to restrictions as set forth in subparagraphs (a)
 and (c) of the Commercial Computer Software - Restricted
 Rights clause in FAR 52.227-19.
  
 Gaussian, Inc.
 340 Quinnipiac St., Bldg. 40, Wallingford CT 06492
  
  
 ---------------------------------------------------------------
 Warning -- This program may not be used in any manner that
 competes with the business of Gaussian, Inc. or will provide
 assistance to any competitor of Gaussian, Inc.  The licensee
 of this program is prohibited from giving any competitor of
 Gaussian, Inc. access to this program.  By using this program,
 the user acknowledges that Gaussian, Inc. is engaged in the
 business of creating and licensing software in the field of
 computational chemistry and represents and warrants to the
 licensee that it is not a competitor of Gaussian, Inc. and that
 it will not use this program in any manner prohibited above.
 ---------------------------------------------------------------
  

 Cite this work as:
 Gaussian 16, Revision C.01,
 M. J. Frisch, G. W. Trucks, H. B. Schlegel, G. E. Scuseria, 
 M. A. Robb, J. R. Cheeseman, G. Scalmani, V. Barone, 
 G. A. Petersson, H. Nakatsuji, X. Li, M. Caricato, A. V. Marenich, 
 J. Bloino, B. G. Janesko, R. Gomperts, B. Mennucci, H. P. Hratchian, 
 J. V. Ortiz, A. F. Izmaylov, J. L. Sonnenberg, D. Williams-Young, 
 F. Ding, F. Lipparini, F. Egidi, J. Goings, B. Peng, A. Petrone, 
 T. Henderson, D. Ranasinghe, V. G. Zakrzewski, J. Gao, N. Rega, 
 G. Zheng, W. Liang, M. Hada, M. Ehara, K. Toyota, R. Fukuda, 
 J. Hasegawa, M. Ishida, T. Nakajima, Y. Honda, O. Kitao, H. Nakai, 
 T. Vreven, K. Throssell, J. A. Montgomery, Jr., J. E. Peralta, 
 F. Ogliaro, M. J. Bearpark, J. J. Heyd, E. N. Brothers, K. N. Kudin, 
 V. N. Staroverov, T. A. Keith, R. Kobayashi, J. Normand, 
 K. Raghavachari, A. P. Rendell, J. C. Burant, S. S. Iyengar, 
 J. Tomasi, M. Cossi, J. M. Millam, M. Klene, C. Adamo, R. Cammi, 
 J. W. Ochterski, R. L. Martin, K. Morokuma, O. Farkas, 
 J. B. Foresman, and D. J. Fox, Gaussian, Inc., Wallingford CT, 2019.
 
 ******************************************
 Gaussian 16:  AS64L-G16RevC.01  3-Jul-2019
                29-Jan-2024 
 ******************************************
 %nprocshared=8
 Will use up to    8 processors via shared memory.
 %mem=16GB
 ---------------------------------
 # m062x/def2tzvp opt freq=noraman
 ---------------------------------
 1/18=20,19=15,26=3,38=1/1,3;
 2/9=110,12=2,17=6,18=5,40=1/2;
 3/5=44,7=101,11=2,25=1,30=1,71=1,74=-55/1,2,3;
 4//1;
 5/5=2,38=5/2;
 6/7=2,8=2,9=2,10=2,28=1/1;
 7//1,2,3,16;
 1/18=20,19=15,26=3/3(2);
 2/9=110/2;
 99//99;
 2/9=110/2;
 3/5=44,7=101,11=2,25=1,30=1,71=1,74=-55/1,2,3;
 4/5=5,16=3,69=1/1;
 5/5=2,38=5/2;
 7//1,2,3,16;
 1/18=20,19=15,26=3/3(-5);
 2/9=110/2;
 6/7=2,8=2,9=2,10=2,19=2,28=1/1;
 99/9=1/99;
 ----------------------
 Ac7_rdkit_conf_1_AD_EA
 ----------------------
 Symbolic Z-matrix:
 Charge = -1 Multiplicity = 2
 O                    -1.7018   -1.2396   -0.6893 
 C                    -1.49361  -0.22711  -0.08027 
 O                    -2.2872    0.85536  -0.21497 
 C                    -0.38623  -0.00364   0.92826 
 C                     0.60446  -1.16822   0.92127 
 C                     1.46721  -1.17789  -0.34063 
 C                     2.16652   0.16312  -0.55299 
 C                     1.15698   1.30885  -0.58058 
 C                     0.32901   1.33589   0.70166 
 H                    -2.98012   0.61761  -0.84759 
 H                    -0.89971   0.03817   1.89496 
 H                     1.24824  -1.06397   1.79968 
 H                     0.0669   -2.11156   1.01784 
 H                     2.20198  -1.98237  -0.27469 
 H                     0.83213  -1.39827  -1.20235 
 H                     2.74496   0.14433  -1.4785 
 H                     2.87763   0.33636   0.26244 
 H                     1.66538   2.26543  -0.71398 
 H                     0.48995   1.18468  -1.44156 
 H                    -0.39456   2.14994   0.68387 
 H                     0.99321   1.50763   1.55369 
 

 GradGradGradGradGradGradGradGradGradGradGradGradGradGradGradGradGradGrad
 Berny optimization.
 Initialization pass.
                           ----------------------------
                           !    Initial Parameters    !
                           ! (Angstroms and Degrees)  !
 --------------------------                            --------------------------
 ! Name  Definition              Value          Derivative Info.                !
 --------------------------------------------------------------------------------
 ! R1    R(1,2)                  1.1998         estimate D2E/DX2                !
 ! R2    R(2,3)                  1.349          estimate D2E/DX2                !
 ! R3    R(2,4)                  1.5144         estimate D2E/DX2                !
 ! R4    R(3,10)                 0.9679         estimate D2E/DX2                !
 ! R5    R(4,5)                  1.529          estimate D2E/DX2                !
 ! R6    R(4,9)                  1.5353         estimate D2E/DX2                !
 ! R7    R(4,11)                 1.0954         estimate D2E/DX2                !
 ! R8    R(5,6)                  1.5287         estimate D2E/DX2                !
 ! R9    R(5,12)                 1.094          estimate D2E/DX2                !
 ! R10   R(5,13)                 1.09           estimate D2E/DX2                !
 ! R11   R(6,7)                  1.5272         estimate D2E/DX2                !
 ! R12   R(6,14)                 1.0915         estimate D2E/DX2                !
 ! R13   R(6,15)                 1.0929         estimate D2E/DX2                !
 ! R14   R(7,8)                  1.5273         estimate D2E/DX2                !
 ! R15   R(7,16)                 1.0916         estimate D2E/DX2                !
 ! R16   R(7,17)                 1.0957         estimate D2E/DX2                !
 ! R17   R(8,9)                  1.5266         estimate D2E/DX2                !
 ! R18   R(8,18)                 1.0915         estimate D2E/DX2                !
 ! R19   R(8,19)                 1.0962         estimate D2E/DX2                !
 ! R20   R(9,20)                 1.0893         estimate D2E/DX2                !
 ! R21   R(9,21)                 1.0939         estimate D2E/DX2                !
 ! A1    A(1,2,3)              121.6295         estimate D2E/DX2                !
 ! A2    A(1,2,4)              126.1207         estimate D2E/DX2                !
 ! A3    A(3,2,4)              112.2273         estimate D2E/DX2                !
 ! A4    A(2,3,10)             106.8174         estimate D2E/DX2                !
 ! A5    A(2,4,5)              110.9998         estimate D2E/DX2                !
 ! A6    A(2,4,9)              111.7838         estimate D2E/DX2                !
 ! A7    A(2,4,11)             104.5119         estimate D2E/DX2                !
 ! A8    A(5,4,9)              111.2236         estimate D2E/DX2                !
 ! A9    A(5,4,11)             109.6842         estimate D2E/DX2                !
 ! A10   A(9,4,11)             108.3801         estimate D2E/DX2                !
 ! A11   A(4,5,6)              111.9801         estimate D2E/DX2                !
 ! A12   A(4,5,12)             107.7597         estimate D2E/DX2                !
 ! A13   A(4,5,13)             109.8294         estimate D2E/DX2                !
 ! A14   A(6,5,12)             109.3471         estimate D2E/DX2                !
 ! A15   A(6,5,13)             110.2419         estimate D2E/DX2                !
 ! A16   A(12,5,13)            107.5492         estimate D2E/DX2                !
 ! A17   A(5,6,7)              111.571          estimate D2E/DX2                !
 ! A18   A(5,6,14)             109.5552         estimate D2E/DX2                !
 ! A19   A(5,6,15)             108.9168         estimate D2E/DX2                !
 ! A20   A(7,6,14)             110.3229         estimate D2E/DX2                !
 ! A21   A(7,6,15)             109.4814         estimate D2E/DX2                !
 ! A22   A(14,6,15)            106.8688         estimate D2E/DX2                !
 ! A23   A(6,7,8)              111.0108         estimate D2E/DX2                !
 ! A24   A(6,7,16)             110.2078         estimate D2E/DX2                !
 ! A25   A(6,7,17)             109.4219         estimate D2E/DX2                !
 ! A26   A(8,7,16)             110.3569         estimate D2E/DX2                !
 ! A27   A(8,7,17)             108.8934         estimate D2E/DX2                !
 ! A28   A(16,7,17)            106.8458         estimate D2E/DX2                !
 ! A29   A(7,8,9)              110.8927         estimate D2E/DX2                !
 ! A30   A(7,8,18)             110.5963         estimate D2E/DX2                !
 ! A31   A(7,8,19)             109.3553         estimate D2E/DX2                !
 ! A32   A(9,8,18)             109.8631         estimate D2E/DX2                !
 ! A33   A(9,8,19)             109.3716         estimate D2E/DX2                !
 ! A34   A(18,8,19)            106.6614         estimate D2E/DX2                !
 ! A35   A(4,9,8)              111.173          estimate D2E/DX2                !
 ! A36   A(4,9,20)             110.1804         estimate D2E/DX2                !
 ! A37   A(4,9,21)             107.7508         estimate D2E/DX2                !
 ! A38   A(8,9,20)             111.0873         estimate D2E/DX2                !
 ! A39   A(8,9,21)             109.129          estimate D2E/DX2                !
 ! A40   A(20,9,21)            107.3809         estimate D2E/DX2                !
 ! D1    D(1,2,3,10)             0.3901         estimate D2E/DX2                !
 ! D2    D(4,2,3,10)          -177.984          estimate D2E/DX2                !
 ! D3    D(1,2,4,5)              9.4344         estimate D2E/DX2                !
 ! D4    D(1,2,4,9)            134.2536         estimate D2E/DX2                !
 ! D5    D(1,2,4,11)          -108.7328         estimate D2E/DX2                !
 ! D6    D(3,2,4,5)           -172.2794         estimate D2E/DX2                !
 ! D7    D(3,2,4,9)            -47.4602         estimate D2E/DX2                !
 ! D8    D(3,2,4,11)            69.5533         estimate D2E/DX2                !
 ! D9    D(2,4,5,6)             71.68           estimate D2E/DX2                !
 ! D10   D(2,4,5,12)          -168.0277         estimate D2E/DX2                !
 ! D11   D(2,4,5,13)           -51.1514         estimate D2E/DX2                !
 ! D12   D(9,4,5,6)            -53.4547         estimate D2E/DX2                !
 ! D13   D(9,4,5,12)            66.8376         estimate D2E/DX2                !
 ! D14   D(9,4,5,13)          -176.2861         estimate D2E/DX2                !
 ! D15   D(11,4,5,6)          -173.3345         estimate D2E/DX2                !
 ! D16   D(11,4,5,12)          -53.0423         estimate D2E/DX2                !
 ! D17   D(11,4,5,13)           63.8341         estimate D2E/DX2                !
 ! D18   D(2,4,9,8)            -69.7698         estimate D2E/DX2                !
 ! D19   D(2,4,9,20)            53.833          estimate D2E/DX2                !
 ! D20   D(2,4,9,21)           170.6938         estimate D2E/DX2                !
 ! D21   D(5,4,9,8)             54.9249         estimate D2E/DX2                !
 ! D22   D(5,4,9,20)           178.5277         estimate D2E/DX2                !
 ! D23   D(5,4,9,21)           -64.6115         estimate D2E/DX2                !
 ! D24   D(11,4,9,8)           175.5757         estimate D2E/DX2                !
 ! D25   D(11,4,9,20)          -60.8216         estimate D2E/DX2                !
 ! D26   D(11,4,9,21)           56.0393         estimate D2E/DX2                !
 ! D27   D(4,5,6,7)             53.8202         estimate D2E/DX2                !
 ! D28   D(4,5,6,14)           176.2832         estimate D2E/DX2                !
 ! D29   D(4,5,6,15)           -67.1491         estimate D2E/DX2                !
 ! D30   D(12,5,6,7)           -65.5428         estimate D2E/DX2                !
 ! D31   D(12,5,6,14)           56.9203         estimate D2E/DX2                !
 ! D32   D(12,5,6,15)          173.4879         estimate D2E/DX2                !
 ! D33   D(13,5,6,7)           176.4174         estimate D2E/DX2                !
 ! D34   D(13,5,6,14)          -61.1196         estimate D2E/DX2                !
 ! D35   D(13,5,6,15)           55.4481         estimate D2E/DX2                !
 ! D36   D(5,6,7,8)            -55.26           estimate D2E/DX2                !
 ! D37   D(5,6,7,16)          -177.8388         estimate D2E/DX2                !
 ! D38   D(5,6,7,17)            64.9533         estimate D2E/DX2                !
 ! D39   D(14,6,7,8)          -177.2816         estimate D2E/DX2                !
 ! D40   D(14,6,7,16)           60.1396         estimate D2E/DX2                !
 ! D41   D(14,6,7,17)          -57.0682         estimate D2E/DX2                !
 ! D42   D(15,6,7,8)            65.3795         estimate D2E/DX2                !
 ! D43   D(15,6,7,16)          -57.1993         estimate D2E/DX2                !
 ! D44   D(15,6,7,17)         -174.4071         estimate D2E/DX2                !
 ! D45   D(6,7,8,9)             56.807          estimate D2E/DX2                !
 ! D46   D(6,7,8,18)           178.9457         estimate D2E/DX2                !
 ! D47   D(6,7,8,19)           -63.8831         estimate D2E/DX2                !
 ! D48   D(16,7,8,9)           179.2995         estimate D2E/DX2                !
 ! D49   D(16,7,8,18)          -58.5619         estimate D2E/DX2                !
 ! D50   D(16,7,8,19)           58.6093         estimate D2E/DX2                !
 ! D51   D(17,7,8,9)           -63.7197         estimate D2E/DX2                !
 ! D52   D(17,7,8,18)           58.419          estimate D2E/DX2                !
 ! D53   D(17,7,8,19)          175.5902         estimate D2E/DX2                !
 ! D54   D(7,8,9,4)            -56.7201         estimate D2E/DX2                !
 ! D55   D(7,8,9,20)          -179.8038         estimate D2E/DX2                !
 ! D56   D(7,8,9,21)            61.9915         estimate D2E/DX2                !
 ! D57   D(18,8,9,4)          -179.2852         estimate D2E/DX2                !
 ! D58   D(18,8,9,20)           57.6311         estimate D2E/DX2                !
 ! D59   D(18,8,9,21)          -60.5736         estimate D2E/DX2                !
 ! D60   D(19,8,9,4)            63.9604         estimate D2E/DX2                !
 ! D61   D(19,8,9,20)          -59.1233         estimate D2E/DX2                !
 ! D62   D(19,8,9,21)         -177.328          estimate D2E/DX2                !
 --------------------------------------------------------------------------------
 Trust Radius=3.00D-01 FncErr=1.00D-07 GrdErr=1.00D-06 EigMax=2.50D+02 EigMin=1.00D-04
 Number of steps in this run=    126 maximum allowed number of steps=    126.
 GradGradGradGradGradGradGradGradGradGradGradGradGradGradGradGradGradGrad

                          Input orientation:                          
 ---------------------------------------------------------------------
 Center     Atomic      Atomic             Coordinates (Angstroms)
 Number     Number       Type             X           Y           Z
 ---------------------------------------------------------------------
      1          8           0       -1.701797   -1.239603   -0.689302
      2          6           0       -1.493609   -0.227111   -0.080266
      3          8           0       -2.287202    0.855359   -0.214972
      4          6           0       -0.386233   -0.003644    0.928262
      5          6           0        0.604460   -1.168217    0.921268
      6          6           0        1.467205   -1.177890   -0.340629
      7          6           0        2.166519    0.163116   -0.552988
      8          6           0        1.156982    1.308854   -0.580577
      9          6           0        0.329012    1.335888    0.701662
     10          1           0       -2.980124    0.617613   -0.847587
     11          1           0       -0.899706    0.038165    1.894960
     12          1           0        1.248236   -1.063965    1.799676
     13          1           0        0.066899   -2.111564    1.017842
     14          1           0        2.201981   -1.982366   -0.274689
     15          1           0        0.832128   -1.398273   -1.202354
     16          1           0        2.744955    0.144326   -1.478504
     17          1           0        2.877627    0.336362    0.262437
     18          1           0        1.665382    2.265431   -0.713978
     19          1           0        0.489953    1.184681   -1.441557
     20          1           0       -0.394561    2.149941    0.683867
     21          1           0        0.993205    1.507628    1.553694
 ---------------------------------------------------------------------
                    Distance matrix (angstroms):
                    1          2          3          4          5
     1  O    0.000000
     2  C    1.199753   0.000000
     3  O    2.226332   1.348954   0.000000
     4  C    2.423802   1.514380   2.378771   0.000000
     5  C    2.813868   2.508116   3.707777   1.528971   0.000000
     6  C    3.188723   3.120607   4.271471   2.534595   1.528662
     7  C    4.117046   3.711102   4.519855   2.956087   2.527035
     8  C    3.831328   3.104051   3.493097   2.526016   2.949017
     9  C    3.562600   2.525139   2.813486   1.535340   2.528763
    10  H    2.260183   1.874051   0.967918   3.204352   4.378045
    11  H    2.992399   2.079570   2.654197   1.095403   2.160081
    12  H    3.863749   3.428151   4.499104   2.134275   1.094037
    13  H    2.608245   2.681826   3.982996   2.157934   1.090047
    14  H    3.995383   4.095864   5.311216   3.472936   2.155278
    15  H    2.590207   2.835446   3.972908   2.822927   2.148145
    16  H    4.723527   4.478667   5.236858   3.952057   3.473240
    17  H    4.935646   4.420707   5.212747   3.348389   2.804479
    18  H    4.860429   4.073522   4.226137   3.471999   3.948357
    19  H    3.353626   2.789406   3.053777   2.792107   3.336493
    20  H    3.883744   2.728036   2.462914   2.167424   3.473410
    21  H    4.454362   3.444327   3.783478   2.139616   2.776910
                    6          7          8          9         10
     6  C    0.000000
     7  C    1.527231   0.000000
     8  C    2.517481   1.527299   0.000000
     9  C    2.949735   2.515149   1.526565   0.000000
    10  H    4.822818   5.175064   4.202946   3.723771   0.000000
    11  H    3.475473   3.925532   3.460188   2.148905   3.490768
    12  H    2.154491   2.807846   3.362172   2.794620   5.264479
    13  H    2.162879   3.471323   3.929693   3.471829   4.495840
    14  H    1.091524   2.163747   3.466658   3.933457   5.826003
    15  H    1.092914   2.154115   2.796547   3.369575   4.326999
    16  H    2.162327   1.091568   2.164268   3.465505   5.779151
    17  H    2.155444   1.095722   2.148728   2.772618   5.968626
    18  H    3.469167   2.167207   1.091470   2.157307   4.930911
    19  H    2.783668   2.155000   1.096190   2.154566   3.565922
    20  H    3.948446   3.469354   2.171067   1.089292   3.373206
    21  H    3.320413   2.760885   2.149755   1.093895   4.727115
                   11         12         13         14         15
    11  H    0.000000
    12  H    2.416076   0.000000
    13  H    2.514954   1.761898   0.000000
    14  H    4.290732   2.460910   2.499181   0.000000
    15  H    3.828310   3.049113   2.454308   1.754487   0.000000
    16  H    4.967402   3.800868   4.300322   2.503360   2.472808
    17  H    4.125809   2.641767   3.803048   2.474167   3.055918
    18  H    4.283334   4.192534   4.971160   4.304032   3.788872
    19  H    3.791833   4.017088   4.134350   3.784549   2.616477
    20  H    2.486265   3.777963   4.299408   4.973612   4.201478
    21  H    2.420516   2.595889   3.774087   4.121187   4.008242
                   16         17         18         19         20
    16  H    0.000000
    17  H    1.756518   0.000000
    18  H    2.499813   2.478756   0.000000
    19  H    2.483694   3.053560   1.754715   0.000000
    20  H    4.307540   3.764822   2.492122   2.496301   0.000000
    21  H    3.757851   2.567149   2.483631   3.054355   1.759278
                   21
    21  H    0.000000
 Stoichiometry    C7H12O2(1-,2)
 Framework group  C1[X(C7H12O2)]
 Deg. of freedom    57
 Full point group                 C1      NOp   1
 Largest Abelian subgroup         C1      NOp   1
 Largest concise Abelian subgroup C1      NOp   1
                         Standard orientation:                         
 ---------------------------------------------------------------------
 Center     Atomic      Atomic             Coordinates (Angstroms)
 Number     Number       Type             X           Y           Z
 ---------------------------------------------------------------------
      1          8           0       -1.701797   -1.239603   -0.689302
      2          6           0       -1.493609   -0.227111   -0.080266
      3          8           0       -2.287202    0.855359   -0.214972
      4          6           0       -0.386233   -0.003644    0.928262
      5          6           0        0.604460   -1.168217    0.921268
      6          6           0        1.467205   -1.177890   -0.340629
      7          6           0        2.166519    0.163116   -0.552988
      8          6           0        1.156982    1.308854   -0.580577
      9          6           0        0.329012    1.335888    0.701662
     10          1           0       -2.980124    0.617613   -0.847587
     11          1           0       -0.899706    0.038165    1.894960
     12          1           0        1.248236   -1.063965    1.799676
     13          1           0        0.066899   -2.111564    1.017842
     14          1           0        2.201981   -1.982366   -0.274689
     15          1           0        0.832128   -1.398273   -1.202354
     16          1           0        2.744955    0.144326   -1.478504
     17          1           0        2.877627    0.336362    0.262437
     18          1           0        1.665382    2.265431   -0.713978
     19          1           0        0.489953    1.184681   -1.441557
     20          1           0       -0.394561    2.149941    0.683867
     21          1           0        0.993205    1.507628    1.553694
 ---------------------------------------------------------------------
 Rotational constants (GHZ):           2.5310325           1.4006431           1.1569964
 Standard basis: def2TZVP (5D, 7F)
 There are   396 symmetry adapted cartesian basis functions of A   symmetry.
 There are   351 symmetry adapted basis functions of A   symmetry.
   351 basis functions,   555 primitive gaussians,   396 cartesian basis functions
    36 alpha electrons       35 beta electrons
       nuclear repulsion energy       488.4188804523 Hartrees.
 NAtoms=   21 NActive=   21 NUniq=   21 SFac= 1.00D+00 NAtFMM=   60 NAOKFM=F Big=F
 Integral buffers will be    131072 words long.
 Raffenetti 2 integral format.
 Two-electron integral symmetry is turned on.
 One-electron integrals computed using PRISM.
   1 Symmetry operations used in ECPInt.
 ECPInt:  NShTT=   10878 NPrTT=   32112 LenC2=   10694 LenP2D=   25391.
 LDataN:  DoStor=T MaxTD1= 6 Len=  172
 NBasis=   351 RedAO= T EigKep=  7.65D-05  NBF=   351
 NBsUse=   351 1.00D-06 EigRej= -1.00D+00 NBFU=   351
 ExpMin= 9.52D-02 ExpMax= 2.70D+04 ExpMxC= 9.22D+02 IAcc=3 IRadAn=         5 AccDes= 0.00D+00
 Harris functional with IExCor= 1009 and IRadAn=       5 diagonalized for initial guess.
 HarFok:  IExCor= 1009 AccDes= 0.00D+00 IRadAn=         5 IDoV= 1 UseB2=F ITyADJ=14
 ICtDFT=  3500011 ScaDFX=  1.000000  1.000000  1.000000  1.000000
 FoFCou: FMM=F IPFlag=           0 FMFlag=      100000 FMFlg1=           0
         NFxFlg=           0 DoJE=T BraDBF=F KetDBF=T FulRan=T
         wScrn=  0.000000 ICntrl=       500 IOpCl=  0 I1Cent=   200000004 NGrid=           0
         NMat0=    1 NMatS0=      1 NMatT0=    0 NMatD0=    1 NMtDS0=    0 NMtDT0=    0
 Petite list used in FoFCou.
 Initial guess <Sx>= 0.0000 <Sy>= 0.0000 <Sz>= 0.5000 <S**2>= 0.7500 S= 0.5000
 Requested convergence on RMS density matrix=1.00D-08 within 128 cycles.
 Requested convergence on MAX density matrix=1.00D-06.
 Requested convergence on             energy=1.00D-06.
 No special actions if energy rises.
 Integral accuracy reduced to 1.0D-05 until final iterations.
 Initial convergence to 1.2D-05 achieved.  Increase integral accuracy.
 SCF Done:  E(UM062X) =  -424.357539733     A.U. after   39 cycles
            NFock= 39  Conv=0.18D-08     -V/T= 2.0038
 <Sx>= 0.0000 <Sy>= 0.0000 <Sz>= 0.5000 <S**2>= 0.7527 S= 0.5013
 <L.S>=  0.00000000000    
 Annihilation of the first spin contaminant:
 S**2 before annihilation     0.7527,   after     0.7500

 **********************************************************************

            Population analysis using the SCF Density.

 **********************************************************************

 Orbital symmetries:
 Alpha Orbitals:
       Occupied  (A) (A) (A) (A) (A) (A) (A) (A) (A) (A) (A) (A)
                 (A) (A) (A) (A) (A) (A) (A) (A) (A) (A) (A) (A)
                 (A) (A) (A) (A) (A) (A) (A) (A) (A) (A) (A) (A)
       Virtual   (A) (A) (A) (A) (A) (A) (A) (A) (A) (A) (A) (A)
                 (A) (A) (A) (A) (A) (A) (A) (A) (A) (A) (A) (A)
                 (A) (A) (A) (A) (A) (A) (A) (A) (A) (A) (A) (A)
                 (A) (A) (A) (A) (A) (A) (A) (A) (A) (A) (A) (A)
                 (A) (A) (A) (A) (A) (A) (A) (A) (A) (A) (A) (A)
                 (A) (A) (A) (A) (A) (A) (A) (A) (A) (A) (A) (A)
                 (A) (A) (A) (A) (A) (A) (A) (A) (A) (A) (A) (A)
                 (A) (A) (A) (A) (A) (A) (A) (A) (A) (A) (A) (A)
                 (A) (A) (A) (A) (A) (A) (A) (A) (A) (A) (A) (A)
                 (A) (A) (A) (A) (A) (A) (A) (A) (A) (A) (A) (A)
                 (A) (A) (A) (A) (A) (A) (A) (A) (A) (A) (A) (A)
                 (A) (A) (A) (A) (A) (A) (A) (A) (A) (A) (A) (A)
                 (A) (A) (A) (A) (A) (A) (A) (A) (A) (A) (A) (A)
                 (A) (A) (A) (A) (A) (A) (A) (A) (A) (A) (A) (A)
                 (A) (A) (A) (A) (A) (A) (A) (A) (A) (A) (A) (A)
                 (A) (A) (A) (A) (A) (A) (A) (A) (A) (A) (A) (A)
                 (A) (A) (A) (A) (A) (A) (A) (A) (A) (A) (A) (A)
                 (A) (A) (A) (A) (A) (A) (A) (A) (A) (A) (A) (A)
                 (A) (A) (A) (A) (A) (A) (A) (A) (A) (A) (A) (A)
                 (A) (A) (A) (A) (A) (A) (A) (A) (A) (A) (A) (A)
                 (A) (A) (A) (A) (A) (A) (A) (A) (A) (A) (A) (A)
                 (A) (A) (A) (A) (A) (A) (A) (A) (A) (A) (A) (A)
                 (A) (A) (A) (A) (A) (A) (A) (A) (A) (A) (A) (A)
                 (A) (A) (A) (A) (A) (A) (A) (A) (A) (A) (A) (A)
                 (A) (A) (A) (A) (A) (A) (A) (A) (A) (A) (A) (A)
                 (A) (A) (A) (A) (A) (A) (A) (A) (A) (A) (A) (A)
                 (A) (A) (A)
 Beta  Orbitals:
       Occupied  (A) (A) (A) (A) (A) (A) (A) (A) (A) (A) (A) (A)
                 (A) (A) (A) (A) (A) (A) (A) (A) (A) (A) (A) (A)
                 (A) (A) (A) (A) (A) (A) (A) (A) (A) (A) (A)
       Virtual   (A) (A) (A) (A) (A) (A) (A) (A) (A) (A) (A) (A)
                 (A) (A) (A) (A) (A) (A) (A) (A) (A) (A) (A) (A)
                 (A) (A) (A) (A) (A) (A) (A) (A) (A) (A) (A) (A)
                 (A) (A) (A) (A) (A) (A) (A) (A) (A) (A) (A) (A)
                 (A) (A) (A) (A) (A) (A) (A) (A) (A) (A) (A) (A)
                 (A) (A) (A) (A) (A) (A) (A) (A) (A) (A) (A) (A)
                 (A) (A) (A) (A) (A) (A) (A) (A) (A) (A) (A) (A)
                 (A) (A) (A) (A) (A) (A) (A) (A) (A) (A) (A) (A)
                 (A) (A) (A) (A) (A) (A) (A) (A) (A) (A) (A) (A)
                 (A) (A) (A) (A) (A) (A) (A) (A) (A) (A) (A) (A)
                 (A) (A) (A) (A) (A) (A) (A) (A) (A) (A) (A) (A)
                 (A) (A) (A) (A) (A) (A) (A) (A) (A) (A) (A) (A)
                 (A) (A) (A) (A) (A) (A) (A) (A) (A) (A) (A) (A)
                 (A) (A) (A) (A) (A) (A) (A) (A) (A) (A) (A) (A)
                 (A) (A) (A) (A) (A) (A) (A) (A) (A) (A) (A) (A)
                 (A) (A) (A) (A) (A) (A) (A) (A) (A) (A) (A) (A)
                 (A) (A) (A) (A) (A) (A) (A) (A) (A) (A) (A) (A)
                 (A) (A) (A) (A) (A) (A) (A) (A) (A) (A) (A) (A)
                 (A) (A) (A) (A) (A) (A) (A) (A) (A) (A) (A) (A)
                 (A) (A) (A) (A) (A) (A) (A) (A) (A) (A) (A) (A)
                 (A) (A) (A) (A) (A) (A) (A) (A) (A) (A) (A) (A)
                 (A) (A) (A) (A) (A) (A) (A) (A) (A) (A) (A) (A)
                 (A) (A) (A) (A) (A) (A) (A) (A) (A) (A) (A) (A)
                 (A) (A) (A) (A) (A) (A) (A) (A) (A) (A) (A) (A)
                 (A) (A) (A) (A) (A) (A) (A) (A) (A) (A) (A) (A)
                 (A) (A) (A) (A) (A) (A) (A) (A) (A) (A) (A) (A)
                 (A) (A) (A) (A)
 The electronic state is 2-A.
 Alpha  occ. eigenvalues --  -19.48582 -19.40819 -10.44434 -10.38444 -10.37903
 Alpha  occ. eigenvalues --  -10.37677 -10.36846 -10.36681 -10.36485  -1.04762
 Alpha  occ. eigenvalues --   -0.94709  -0.78191  -0.69320  -0.68357  -0.57480
 Alpha  occ. eigenvalues --   -0.53988  -0.51642  -0.46356  -0.40921  -0.39173
 Alpha  occ. eigenvalues --   -0.38069  -0.37079  -0.35258  -0.33742  -0.31228
 Alpha  occ. eigenvalues --   -0.28951  -0.28437  -0.28090  -0.25787  -0.24667
 Alpha  occ. eigenvalues --   -0.23510  -0.22079  -0.20222  -0.20061  -0.15864
 Alpha  occ. eigenvalues --    0.10189
 Alpha virt. eigenvalues --    0.19616   0.20950   0.22522   0.23406   0.24603
 Alpha virt. eigenvalues --    0.26121   0.26440   0.27235   0.28629   0.29303
 Alpha virt. eigenvalues --    0.30604   0.31505   0.33225   0.34856   0.37002
 Alpha virt. eigenvalues --    0.37893   0.38458   0.38767   0.39222   0.41241
 Alpha virt. eigenvalues --    0.41701   0.41872   0.42174   0.43188   0.44736
 Alpha virt. eigenvalues --    0.47448   0.48747   0.50402   0.51482   0.52950
 Alpha virt. eigenvalues --    0.56221   0.56683   0.56849   0.57942   0.58438
 Alpha virt. eigenvalues --    0.58922   0.59257   0.59513   0.60081   0.61632
 Alpha virt. eigenvalues --    0.61867   0.62577   0.63313   0.63612   0.64220
 Alpha virt. eigenvalues --    0.65544   0.66158   0.67568   0.67926   0.68451
 Alpha virt. eigenvalues --    0.69449   0.69748   0.71651   0.72063   0.73695
 Alpha virt. eigenvalues --    0.77421   0.78222   0.80272   0.81869   0.83931
 Alpha virt. eigenvalues --    0.85628   0.89220   0.90750   0.91335   0.92477
 Alpha virt. eigenvalues --    0.93783   0.95044   0.98571   0.99768   1.00345
 Alpha virt. eigenvalues --    1.02836   1.03656   1.04104   1.07621   1.09018
 Alpha virt. eigenvalues --    1.10909   1.11520   1.13718   1.15147   1.19499
 Alpha virt. eigenvalues --    1.21411   1.23083   1.23578   1.26062   1.27083
 Alpha virt. eigenvalues --    1.30376   1.30471   1.32528   1.33772   1.34074
 Alpha virt. eigenvalues --    1.34968   1.36708   1.38219   1.40583   1.42605
 Alpha virt. eigenvalues --    1.43664   1.45624   1.46697   1.48889   1.49445
 Alpha virt. eigenvalues --    1.51004   1.58932   1.60528   1.63040   1.66782
 Alpha virt. eigenvalues --    1.68792   1.70915   1.72887   1.73222   1.74720
 Alpha virt. eigenvalues --    1.78098   1.78194   1.79162   1.80956   1.81062
 Alpha virt. eigenvalues --    1.83419   1.84224   1.84682   1.86260   1.88453
 Alpha virt. eigenvalues --    1.89843   1.90084   1.95703   1.96871   1.99337
 Alpha virt. eigenvalues --    2.00005   2.01493   2.02957   2.05065   2.07160
 Alpha virt. eigenvalues --    2.08489   2.09338   2.11193   2.12742   2.14963
 Alpha virt. eigenvalues --    2.17152   2.17957   2.20465   2.24356   2.24874
 Alpha virt. eigenvalues --    2.26726   2.30159   2.32238   2.32584   2.34441
 Alpha virt. eigenvalues --    2.36089   2.36685   2.39775   2.40747   2.42959
 Alpha virt. eigenvalues --    2.45361   2.46706   2.49122   2.51211   2.53310
 Alpha virt. eigenvalues --    2.53735   2.57816   2.58700   2.60955   2.63400
 Alpha virt. eigenvalues --    2.64922   2.67762   2.69088   2.71226   2.72029
 Alpha virt. eigenvalues --    2.72420   2.74271   2.74825   2.75962   2.76864
 Alpha virt. eigenvalues --    2.78131   2.79298   2.80658   2.80950   2.83444
 Alpha virt. eigenvalues --    2.84717   2.85196   2.88070   2.88351   2.89846
 Alpha virt. eigenvalues --    2.92432   2.93283   2.95090   2.96690   2.98443
 Alpha virt. eigenvalues --    3.00158   3.00596   3.05614   3.07313   3.07855
 Alpha virt. eigenvalues --    3.09864   3.12834   3.13213   3.15020   3.18769
 Alpha virt. eigenvalues --    3.20044   3.20360   3.22338   3.24547   3.25200
 Alpha virt. eigenvalues --    3.27710   3.29253   3.29765   3.33129   3.34848
 Alpha virt. eigenvalues --    3.36662   3.37364   3.38918   3.40431   3.41040
 Alpha virt. eigenvalues --    3.42320   3.43935   3.46684   3.47590   3.50411
 Alpha virt. eigenvalues --    3.51821   3.53699   3.53776   3.54730   3.55912
 Alpha virt. eigenvalues --    3.57926   3.58379   3.60312   3.61932   3.63345
 Alpha virt. eigenvalues --    3.64654   3.66042   3.67623   3.68435   3.69885
 Alpha virt. eigenvalues --    3.73045   3.73493   3.74690   3.75663   3.78409
 Alpha virt. eigenvalues --    3.79989   3.81801   3.83741   3.86015   3.90583
 Alpha virt. eigenvalues --    3.96919   4.01221   4.02632   4.05085   4.06474
 Alpha virt. eigenvalues --    4.10914   4.14475   4.14598   4.15647   4.17240
 Alpha virt. eigenvalues --    4.20796   4.21433   4.23797   4.25693   4.26942
 Alpha virt. eigenvalues --    4.31865   4.34541   4.36393   4.38734   4.39959
 Alpha virt. eigenvalues --    4.41422   4.47127   4.48002   4.50315   4.54567
 Alpha virt. eigenvalues --    4.60850   4.66692   4.68099   4.71183   4.74178
 Alpha virt. eigenvalues --    4.75506   4.78748   4.85562   4.90171   4.93387
 Alpha virt. eigenvalues --    4.95306   4.97070   5.02577   5.09303   5.11257
 Alpha virt. eigenvalues --    5.15024   5.17410   5.36925   5.42394   5.42739
 Alpha virt. eigenvalues --    5.59036   5.61248   5.73280   5.82316   5.95836
 Alpha virt. eigenvalues --    6.07253   6.08861   6.39456   6.41627   6.53645
 Alpha virt. eigenvalues --    6.58302   6.66469   6.70644   6.87126   6.89173
 Alpha virt. eigenvalues --    6.96801   7.03049   7.10162   7.29427   7.32714
 Alpha virt. eigenvalues --    7.48433  22.69676  22.75684  22.80062  22.83255
 Alpha virt. eigenvalues --   22.89796  22.97905  23.62537  44.19089  44.28250
  Beta  occ. eigenvalues --  -19.48508 -19.40546 -10.44222 -10.38422 -10.37885
  Beta  occ. eigenvalues --  -10.37678 -10.36847 -10.36634 -10.36369  -1.04287
  Beta  occ. eigenvalues --   -0.94005  -0.78055  -0.69121  -0.68269  -0.57016
  Beta  occ. eigenvalues --   -0.53862  -0.51370  -0.46116  -0.40534  -0.38630
  Beta  occ. eigenvalues --   -0.37558  -0.36680  -0.35067  -0.32925  -0.30949
  Beta  occ. eigenvalues --   -0.28900  -0.28224  -0.27975  -0.25527  -0.24613
  Beta  occ. eigenvalues --   -0.23137  -0.20501  -0.20116  -0.19545  -0.15490
  Beta virt. eigenvalues --    0.16003   0.19227   0.19945   0.21266   0.22451
  Beta virt. eigenvalues --    0.24214   0.24451   0.25718   0.26317   0.26804
  Beta virt. eigenvalues --    0.27267   0.28546   0.30661   0.32655   0.34461
  Beta virt. eigenvalues --    0.35945   0.36962   0.37666   0.37870   0.38190
  Beta virt. eigenvalues --    0.40720   0.41118   0.41233   0.41625   0.42854
  Beta virt. eigenvalues --    0.44085   0.46708   0.48521   0.50183   0.50592
  Beta virt. eigenvalues --    0.52804   0.55426   0.55967   0.56223   0.56672
  Beta virt. eigenvalues --    0.57352   0.57944   0.58184   0.58511   0.59233
  Beta virt. eigenvalues --    0.60135   0.60768   0.62049   0.62073   0.62663
  Beta virt. eigenvalues --    0.63463   0.64916   0.65507   0.66629   0.67025
  Beta virt. eigenvalues --    0.67727   0.68651   0.69206   0.70690   0.71670
  Beta virt. eigenvalues --    0.73688   0.77457   0.78185   0.80962   0.82477
  Beta virt. eigenvalues --    0.84337   0.85988   0.89238   0.91288   0.91743
  Beta virt. eigenvalues --    0.92637   0.93788   0.94834   0.98272   0.99809
  Beta virt. eigenvalues --    1.00223   1.02555   1.03457   1.03898   1.07395
  Beta virt. eigenvalues --    1.08880   1.11174   1.11516   1.13430   1.14819
  Beta virt. eigenvalues --    1.20047   1.21494   1.23138   1.24010   1.26146
  Beta virt. eigenvalues --    1.27494   1.30032   1.30215   1.32473   1.33453
  Beta virt. eigenvalues --    1.34210   1.34854   1.36952   1.38326   1.40476
  Beta virt. eigenvalues --    1.42293   1.43395   1.45510   1.46662   1.48900
  Beta virt. eigenvalues --    1.49255   1.51172   1.59124   1.60577   1.63127
  Beta virt. eigenvalues --    1.66933   1.68644   1.71074   1.72782   1.73667
  Beta virt. eigenvalues --    1.74555   1.77741   1.78323   1.79016   1.80560
  Beta virt. eigenvalues --    1.80947   1.83586   1.84298   1.84801   1.86493
  Beta virt. eigenvalues --    1.88441   1.89818   1.89990   1.95773   1.96759
  Beta virt. eigenvalues --    1.99554   2.00244   2.01822   2.03534   2.05248
  Beta virt. eigenvalues --    2.07706   2.08971   2.09906   2.11568   2.13149
  Beta virt. eigenvalues --    2.15249   2.17351   2.18405   2.21001   2.24693
  Beta virt. eigenvalues --    2.25159   2.27057   2.30537   2.32781   2.32961
  Beta virt. eigenvalues --    2.34767   2.36459   2.37407   2.40090   2.41265
  Beta virt. eigenvalues --    2.43225   2.46082   2.47079   2.49577   2.51716
  Beta virt. eigenvalues --    2.53739   2.54254   2.58010   2.58907   2.61183
  Beta virt. eigenvalues --    2.63761   2.65167   2.68099   2.69301   2.71558
  Beta virt. eigenvalues --    2.72295   2.72489   2.74772   2.75206   2.76278
  Beta virt. eigenvalues --    2.77110   2.78398   2.79372   2.80912   2.81552
  Beta virt. eigenvalues --    2.84034   2.84905   2.85865   2.88527   2.88633
  Beta virt. eigenvalues --    2.90108   2.92719   2.93677   2.95536   2.96985
  Beta virt. eigenvalues --    2.98881   3.00632   3.01038   3.05768   3.06983
  Beta virt. eigenvalues --    3.08674   3.10644   3.13152   3.13676   3.15455
  Beta virt. eigenvalues --    3.19311   3.20259   3.21900   3.23976   3.25407
  Beta virt. eigenvalues --    3.26006   3.28481   3.29523   3.30233   3.33662
  Beta virt. eigenvalues --    3.35120   3.37850   3.38121   3.39325   3.40852
  Beta virt. eigenvalues --    3.41382   3.43048   3.44682   3.47271   3.48051
  Beta virt. eigenvalues --    3.50880   3.52821   3.54328   3.54550   3.55285
  Beta virt. eigenvalues --    3.56386   3.58661   3.58819   3.60983   3.62367
  Beta virt. eigenvalues --    3.63919   3.65108   3.66464   3.68095   3.69008
  Beta virt. eigenvalues --    3.70478   3.73481   3.74013   3.75655   3.76356
  Beta virt. eigenvalues --    3.78945   3.80690   3.82499   3.84625   3.86626
  Beta virt. eigenvalues --    3.91414   3.97554   4.01827   4.03161   4.05669
  Beta virt. eigenvalues --    4.06869   4.11250   4.14937   4.15420   4.16199
  Beta virt. eigenvalues --    4.18107   4.21324   4.21802   4.24154   4.26322
  Beta virt. eigenvalues --    4.27750   4.32667   4.34914   4.37312   4.39168
  Beta virt. eigenvalues --    4.40539   4.41902   4.47446   4.48595   4.50889
  Beta virt. eigenvalues --    4.55001   4.61496   4.67696   4.68576   4.72371
  Beta virt. eigenvalues --    4.74752   4.76276   4.79329   4.86071   4.90756
  Beta virt. eigenvalues --    4.93833   4.95925   4.98044   5.05390   5.10159
  Beta virt. eigenvalues --    5.11894   5.15620   5.18331   5.37138   5.42829
  Beta virt. eigenvalues --    5.43118   5.59224   5.61579   5.73610   5.82865
  Beta virt. eigenvalues --    5.96170   6.07845   6.09571   6.40247   6.42178
  Beta virt. eigenvalues --    6.54634   6.58698   6.67382   6.71996   6.87306
  Beta virt. eigenvalues --    6.89605   6.97333   7.04458   7.10378   7.29959
  Beta virt. eigenvalues --    7.33024   7.48874  22.69711  22.75754  22.80098
  Beta virt. eigenvalues --   22.83315  22.89867  22.98050  23.63199  44.19080
  Beta virt. eigenvalues --   44.28198
          Condensed to atoms (all electrons):
               1          2          3          4          5          6
     1  O    8.053273   0.614685  -0.098424  -0.215657   0.082531  -0.037613
     2  C    0.614685   5.052620   0.320356  -0.132908  -0.414434   0.156437
     3  O   -0.098424   0.320356   8.128664  -0.227743   0.016137  -0.001457
     4  C   -0.215657  -0.132908  -0.227743   7.972661   0.245698   0.089648
     5  C    0.082531  -0.414434   0.016137   0.245698   7.776073  -0.888355
     6  C   -0.037613   0.156437  -0.001457   0.089648  -0.888355   5.807452
     7  C    0.005726  -0.068404   0.000947  -0.270010   0.704535  -0.259751
     8  C   -0.010413   0.162598  -0.004148   0.125290  -0.480082   0.194686
     9  C    0.059446  -0.679832   0.030287   0.062449   1.597700  -0.683937
    10  H    0.000539  -0.013411   0.268353  -0.001437  -0.007256   0.001740
    11  H   -0.005558   0.432348   0.038561  -1.660149  -0.863144   0.222532
    12  H   -0.004183   0.100243   0.000196  -0.187449  -0.555705   0.310166
    13  H    0.002128   0.061870   0.000952  -0.163683   0.052046   0.098584
    14  H   -0.000889   0.007892  -0.000023   0.023780  -0.168159   0.487801
    15  H    0.022140  -0.025645   0.000398  -0.020198   0.030608   0.394085
    16  H   -0.000963   0.008001  -0.000133   0.027836  -0.056905   0.010443
    17  H   -0.001337   0.021416  -0.000226   0.121811  -0.346033   0.188369
    18  H   -0.000988   0.016945  -0.001985   0.069775  -0.046840   0.041160
    19  H   -0.010583   0.049833  -0.005498   0.044382  -0.051878   0.032003
    20  H   -0.002602   0.042298   0.000229  -0.078221  -0.035948   0.013815
    21  H   -0.004716   0.125840  -0.002073  -0.054310  -0.479125   0.170666
               7          8          9         10         11         12
     1  O    0.005726  -0.010413   0.059446   0.000539  -0.005558  -0.004183
     2  C   -0.068404   0.162598  -0.679832  -0.013411   0.432348   0.100243
     3  O    0.000947  -0.004148   0.030287   0.268353   0.038561   0.000196
     4  C   -0.270010   0.125290   0.062449  -0.001437  -1.660149  -0.187449
     5  C    0.704535  -0.480082   1.597700  -0.007256  -0.863144  -0.555705
     6  C   -0.259751   0.194686  -0.683937   0.001740   0.222532   0.310166
     7  C    6.287190  -0.187190   1.057546  -0.000524  -0.112626  -0.243525
     8  C   -0.187190   5.788349  -1.508177   0.003033   0.298105   0.153334
     9  C    1.057546  -1.508177  11.740098  -0.024429  -1.740091  -0.606708
    10  H   -0.000524   0.003033  -0.024429   0.461112   0.024885   0.000821
    11  H   -0.112626   0.298105  -1.740091   0.024885   3.315306   0.418827
    12  H   -0.243525   0.153334  -0.606708   0.000821   0.418827   1.098137
    13  H   -0.029692   0.025507  -0.105896   0.001166   0.163725   0.106153
    14  H   -0.116808   0.028471  -0.035820   0.000037   0.007921   0.028622
    15  H   -0.020609  -0.015786   0.044310  -0.000572  -0.011823  -0.006260
    16  H    0.241894  -0.016299  -0.091580   0.000084   0.004740   0.014111
    17  H   -0.183203   0.190264  -0.559784   0.000150   0.046566   0.138122
    18  H   -0.187828   0.523609  -0.451014   0.000654   0.019347   0.011025
    19  H   -0.123287   0.479776  -0.302165   0.003495   0.024995   0.009121
    20  H   -0.018509   0.054532  -0.005562   0.004591   0.133715   0.015337
    21  H   -0.351183   0.549984  -1.902388   0.003147   0.611195   0.249300
              13         14         15         16         17         18
     1  O    0.002128  -0.000889   0.022140  -0.000963  -0.001337  -0.000988
     2  C    0.061870   0.007892  -0.025645   0.008001   0.021416   0.016945
     3  O    0.000952  -0.000023   0.000398  -0.000133  -0.000226  -0.001985
     4  C   -0.163683   0.023780  -0.020198   0.027836   0.121811   0.069775
     5  C    0.052046  -0.168159   0.030608  -0.056905  -0.346033  -0.046840
     6  C    0.098584   0.487801   0.394085   0.010443   0.188369   0.041160
     7  C   -0.029692  -0.116808  -0.020609   0.241894  -0.183203  -0.187828
     8  C    0.025507   0.028471  -0.015786  -0.016299   0.190264   0.523609
     9  C   -0.105896  -0.035820   0.044310  -0.091580  -0.559784  -0.451014
    10  H    0.001166   0.000037  -0.000572   0.000084   0.000150   0.000654
    11  H    0.163725   0.007921  -0.011823   0.004740   0.046566   0.019347
    12  H    0.106153   0.028622  -0.006260   0.014111   0.138122   0.011025
    13  H    0.652060   0.008660  -0.015954   0.002413   0.015225   0.001482
    14  H    0.008660   0.638576  -0.034511   0.004583   0.022254   0.001157
    15  H   -0.015954  -0.034511   0.535053  -0.012375  -0.003505  -0.002925
    16  H    0.002413   0.004583  -0.012375   0.673660   0.053587   0.019821
    17  H    0.015225   0.022254  -0.003505   0.053587   0.959808   0.063563
    18  H    0.001482   0.001157  -0.002925   0.019821   0.063563   0.710050
    19  H    0.003066   0.001982  -0.004631   0.013559   0.034922   0.010745
    20  H    0.002681   0.000628  -0.001345   0.001885   0.012934   0.021541
    21  H    0.027838   0.007300  -0.006455   0.021772   0.215078   0.116555
              19         20         21
     1  O   -0.010583  -0.002602  -0.004716
     2  C    0.049833   0.042298   0.125840
     3  O   -0.005498   0.000229  -0.002073
     4  C    0.044382  -0.078221  -0.054310
     5  C   -0.051878  -0.035948  -0.479125
     6  C    0.032003   0.013815   0.170666
     7  C   -0.123287  -0.018509  -0.351183
     8  C    0.479776   0.054532   0.549984
     9  C   -0.302165  -0.005562  -1.902388
    10  H    0.003495   0.004591   0.003147
    11  H    0.024995   0.133715   0.611195
    12  H    0.009121   0.015337   0.249300
    13  H    0.003066   0.002681   0.027838
    14  H    0.001982   0.000628   0.007300
    15  H   -0.004631  -0.001345  -0.006455
    16  H    0.013559   0.001885   0.021772
    17  H    0.034922   0.012934   0.215078
    18  H    0.010745   0.021541   0.116555
    19  H    0.613115   0.015092   0.054078
    20  H    0.015092   0.597924   0.132131
    21  H    0.054078   0.132131   1.702359
          Atomic-Atomic Spin Densities.
               1          2          3          4          5          6
     1  O    0.273006  -0.189361   0.017605  -0.008040   0.047155  -0.018863
     2  C   -0.189361   0.723353  -0.062372  -0.218571  -0.386822   0.142934
     3  O    0.017605  -0.062372   0.068916  -0.044267   0.002247  -0.001328
     4  C   -0.008040  -0.218571  -0.044267   2.230046   0.024758   0.160258
     5  C    0.047155  -0.386822   0.002247   0.024758   2.600788  -1.167738
     6  C   -0.018863   0.142934  -0.001328   0.160258  -1.167738   0.680409
     7  C    0.005052  -0.072205   0.000836  -0.258522   0.756200  -0.538250
     8  C   -0.011413   0.159568  -0.006065   0.231262  -0.500577   0.272333
     9  C    0.046901  -0.704487   0.031872  -0.115346   1.638271  -0.701347
    10  H   -0.007468   0.031527  -0.011282  -0.039817  -0.004548   0.001540
    11  H   -0.010570   0.437349   0.031921  -1.982754  -0.837280   0.211561
    12  H   -0.004843   0.088898   0.000377  -0.136318  -0.937438   0.347566
    13  H   -0.006518   0.071372   0.000378  -0.131948  -0.349459   0.127354
    14  H   -0.001559   0.007942  -0.000026   0.012755  -0.120806   0.079381
    15  H    0.008733  -0.025147   0.000670  -0.011740   0.076806  -0.041518
    16  H   -0.000967   0.007913  -0.000141   0.031413  -0.069395   0.059326
    17  H   -0.001240   0.022785  -0.000210   0.113687  -0.335267   0.224142
    18  H   -0.000948   0.018352  -0.001677   0.051790  -0.044322   0.028927
    19  H   -0.009081   0.053353  -0.007991   0.044304  -0.051482   0.032086
    20  H   -0.002909   0.053439  -0.009126  -0.050688  -0.046967   0.016947
    21  H   -0.003858   0.126013  -0.002118  -0.038641  -0.470110   0.170775
               7          8          9         10         11         12
     1  O    0.005052  -0.011413   0.046901  -0.007468  -0.010570  -0.004843
     2  C   -0.072205   0.159568  -0.704487   0.031527   0.437349   0.088898
     3  O    0.000836  -0.006065   0.031872  -0.011282   0.031921   0.000377
     4  C   -0.258522   0.231262  -0.115346  -0.039817  -1.982754  -0.136318
     5  C    0.756200  -0.500577   1.638271  -0.004548  -0.837280  -0.937438
     6  C   -0.538250   0.272333  -0.701347   0.001540   0.211561   0.347566
     7  C    1.103672  -0.482676   1.115348  -0.000592  -0.111947  -0.235670
     8  C   -0.482676   0.741609  -1.828271   0.003471   0.284168   0.153856
     9  C    1.115348  -1.828271   6.500099  -0.021052  -1.707361  -0.597373
    10  H   -0.000592   0.003471  -0.021052   0.018669   0.026793   0.000750
    11  H   -0.111947   0.284168  -1.707361   0.026793   2.734993   0.425243
    12  H   -0.235670   0.153856  -0.597373   0.000750   0.425243   0.462140
    13  H   -0.041612   0.029038  -0.119608   0.001286   0.167905   0.138132
    14  H   -0.063148   0.014283  -0.034163   0.000046   0.008426   0.035805
    15  H    0.032845  -0.013761   0.044605  -0.000527  -0.012149  -0.016108
    16  H   -0.178004   0.032962  -0.104724   0.000086   0.004567   0.014179
    17  H   -0.565292   0.235188  -0.544242   0.000145   0.047093   0.131801
    18  H   -0.134667   0.109406  -0.396495   0.000626   0.020148   0.011225
    19  H   -0.064476   0.036748  -0.237472   0.003078   0.025580   0.008746
    20  H   -0.031334   0.094665  -0.413391   0.005172   0.136714   0.015932
    21  H   -0.341893   0.587848  -2.249735   0.002884   0.621083   0.244107
              13         14         15         16         17         18
     1  O   -0.006518  -0.001559   0.008733  -0.000967  -0.001240  -0.000948
     2  C    0.071372   0.007942  -0.025147   0.007913   0.022785   0.018352
     3  O    0.000378  -0.000026   0.000670  -0.000141  -0.000210  -0.001677
     4  C   -0.131948   0.012755  -0.011740   0.031413   0.113687   0.051790
     5  C   -0.349459  -0.120806   0.076806  -0.069395  -0.335267  -0.044322
     6  C    0.127354   0.079381  -0.041518   0.059326   0.224142   0.028927
     7  C   -0.041612  -0.063148   0.032845  -0.178004  -0.565292  -0.134667
     8  C    0.029038   0.014283  -0.013761   0.032962   0.235188   0.109406
     9  C   -0.119608  -0.034163   0.044605  -0.104724  -0.544242  -0.396495
    10  H    0.001286   0.000046  -0.000527   0.000086   0.000145   0.000626
    11  H    0.167905   0.008426  -0.012149   0.004567   0.047093   0.020148
    12  H    0.138132   0.035805  -0.016108   0.014179   0.131801   0.011225
    13  H    0.083286   0.014910  -0.010566   0.002967   0.015371   0.001296
    14  H    0.014910   0.008627  -0.006134   0.010874   0.029429   0.001861
    15  H   -0.010566  -0.006134   0.000685  -0.007871  -0.012895  -0.002730
    16  H    0.002967   0.010874  -0.007871   0.054540   0.087728   0.026481
    17  H    0.015371   0.029429  -0.012895   0.087728   0.324720   0.068352
    18  H    0.001296   0.001861  -0.002730   0.026481   0.068352   0.080914
    19  H    0.003216   0.002426  -0.007482   0.017882   0.023804   0.042702
    20  H    0.003272   0.000446  -0.001186   0.002439   0.013173   0.028375
    21  H    0.028422   0.007755  -0.006703   0.021865   0.207044   0.120726
              19         20         21
     1  O   -0.009081  -0.002909  -0.003858
     2  C    0.053353   0.053439   0.126013
     3  O   -0.007991  -0.009126  -0.002118
     4  C    0.044304  -0.050688  -0.038641
     5  C   -0.051482  -0.046967  -0.470110
     6  C    0.032086   0.016947   0.170775
     7  C   -0.064476  -0.031334  -0.341893
     8  C    0.036748   0.094665   0.587848
     9  C   -0.237472  -0.413391  -2.249735
    10  H    0.003078   0.005172   0.002884
    11  H    0.025580   0.136714   0.621083
    12  H    0.008746   0.015932   0.244107
    13  H    0.003216   0.003272   0.028422
    14  H    0.002426   0.000446   0.007755
    15  H   -0.007482  -0.001186  -0.006703
    16  H    0.017882   0.002439   0.021865
    17  H    0.023804   0.013173   0.207044
    18  H    0.042702   0.028375   0.120726
    19  H    0.030790   0.018338   0.042112
    20  H    0.018338   0.036548   0.159550
    21  H    0.042112   0.159550   1.069454
 Mulliken charges and spin densities:
               1          2
     1  O   -0.446544   0.120813
     2  C    0.161253   0.285834
     3  O   -0.463367   0.008216
     4  C    0.228434  -0.136381
     5  C   -0.111466  -0.175983
     6  C   -0.348472   0.086492
     7  C   -0.124688  -0.106335
     8  C   -0.355443   0.143642
     9  C    0.105546  -0.397971
    10  H    0.273822   0.010786
    11  H   -0.369376   0.521483
    12  H   -0.049686   0.151006
    13  H    0.089668   0.028494
    14  H    0.086547   0.009129
    15  H    0.156000  -0.012174
    16  H    0.079866   0.014119
    17  H    0.010018   0.085316
    18  H    0.064150   0.030343
    19  H    0.107877   0.007180
    20  H    0.092851   0.029409
    21  H   -0.186992   0.296581
 Sum of Mulliken charges =  -1.00000   1.00000
 Mulliken charges and spin densities with hydrogens summed into heavy atoms:
               1          2
     1  O   -0.446544   0.120813
     2  C    0.161253   0.285834
     3  O   -0.189545   0.019002
     4  C   -0.140941   0.385102
     5  C   -0.071483   0.003517
     6  C   -0.105925   0.083448
     7  C   -0.034804  -0.006899
     8  C   -0.183416   0.181165
     9  C    0.011405  -0.071981
 Electronic spatial extent (au):  <R**2>=           1195.4462
 Charge=             -1.0000 electrons
 Dipole moment (field-independent basis, Debye):
    X=              1.0210    Y=              0.7359    Z=             -3.1229  Tot=              3.3670
 Quadrupole moment (field-independent basis, Debye-Ang):
   XX=            -72.6477   YY=            -72.1900   ZZ=            -73.2045
   XY=             -4.8134   XZ=             -0.7795   YZ=             -4.5611
 Traceless Quadrupole moment (field-independent basis, Debye-Ang):
   XX=              0.0330   YY=              0.4907   ZZ=             -0.5238
   XY=             -4.8134   XZ=             -0.7795   YZ=             -4.5611
 Octapole moment (field-independent basis, Debye-Ang**2):
  XXX=            -38.9924  YYY=             -4.1399  ZZZ=            -44.1622  XYY=             -2.4627
  XXY=              3.0579  XXZ=            -13.9490  XZZ=            -10.1015  YZZ=             -2.3392
  YYZ=             -6.1568  XYZ=              5.8266
 Hexadecapole moment (field-independent basis, Debye-Ang**3):
 XXXX=           -919.6913 YYYY=           -532.4162 ZZZZ=           -402.0094 XXXY=            -29.7093
 XXXZ=             24.5176 YYYX=            -19.5852 YYYZ=            -12.1073 ZZZX=              5.2013
 ZZZY=            -11.0426 XXYY=           -269.9851 XXZZ=           -217.7572 YYZZ=           -155.2993
 XXYZ=            -19.3985 YYXZ=             -7.9906 ZZXY=             -9.5054
 N-N= 4.884188804523D+02 E-N=-1.979161323003D+03  KE= 4.227368846415D+02
                          Isotropic Fermi Contact Couplings
        Atom                 a.u.       MegaHertz       Gauss      10(-4) cm-1
     1  O(17)              0.02825     -17.12683      -6.11128      -5.71290
     2  C(13)              0.03757      42.23227      15.06953      14.08717
     3  O(17)              0.01642      -9.95409      -3.55187      -3.32033
     4  C(13)              0.01096      12.32620       4.39829       4.11158
     5  C(13)              0.04026      45.25656      16.14867      15.09596
     6  C(13)             -0.00058      -0.64671      -0.23076      -0.21572
     7  C(13)              0.01506      16.93002       6.04105       5.64725
     8  C(13)              0.01489      16.74265       5.97419       5.58475
     9  C(13)              0.11848     133.19094      47.52584      44.42771
    10  H(1)              -0.00063      -2.81416      -1.00416      -0.93870
    11  H(1)               0.00727      32.48872      11.59278      10.83707
    12  H(1)              -0.00093      -4.17799      -1.49081      -1.39363
    13  H(1)              -0.00024      -1.06126      -0.37868      -0.35400
    14  H(1)               0.00111       4.95629       1.76853       1.65324
    15  H(1)               0.00149       6.65889       2.37606       2.22117
    16  H(1)               0.00007       0.30371       0.10837       0.10131
    17  H(1)              -0.00017      -0.76045      -0.27135      -0.25366
    18  H(1)               0.00030       1.33957       0.47799       0.44683
    19  H(1)               0.00038       1.69846       0.60605       0.56654
    20  H(1)              -0.00041      -1.81378      -0.64720      -0.60501
    21  H(1)              -0.00156      -6.97744      -2.48972      -2.32742
 --------------------------------------------------------
       Center         ----  Spin Dipole Couplings  ----
                      3XX-RR        3YY-RR        3ZZ-RR
 --------------------------------------------------------
     1   Atom       -0.024521     -0.195908      0.220429
     2   Atom       -0.030030     -0.128850      0.158880
     3   Atom       -0.040642     -0.054250      0.094892
     4   Atom        0.014526     -0.006997     -0.007529
     5   Atom       -0.000623     -0.011434      0.012056
     6   Atom        0.002136      0.001306     -0.003442
     7   Atom        0.006851     -0.009726      0.002875
     8   Atom       -0.003587     -0.001125      0.004712
     9   Atom       -0.008746     -0.012240      0.020987
    10   Atom        0.008727     -0.004812     -0.003915
    11   Atom       -0.009137     -0.008658      0.017795
    12   Atom        0.000159     -0.005265      0.005105
    13   Atom       -0.001066      0.003057     -0.001991
    14   Atom        0.001493     -0.000382     -0.001111
    15   Atom        0.002828     -0.000445     -0.002382
    16   Atom        0.001012     -0.002216      0.001205
    17   Atom        0.001168     -0.003458      0.002291
    18   Atom        0.000294      0.000660     -0.000954
    19   Atom        0.002339     -0.000911     -0.001428
    20   Atom       -0.002419      0.005361     -0.002942
    21   Atom        0.002404     -0.006273      0.003869
 --------------------------------------------------------
                        XY            XZ            YZ
 --------------------------------------------------------
     1   Atom        0.167436     -0.369474     -0.249765
     2   Atom        0.105128     -0.231712     -0.144698
     3   Atom        0.045319     -0.081029     -0.078019
     4   Atom        0.005976     -0.007471     -0.000262
     5   Atom        0.000225      0.016431      0.000329
     6   Atom       -0.004464     -0.002370      0.002140
     7   Atom        0.000541      0.009586      0.000476
     8   Atom        0.003578      0.000027     -0.008467
     9   Atom       -0.002597      0.008244     -0.009797
    10   Atom       -0.000647      0.006869     -0.001241
    11   Atom        0.001230      0.008912      0.005112
    12   Atom       -0.000497      0.006814      0.002330
    13   Atom       -0.000769      0.002500     -0.001071
    14   Atom       -0.002021     -0.000063      0.000590
    15   Atom       -0.004088     -0.002702      0.002604
    16   Atom        0.000101     -0.002061      0.000302
    17   Atom        0.001397      0.003027      0.002375
    18   Atom        0.004247      0.000946      0.000583
    19   Atom        0.007510     -0.002116     -0.002870
    20   Atom       -0.001605      0.002340      0.000028
    21   Atom        0.006527      0.010044      0.004472
 --------------------------------------------------------


 ---------------------------------------------------------------------------------
              Anisotropic Spin Dipole Couplings in Principal Axis System
 ---------------------------------------------------------------------------------

       Atom             a.u.   MegaHertz   Gauss  10(-4) cm-1        Axes

              Baa    -0.3136    22.691     8.097     7.569  0.1377  0.8572  0.4962
     1 O(17)  Bbb    -0.2870    20.768     7.410     6.927  0.8275 -0.3749  0.4180
              Bcc     0.6006   -43.459   -15.507   -14.496 -0.5443 -0.3530  0.7610
 
              Baa    -0.1957   -26.265    -9.372    -8.761 -0.5940  0.8022 -0.0608
     2 C(13)  Bbb    -0.1820   -24.422    -8.715    -8.146  0.6059  0.4957  0.6223
              Bcc     0.3777    50.687    18.086    16.907 -0.5293 -0.3328  0.7805
 
              Baa    -0.0940     6.803     2.428     2.269 -0.5333  0.8377  0.1172
     3 O(17)  Bbb    -0.0750     5.424     1.935     1.809  0.7434  0.3981  0.5375
              Bcc     0.1690   -12.227    -4.363    -4.079 -0.4036 -0.3738  0.8351
 
              Baa    -0.0107    -1.439    -0.513    -0.480  0.3529 -0.5109  0.7839
     4 C(13)  Bbb    -0.0074    -0.998    -0.356    -0.333 -0.0363  0.8297  0.5571
              Bcc     0.0182     2.436     0.869     0.813  0.9350  0.2250 -0.2742
 
              Baa    -0.0119    -1.596    -0.570    -0.532  0.8246  0.0013 -0.5657
     5 C(13)  Bbb    -0.0114    -1.535    -0.548    -0.512 -0.0075  0.9999 -0.0087
              Bcc     0.0233     3.131     1.117     1.044  0.5657  0.0115  0.8246
 
              Baa    -0.0044    -0.591    -0.211    -0.197  0.2188 -0.1879  0.9575
     6 C(13)  Bbb    -0.0028    -0.371    -0.132    -0.124  0.6715  0.7410 -0.0080
              Bcc     0.0072     0.962     0.343     0.321  0.7080 -0.6447 -0.2883
 
              Baa    -0.0097    -1.308    -0.467    -0.436 -0.0193  0.9995 -0.0230
     7 C(13)  Bbb    -0.0049    -0.661    -0.236    -0.221 -0.6314  0.0056  0.7754
              Bcc     0.0147     1.969     0.703     0.657  0.7752  0.0295  0.6310
 
              Baa    -0.0089    -1.189    -0.424    -0.397 -0.5005  0.7340  0.4590
     8 C(13)  Bbb    -0.0022    -0.294    -0.105    -0.098  0.8537  0.3306  0.4023
              Bcc     0.0110     1.482     0.529     0.494 -0.1435 -0.5932  0.7922
 
              Baa    -0.0149    -2.005    -0.715    -0.669  0.0783  0.9662  0.2455
     9 C(13)  Bbb    -0.0109    -1.460    -0.521    -0.487  0.9670 -0.0137 -0.2544
              Bcc     0.0258     3.465     1.236     1.156  0.2424 -0.2573  0.9354
 
              Baa    -0.0073    -3.869    -1.381    -1.291 -0.3587  0.3459  0.8670
    10 H(1)   Bbb    -0.0046    -2.433    -0.868    -0.812  0.1966  0.9360 -0.2921
              Bcc     0.0118     6.303     2.249     2.102  0.9125 -0.0656  0.4037
 
              Baa    -0.0119    -6.326    -2.257    -2.110  0.9440  0.1249 -0.3053
    11 H(1)   Bbb    -0.0095    -5.089    -1.816    -1.698 -0.1704  0.9771 -0.1272
              Bcc     0.0214    11.415     4.073     3.808  0.2824  0.1721  0.9437
 
              Baa    -0.0068    -3.633    -1.296    -1.212  0.4647  0.7804 -0.4184
    12 H(1)   Bbb    -0.0032    -1.732    -0.618    -0.578  0.6857 -0.6161 -0.3876
              Bcc     0.0101     5.365     1.914     1.790  0.5602  0.1068  0.8214
 
              Baa    -0.0041    -2.180    -0.778    -0.727 -0.6294  0.0485  0.7755
    13 H(1)   Bbb     0.0004     0.216     0.077     0.072  0.7140  0.4300  0.5525
              Bcc     0.0037     1.964     0.701     0.655 -0.3067  0.9015 -0.3053
 
              Baa    -0.0019    -1.036    -0.370    -0.345  0.4322  0.7500 -0.5007
    14 H(1)   Bbb    -0.0009    -0.468    -0.167    -0.156  0.3435  0.3764  0.8604
              Bcc     0.0028     1.504     0.537     0.502  0.8338 -0.5439 -0.0949
 
              Baa    -0.0042    -2.239    -0.799    -0.747 -0.0421 -0.6002  0.7987
    15 H(1)   Bbb    -0.0029    -1.522    -0.543    -0.508  0.6514  0.5897  0.4774
              Bcc     0.0070     3.761     1.342     1.255  0.7575 -0.5404 -0.3662
 
              Baa    -0.0023    -1.217    -0.434    -0.406 -0.1319  0.9778 -0.1626
    16 H(1)   Bbb    -0.0009    -0.478    -0.170    -0.159  0.7129  0.2075  0.6699
              Bcc     0.0032     1.694     0.605     0.565 -0.6888  0.0276  0.7245
 
              Baa    -0.0043    -2.312    -0.825    -0.771 -0.0718  0.9489 -0.3075
    17 H(1)   Bbb    -0.0013    -0.689    -0.246    -0.230  0.7982 -0.1302 -0.5882
              Bcc     0.0056     3.001     1.071     1.001  0.5981  0.2876  0.7480
 
              Baa    -0.0038    -2.029    -0.724    -0.677  0.7273 -0.6786 -0.1027
    18 H(1)   Bbb    -0.0011    -0.599    -0.214    -0.200 -0.0498 -0.2014  0.9782
              Bcc     0.0049     2.628     0.938     0.876  0.6845  0.7063  0.1803
 
              Baa    -0.0071    -3.807    -1.358    -1.270 -0.5860  0.7900  0.1800
    19 H(1)   Bbb    -0.0024    -1.257    -0.449    -0.419  0.3489  0.0456  0.9360
              Bcc     0.0095     5.064     1.807     1.689  0.7313  0.6114 -0.3024
 
              Baa    -0.0052    -2.748    -0.981    -0.917 -0.6820 -0.1060  0.7237
    20 H(1)   Bbb    -0.0006    -0.294    -0.105    -0.098  0.7011  0.1871  0.6881
              Bcc     0.0057     3.042     1.085     1.015 -0.2083  0.9766 -0.0532
 
              Baa    -0.0099    -5.270    -1.880    -1.758 -0.5459  0.8278  0.1296
    21 H(1)   Bbb    -0.0060    -3.219    -1.148    -1.074 -0.5151 -0.4535  0.7274
              Bcc     0.0159     8.489     3.029     2.832  0.6608  0.3303  0.6739
 

 ---------------------------------------------------------------------------------

   1 Symmetry operations used in ECPInt.
 ECPInt:  NShTT=   10878 NPrTT=   32112 LenC2=   10694 LenP2D=   25391.
 LDataN:  DoStor=T MaxTD1= 7 Len=  274
 Calling FoFJK, ICntrl=      2127 FMM=F ISym2X=0 I1Cent= 0 IOpClX= 1 NMat=1 NMatS=1 NMatT=0.
 ***** Axes restored to original set *****
 -------------------------------------------------------------------
 Center     Atomic                   Forces (Hartrees/Bohr)
 Number     Number              X              Y              Z
 -------------------------------------------------------------------
      1        8          -0.022540183   -0.060694856   -0.033104038
      2        6           0.064356758    0.033112655    0.033067426
      3        8          -0.026788060    0.027690688   -0.003200977
      4        6          -0.015642695   -0.003410035   -0.030512732
      5        6          -0.002230402    0.005540570   -0.004126173
      6        6          -0.003687667    0.001065245   -0.000261923
      7        6          -0.002568003   -0.000984753    0.000311501
      8        6          -0.003006614   -0.000756313   -0.001837530
      9        6          -0.002107238   -0.007062958   -0.002207001
     10        1           0.003186629   -0.002395353    0.003088854
     11        1          -0.000633592    0.003809925    0.028348885
     12        1           0.001532965    0.001226280    0.002943642
     13        1          -0.001533697   -0.001102454   -0.000054427
     14        1           0.003881377   -0.002319801    0.000718176
     15        1          -0.001014893   -0.000459507   -0.000240650
     16        1           0.001643695   -0.000035318   -0.002276586
     17        1           0.000176619    0.000587286    0.001711085
     18        1           0.003897632    0.003629958    0.001212192
     19        1           0.001145965    0.000307891    0.000738448
     20        1          -0.001402967    0.000764955    0.000507804
     21        1           0.003334369    0.001485895    0.005174023
 -------------------------------------------------------------------
 Cartesian Forces:  Max     0.064356758 RMS     0.015643378

 GradGradGradGradGradGradGradGradGradGradGradGradGradGradGradGradGradGrad
 Berny optimization.
 FormGI is forming the generalized inverse of G from B-inverse, IUseBI=4.
 Internal  Forces:  Max     0.071937426 RMS     0.007975131
 Search for a local minimum.
 Step number   1 out of a maximum of  126
 All quantities printed in internal units (Hartrees-Bohrs-Radians)
 Mixed Optimization -- RFO/linear search
 Second derivative matrix not updated -- first step.
 ITU=  0
     Eigenvalues ---    0.00543   0.00576   0.00578   0.00673   0.00992
     Eigenvalues ---    0.01919   0.02028   0.02367   0.03676   0.03926
     Eigenvalues ---    0.04118   0.04410   0.04567   0.04856   0.04892
     Eigenvalues ---    0.05497   0.05569   0.05604   0.06142   0.06636
     Eigenvalues ---    0.07880   0.08069   0.08082   0.08094   0.08170
     Eigenvalues ---    0.08208   0.08720   0.12030   0.12094   0.14304
     Eigenvalues ---    0.15283   0.16000   0.17472   0.21180   0.24994
     Eigenvalues ---    0.25000   0.27681   0.28023   0.28290   0.29381
     Eigenvalues ---    0.29598   0.29649   0.30914   0.34107   0.34160
     Eigenvalues ---    0.34196   0.34350   0.34366   0.34478   0.34632
     Eigenvalues ---    0.34637   0.34643   0.34807   0.34895   0.53805
     Eigenvalues ---    0.55245   1.04947
 RFO step:  Lambda=-1.75159943D-02 EMin= 5.43267293D-03
 Linear search not attempted -- first point.
 Iteration  1 RMS(Cart)=  0.05572772 RMS(Int)=  0.00369195
 Iteration  2 RMS(Cart)=  0.00403827 RMS(Int)=  0.00182902
 Iteration  3 RMS(Cart)=  0.00001170 RMS(Int)=  0.00182896
 Iteration  4 RMS(Cart)=  0.00000006 RMS(Int)=  0.00182896
 Variable       Old X    -DE/DX   Delta X   Delta X   Delta X     New X
                                 (Linear)    (Quad)   (Total)
    R1        2.26720   0.07194   0.00000   0.06742   0.06742   2.33463
    R2        2.54915   0.03419   0.00000   0.05999   0.05999   2.60915
    R3        2.86176  -0.01288   0.00000  -0.03944  -0.03944   2.82233
    R4        1.82910  -0.00371   0.00000  -0.00668  -0.00668   1.82242
    R5        2.88934  -0.00512   0.00000  -0.01725  -0.01716   2.87217
    R6        2.90137  -0.00296   0.00000  -0.00806  -0.00805   2.89332
    R7        2.07001   0.02546   0.00000   0.07083   0.07083   2.14084
    R8        2.88875  -0.00040   0.00000  -0.00206  -0.00211   2.88664
    R9        2.06743   0.00338   0.00000   0.00937   0.00937   2.07680
   R10        2.05989   0.00171   0.00000   0.00467   0.00467   2.06456
   R11        2.88605   0.00119   0.00000   0.00223   0.00223   2.88827
   R12        2.06268   0.00437   0.00000   0.01200   0.01200   2.07468
   R13        2.06531   0.00087   0.00000   0.00241   0.00241   2.06771
   R14        2.88618  -0.00006   0.00000   0.00072   0.00063   2.88680
   R15        2.06276   0.00280   0.00000   0.00770   0.00770   2.07047
   R16        2.07061   0.00148   0.00000   0.00412   0.00412   2.07474
   R17        2.88479   0.00057   0.00000   0.00253   0.00259   2.88738
   R18        2.06258   0.00485   0.00000   0.01332   0.01332   2.07590
   R19        2.07150  -0.00131   0.00000  -0.00366  -0.00366   2.06784
   R20        2.05846   0.00150   0.00000   0.00408   0.00408   2.06254
   R21        2.06716   0.00629   0.00000   0.01741   0.01741   2.08457
    A1        2.12284  -0.00740   0.00000  -0.02996  -0.04055   2.08229
    A2        2.20122   0.00695   0.00000   0.02395   0.01235   2.21357
    A3        1.95874   0.00025   0.00000  -0.00127  -0.01210   1.94663
    A4        1.86432  -0.00579   0.00000  -0.03263  -0.03263   1.83169
    A5        1.93731  -0.00423   0.00000  -0.02156  -0.02115   1.91616
    A6        1.95100   0.00411   0.00000   0.02738   0.02710   1.97810
    A7        1.82408   0.00544   0.00000   0.07923   0.07977   1.90385
    A8        1.94122  -0.00047   0.00000  -0.01283  -0.01302   1.92819
    A9        1.91435  -0.00068   0.00000  -0.02431  -0.02529   1.88906
   A10        1.89159  -0.00394   0.00000  -0.04463  -0.04636   1.84522
   A11        1.95442   0.00194   0.00000   0.00580   0.00586   1.96028
   A12        1.88076  -0.00091   0.00000  -0.00607  -0.00602   1.87474
   A13        1.91689  -0.00126   0.00000  -0.00735  -0.00746   1.90943
   A14        1.90847  -0.00074   0.00000   0.00056   0.00050   1.90897
   A15        1.92408   0.00031   0.00000   0.00314   0.00318   1.92727
   A16        1.87709   0.00059   0.00000   0.00370   0.00367   1.88076
   A17        1.94728  -0.00259   0.00000  -0.01062  -0.01071   1.93657
   A18        1.91210   0.00107   0.00000   0.00037   0.00030   1.91240
   A19        1.90096   0.00039   0.00000   0.00288   0.00285   1.90381
   A20        1.92550  -0.00047   0.00000  -0.01098  -0.01111   1.91439
   A21        1.91081   0.00180   0.00000   0.01354   0.01367   1.92448
   A22        1.86521  -0.00007   0.00000   0.00575   0.00578   1.87099
   A23        1.93750   0.00128   0.00000   0.01000   0.00995   1.94745
   A24        1.92349   0.00023   0.00000   0.00676   0.00664   1.93013
   A25        1.90977  -0.00090   0.00000  -0.01096  -0.01089   1.89889
   A26        1.92609  -0.00026   0.00000   0.00341   0.00337   1.92946
   A27        1.90055  -0.00084   0.00000  -0.01192  -0.01197   1.88857
   A28        1.86481   0.00042   0.00000   0.00195   0.00199   1.86680
   A29        1.93544  -0.00183   0.00000  -0.00748  -0.00751   1.92793
   A30        1.93027   0.00032   0.00000  -0.00664  -0.00664   1.92363
   A31        1.90861  -0.00004   0.00000   0.00112   0.00112   1.90973
   A32        1.91747   0.00063   0.00000   0.00006  -0.00005   1.91742
   A33        1.90890   0.00073   0.00000   0.00517   0.00522   1.91411
   A34        1.86159   0.00027   0.00000   0.00854   0.00853   1.87012
   A35        1.94033   0.00164   0.00000   0.01748   0.01756   1.95789
   A36        1.92301  -0.00020   0.00000  -0.00337  -0.00350   1.91951
   A37        1.88061  -0.00126   0.00000  -0.00919  -0.00924   1.87137
   A38        1.93884  -0.00027   0.00000   0.00369   0.00357   1.94241
   A39        1.90466  -0.00003   0.00000  -0.00489  -0.00481   1.89985
   A40        1.87415   0.00003   0.00000  -0.00499  -0.00500   1.86915
    D1        0.00681  -0.00239   0.00000  -0.10407  -0.09979  -0.09298
    D2       -3.10641   0.00462   0.00000   0.15826   0.15398  -2.95243
    D3        0.16466   0.00472   0.00000   0.16951   0.16965   0.33431
    D4        2.34317   0.00398   0.00000   0.15687   0.15649   2.49966
    D5       -1.89775   0.00451   0.00000   0.16352   0.16475  -1.73299
    D6       -3.00684  -0.00295   0.00000  -0.10809  -0.10861  -3.11545
    D7       -0.82834  -0.00369   0.00000  -0.12073  -0.12177  -0.95010
    D8        1.21393  -0.00316   0.00000  -0.11408  -0.11350   1.10043
    D9        1.25105   0.00027   0.00000  -0.00869  -0.00865   1.24240
   D10       -2.93264  -0.00006   0.00000  -0.00845  -0.00843  -2.94107
   D11       -0.89276  -0.00055   0.00000  -0.01146  -0.01142  -0.90418
   D12       -0.93296  -0.00159   0.00000  -0.01883  -0.01876  -0.95173
   D13        1.16654  -0.00193   0.00000  -0.01859  -0.01854   1.14799
   D14       -3.07677  -0.00242   0.00000  -0.02160  -0.02154  -3.09831
   D15       -3.02526   0.00406   0.00000   0.06087   0.06089  -2.96436
   D16       -0.92576   0.00372   0.00000   0.06110   0.06111  -0.86465
   D17        1.11411   0.00323   0.00000   0.05809   0.05812   1.17224
   D18       -1.21771   0.00307   0.00000   0.02016   0.01990  -1.19781
   D19        0.93956   0.00373   0.00000   0.03471   0.03441   0.97398
   D20        2.97917   0.00293   0.00000   0.02163   0.02136   3.00053
   D21        0.95862   0.00024   0.00000   0.00270   0.00235   0.96097
   D22        3.11590   0.00090   0.00000   0.01725   0.01686   3.13275
   D23       -1.12768   0.00010   0.00000   0.00417   0.00380  -1.12388
   D24        3.06437  -0.00344   0.00000  -0.06422  -0.06344   3.00093
   D25       -1.06154  -0.00278   0.00000  -0.04967  -0.04893  -1.11047
   D26        0.97807  -0.00358   0.00000  -0.06275  -0.06198   0.91609
   D27        0.93934   0.00091   0.00000   0.01954   0.01967   0.95901
   D28        3.07672  -0.00069   0.00000  -0.00127  -0.00120   3.07553
   D29       -1.17197   0.00005   0.00000   0.00747   0.00755  -1.16442
   D30       -1.14394   0.00132   0.00000   0.02309   0.02316  -1.12078
   D31        0.99345  -0.00028   0.00000   0.00228   0.00230   0.99574
   D32        3.02794   0.00045   0.00000   0.01102   0.01104   3.03898
   D33        3.07906   0.00086   0.00000   0.01638   0.01646   3.09552
   D34       -1.06674  -0.00074   0.00000  -0.00443  -0.00441  -1.07114
   D35        0.96775  -0.00001   0.00000   0.00431   0.00434   0.97209
   D36       -0.96447   0.00015   0.00000   0.00168   0.00187  -0.96260
   D37       -3.10387  -0.00055   0.00000  -0.01414  -0.01407  -3.11794
   D38        1.13365  -0.00067   0.00000  -0.01395  -0.01384   1.11981
   D39       -3.09415   0.00089   0.00000   0.01615   0.01620  -3.07794
   D40        1.04963   0.00019   0.00000   0.00032   0.00027   1.04990
   D41       -0.99603   0.00007   0.00000   0.00051   0.00049  -0.99554
   D42        1.14109   0.00018   0.00000   0.00750   0.00760   1.14868
   D43       -0.99832  -0.00053   0.00000  -0.00833  -0.00834  -1.00666
   D44       -3.04398  -0.00064   0.00000  -0.00814  -0.00811  -3.05209
   D45        0.99147  -0.00102   0.00000  -0.02331  -0.02328   0.96819
   D46        3.12319  -0.00124   0.00000  -0.03291  -0.03288   3.09031
   D47       -1.11497  -0.00074   0.00000  -0.02573  -0.02572  -1.14069
   D48        3.12937  -0.00003   0.00000  -0.00551  -0.00545   3.12391
   D49       -1.02210  -0.00025   0.00000  -0.01511  -0.01506  -1.03716
   D50        1.02293   0.00025   0.00000  -0.00793  -0.00790   1.01502
   D51       -1.11212  -0.00016   0.00000  -0.00824  -0.00820  -1.12032
   D52        1.01960  -0.00038   0.00000  -0.01784  -0.01780   1.00180
   D53        3.06463   0.00012   0.00000  -0.01066  -0.01065   3.05398
   D54       -0.98995   0.00129   0.00000   0.01847   0.01852  -0.97143
   D55       -3.13817   0.00057   0.00000   0.00772   0.00770  -3.13047
   D56        1.08196   0.00071   0.00000   0.01467   0.01471   1.09666
   D57       -3.12912   0.00167   0.00000   0.03185   0.03190  -3.09721
   D58        1.00585   0.00095   0.00000   0.02110   0.02109   1.02694
   D59       -1.05721   0.00110   0.00000   0.02806   0.02809  -1.02912
   D60        1.11632   0.00055   0.00000   0.01849   0.01852   1.13484
   D61       -1.03190  -0.00017   0.00000   0.00774   0.00770  -1.02419
   D62       -3.09496  -0.00002   0.00000   0.01469   0.01471  -3.08025
         Item               Value     Threshold  Converged?
 Maximum Force            0.071937     0.000450     NO 
 RMS     Force            0.007975     0.000300     NO 
 Maximum Displacement     0.226597     0.001800     NO 
[...]
 3,-0.00071991,-0.00032648,0.18370275,0.13894758,-0.00028947,-0.0036665
 2,-0.00243576,0.00023249,-0.00105402,0.00118275,-0.07428993,-0.0366474
 0,-0.01709244,-0.00321490,0.00167289,0.00044833,-0.00053249,-0.0001569
 5,-0.00060775,0.00008276,-0.00011678,-0.00007109,-0.00006278,-0.000026
 83,0.00005882,-0.00015699,0.00018931,-0.00017993,-0.00001438,0.0001635
 4,-0.00003864,0.07789056,0.03911848,0.01842191,0.00241674,0.00512275,0
 .00242908,0.00468511,-0.00175276,-0.01692776,0.00422650,-0.00331986,0.
 00096425,-0.09630993,0.00244576,0.08645123,-0.01212558,0.00123104,0.01
 853371,-0.00164382,0.00401797,-0.00122347,0.00062474,0.00009296,-0.000
 39697,-0.00030637,-0.00334520,-0.00045168,-0.00918179,-0.00065306,0.01
 414487,-0.00024413,-0.00036596,0.00027651,0.10833795,0.00049997,0.0011
 0748,0.00171959,0.00137933,0.00023685,-0.00654958,-0.00051794,0.000019
 49,0.00067171,0.00380194,-0.04532337,-0.00517074,0.01392651,-0.0016255
 3,-0.02220650,0.00282318,-0.00385654,0.00100452,0.00012963,-0.00050650
 ,-0.00002648,-0.00205002,-0.00533133,-0.00021183,-0.01653477,-0.001359
 98,0.02570387,0.00003368,-0.00006516,-0.00000839,-0.00311813,0.0524408
 7,-0.00475565,-0.00607733,0.00820321,0.00997598,0.00116489,-0.04579844
 ,-0.00324454,0.00277486,0.00752154,0.10302729,-0.00379586,-0.20319668,
 -0.00175029,0.00056724,0.00097162,-0.00017925,0.00015658,0.00115710,-0
 .00033578,0.00003722,0.00013920,0.00026061,0.00101437,0.00126133,0.001
 78746,-0.00042999,-0.00374095,-0.00049135,-0.00028001,0.00012197,-0.10
 505054,0.00507210,0.23132488,-0.00029961,0.00143548,-0.00062640,-0.000
 60195,0.00253348,0.00290424,-0.00152103,0.00029895,-0.00102728,-0.0140
 7658,-0.00268986,-0.01973277,-0.12302833,-0.01279588,-0.11393502,0.009
 86037,0.00115239,0.01830451,0.00126256,0.00076989,0.00023997,-0.000042
 53,0.00012192,0.00005496,0.00040004,-0.00113894,-0.00009880,-0.0001198
 9,0.00026641,-0.00016377,-0.00012119,-0.00047495,0.00091643,0.13735046
 ,-0.00050152,0.00193616,-0.00031685,-0.00043368,-0.00546503,-0.0026963
 6,0.00170393,0.00016562,0.00107027,0.01615200,0.00069068,0.02299241,-0
 .01322568,-0.04948555,-0.01504733,-0.00044276,-0.00092572,-0.00067831,
 0.00060066,0.00028928,0.00084343,-0.00002654,-0.00020902,0.00000847,0.
 00040523,0.00162355,0.00071697,0.00029539,-0.00035818,0.00019823,-0.00
 073503,0.00099971,-0.00053213,0.00982153,0.05037031,0.00007449,0.00061
 106,-0.00018036,0.00002289,-0.00007153,0.00201872,-0.00048914,0.000053
 71,-0.00024455,0.00006304,-0.00124157,-0.00194160,-0.11334385,-0.01436
 459,-0.21166636,-0.01511778,-0.00251144,-0.02542855,-0.00156790,-0.000
 85114,0.00064787,0.00023712,0.00015515,0.00003513,0.00002988,-0.000243
 31,-0.00032486,-0.00006716,0.00007105,-0.00001087,-0.00019350,0.000272
 74,0.00114740,0.12358622,0.01779209,0.23647787,-0.00125718,-0.00035093
 ,0.00006252,-0.00028003,0.00139036,-0.00056352,0.00057632,-0.00105880,
 0.00021906,0.01229119,0.01830079,-0.00118920,-0.11751582,-0.12206554,0
 .00724313,-0.01020064,-0.01588328,0.00080095,-0.00169623,0.00116245,0.
 00351089,-0.00018213,0.00018420,0.00020412,-0.00333150,0.00326085,-0.0
 0080067,-0.00006192,0.00008976,-0.00003030,0.00069175,-0.00079839,0.00
 021590,-0.00921204,-0.01330230,0.00071911,0.12899715,-0.00071123,0.003
 50375,-0.00156307,-0.00256031,-0.00327601,-0.00109657,0.00007300,0.000
 57777,0.00018717,-0.01160795,-0.02467240,0.00253192,-0.11945872,-0.240
 10219,0.00999250,0.00156256,0.00196132,0.00019229,0.00036742,0.0011850
 3,-0.00033235,0.00031856,0.00036594,-0.00042502,0.00517355,-0.00255968
 ,-0.00025923,0.00008936,-0.00007009,0.00001373,0.00002891,0.00072899,-
 0.00030309,0.00007205,-0.00051114,-0.00073550,0.12818713,0.26336936,-0
 .00072703,-0.00190593,-0.00069385,0.00062173,0.00246837,-0.00032231,0.
 00009493,-0.00063282,0.00010922,0.00016269,0.00084789,0.00026649,0.004
 51768,0.00637745,-0.04846573,0.01472832,0.02503653,-0.00179932,0.00297
 654,-0.00148712,-0.00479862,0.00010244,-0.00036672,0.00009448,-0.00014
 924,-0.00031728,0.00025176,-0.00004575,0.00011124,0.00000129,-0.000067
 41,-0.00005954,-0.00023685,-0.01321192,-0.02300517,0.00105642,-0.00937
 718,-0.00891880,0.05206972,-0.00052097,-0.00073567,0.00001897,0.000736
 75,0.00057303,0.00020505,-0.00072918,0.00050310,-0.00007165,-0.0010028
 8,-0.00187851,0.00435417,-0.01344349,0.01491781,-0.00277334,-0.1573516
 7,0.12513301,-0.01429491,0.01162864,-0.01457200,0.00123667,-0.00146203
 ,-0.00259037,0.00029099,-0.00014690,-0.00046174,0.00005498,-0.00002336
 ,-0.00002519,0.00007204,-0.00073551,0.00103917,-0.00018439,0.00114773,
 -0.00020727,0.00027867,-0.00000647,-0.00036446,-0.00050609,0.17144653,
 0.00035941,0.00063268,0.00000258,-0.00049542,-0.00048632,0.00004850,0.
 00025148,-0.00010192,0.00002182,-0.00022560,0.00110007,-0.00040195,-0.
 00049488,0.00043688,-0.00008987,0.12363114,-0.18691548,0.01333911,0.02
 031934,-0.02230442,0.00252121,-0.00556879,-0.00387321,0.00037810,-0.00
 037604,0.00050181,0.00042606,-0.00001610,0.00002299,-0.00002919,0.0001
 0895,0.00000502,0.00020689,-0.00008442,-0.00000564,-0.00052612,0.00020
 243,0.00049571,-0.00046445,-0.13589382,0.20646198,-0.00010475,-0.00023
 114,0.00029763,-0.00043692,0.00021089,-0.00085564,-0.00007448,0.000199
 38,0.00050041,0.00223240,0.00179910,-0.00462782,0.01929110,-0.02218236
 ,0.00160412,-0.01485846,0.01425590,-0.04910931,-0.00240028,0.00148458,
 -0.00125705,0.00067426,0.00067617,0.00061409,0.00003518,0.00035107,-0.
 00005203,-0.00002665,-0.00004513,0.00007912,0.00109652,-0.00115415,0.0
 0004463,-0.00091285,-0.00024991,0.00097723,-0.00072282,0.00055505,0.00
 103267,0.01170456,-0.01589831,0.05095166,0.00017705,-0.00147660,-0.000
 08641,-0.00112564,0.00219733,-0.00055887,-0.00006660,-0.00019491,0.000
 20160,0.00097805,0.00010836,0.00005121,0.01120483,0.00278985,0.0170360
 6,-0.12942017,-0.02165822,-0.12307446,-0.01049262,-0.00384454,-0.01296
 219,0.00063234,0.00083218,0.00044915,-0.00009510,-0.00003523,0.0002292
 9,-0.00001026,0.00007220,0.00000272,0.00005544,-0.00022849,-0.00052516
 ,-0.00156749,0.00031204,0.00418798,0.00073224,-0.00015740,-0.00061363,
 -0.01170442,-0.00276231,-0.01557636,0.14080330,-0.00003864,-0.00097169
 ,-0.00032523,0.00118798,0.00100472,0.00050686,-0.00020700,-0.00007153,
 -0.00001745,-0.00076243,-0.00021285,-0.00093351,0.00016351,-0.00003903
 ,0.00060970,-0.01995855,-0.05519999,-0.03123896,-0.01746306,-0.0061669
 4,-0.02451092,-0.00064943,0.00157429,-0.00101697,0.00013421,-0.0002665
 1,-0.00007378,-0.00006695,0.00002623,0.00004522,0.00002769,0.00001193,
 0.00037065,-0.00042682,0.00086077,0.00005210,0.00027799,0.00021566,0.0
 0029543,0.01350443,0.00353010,0.02042478,0.02651569,0.05973045,-0.0000
 5620,0.00069563,0.00047323,-0.00065739,-0.00093256,-0.00006519,-0.0002
 4060,0.00057120,0.00030514,-0.00091344,0.00043067,0.00057344,-0.014052
 57,-0.00363770,-0.02534313,-0.12067831,-0.03308395,-0.22007043,0.00265
 239,0.00089060,0.00329829,0.00022967,-0.00018712,0.00021449,0.00018549
 ,-0.00007812,-0.00000117,-0.00001014,-0.00008769,0.00007982,0.00002521
 ,0.00000431,0.00019689,0.00380043,-0.00010321,-0.00389255,-0.00037266,
 0.00020615,0.00081334,-0.00031461,0.00073346,-0.00076518,0.12990933,0.
 03434055,0.24225810,-0.00033245,-0.00023718,-0.00021172,0.00038948,0.0
 0012543,0.00016289,-0.00027719,0.00008116,-0.00010534,0.00056261,0.000
 08304,-0.00036922,-0.00040278,-0.00378938,-0.00130791,-0.00979968,0.00
 053852,0.01346324,-0.13117674,0.00086139,0.11768251,-0.01305653,-0.000
 20719,0.01828456,-0.00171637,0.00428743,-0.00227572,0.00000820,-0.0000
 3614,0.00000217,0.00003810,-0.00002026,-0.00002069,0.00009808,0.000031
 09,0.00036100,-0.00036716,0.00012321,0.00102609,0.00075899,-0.00012957
 ,-0.00030784,0.00003721,0.00048935,-0.00026175,0.14303544,-0.00004958,
 0.00035615,-0.00011288,0.00009395,-0.00030644,-0.00002879,-0.00007229,
 0.00026891,0.00002118,0.00005072,-0.00067538,0.00004167,-0.00242287,-0
 .00596831,-0.00124010,-0.01732661,0.00067507,0.02584374,0.00093156,-0.
 04552931,-0.00201267,0.01503975,-0.00010250,-0.02271653,0.00321388,-0.
 00442999,0.00190725,-0.00002259,0.00001942,0.00001924,-0.00001788,0.00
 030445,-0.00001848,0.00027329,0.00000229,-0.00008131,-0.00116017,0.000
 11381,0.00154707,0.00103350,0.00091425,0.00003688,0.00051515,0.0011585
 8,-0.00061947,-0.00162721,0.05251158,0.00033651,0.00014538,0.00013351,
 -0.00032567,-0.00003900,-0.00010503,0.00027511,-0.00014405,0.00006199,
 -0.00035648,0.00004358,0.00022014,0.00039235,0.00159592,0.00109605,0.0
 0011767,-0.00060206,-0.00171473,0.11897744,-0.00196573,-0.21839291,-0.
 00258684,0.00035989,0.00204933,0.00007885,-0.00045101,0.00102705,-0.00
 001556,0.00003329,-0.00001538,-0.00002823,-0.00003293,-0.00008487,-0.0
 0023923,-0.00011789,0.00052017,0.00041410,-0.00023751,-0.00020723,-0.0
 0014762,0.00063908,-0.00011206,0.00019466,0.00040391,0.00066852,-0.131
 95016,0.00134846,0.23511963,-0.00005790,-0.00007091,0.00011812,0.00017
 894,-0.00000195,0.00023304,0.00007794,0.00006515,0.00003866,-0.0002764
 0,0.00002315,0.00019700,0.00035227,0.00064043,-0.00150203,-0.01079642,
 -0.00286957,-0.01365876,-0.13372380,-0.01770350,-0.11288450,-0.0145054
 7,-0.00180299,-0.01840254,0.00071398,-0.00100130,-0.00147584,0.0000283
 2,-0.00002373,0.00001134,-0.00016965,-0.00000421,0.00024601,-0.0000989
 1,-0.00007489,0.00086549,0.00025019,-0.00000797,0.00028083,0.00082287,
 -0.00004519,0.00046188,-0.00049037,-0.00337174,0.00057193,0.01147665,0
 .00232707,0.01437373,0.14687839,0.00013989,0.00050243,-0.00001090,-0.0
 0015948,-0.00034744,0.00005996,-0.00010841,0.00015510,0.00001649,0.000
 06276,-0.00023174,0.00004215,0.00107598,0.00125587,-0.00134446,-0.0197
 1133,-0.00604984,-0.02477949,-0.01779950,-0.04801213,-0.02363013,0.017
 49814,0.00145396,0.02193343,-0.00106406,0.00103089,0.00091114,-0.00003
 100,-0.00002100,0.00001585,-0.00003940,0.00009735,-0.00001910,0.000199
 35,0.00014850,0.00092838,0.00038718,-0.00009564,0.00007568,0.00089471,
 0.00091814,-0.00013811,-0.00283531,-0.00505818,0.00131567,-0.00000131,
 -0.00095022,-0.00021101,0.01941981,0.05821198,-0.00004834,-0.00009804,
 -0.00001434,0.00019247,0.00007426,0.00034844,-0.00001818,0.00005892,-0
 .00002817,-0.00021635,0.00000555,-0.00009294,0.00071808,0.00030570,0.0
 0091055,0.00105899,-0.00023835,0.00085251,-0.11432492,-0.02385253,-0.2
 0408188,-0.00197403,0.00036487,-0.00289028,0.00080850,-0.00013160,0.00
 075737,-0.00000145,-0.00002745,-0.00000108,-0.00015440,-0.00001532,0.0
 0015946,-0.00052070,0.00006564,0.00043023,-0.00000370,-0.00010688,0.00
 023186,0.00003837,-0.00080988,0.00024650,0.00097940,0.00008365,0.00128
 428,-0.01525077,-0.00311243,-0.02142979,0.12877075,0.02569564,0.221061
 61,-0.00079573,-0.00112270,-0.00009527,0.00098557,0.00032919,0.0003742
 6,-0.00047428,0.00047597,0.00005817,-0.00177815,0.00187501,0.00377463,
 -0.00026086,0.00033792,0.00009807,-0.00316509,0.00271851,-0.00011728,0
 .01151956,0.02123931,-0.00132993,-0.11059459,-0.11040325,0.00458247,-0
 .01023512,-0.01775936,-0.00035178,-0.00001371,-0.00005011,0.00004915,-
 0.00046974,-0.00116490,0.00006089,0.00010586,-0.00005771,0.00000404,0.
 00007273,-0.00013018,-0.00012891,0.00050361,0.00127927,-0.00014522,-0.
 00008417,0.00014759,0.00010190,0.00091109,-0.00099907,0.00015988,0.000
 98488,-0.00090259,0.00002618,0.12058261,-0.00060000,-0.00060143,0.0000
 3514,0.00074243,0.00013591,-0.00011265,-0.00049520,0.00049741,0.000077
 60,-0.00006547,0.00110906,0.00027104,0.00026609,0.00047112,-0.00048244
 ,0.00577853,-0.00233793,0.00019477,-0.01390228,-0.02204191,0.00071515,
 -0.10890861,-0.23440930,0.01062591,0.00083287,0.00103921,-0.00052427,-
 0.00001553,-0.00005331,0.00005332,-0.00003984,-0.00005476,-0.00022823,
 0.00004680,-0.00001095,0.00016150,-0.00008277,0.00007014,0.00003276,-0
 .00084811,-0.00164060,0.00035664,0.00008873,0.00035276,-0.00012347,0.0
 0013322,0.00057696,-0.00076776,0.00010640,0.00091600,0.00070968,0.1187
 2059,0.25812763,-0.00021027,-0.00050947,0.00057751,-0.00026592,0.00016
 763,-0.00077124,-0.00010376,0.00014036,0.00026924,0.00246673,-0.002400
 07,-0.00425444,0.00004624,-0.00044945,0.00010851,-0.00022436,-0.000033
 73,0.00068221,0.00037615,0.00194841,-0.00115853,0.00385464,0.00946838,
 -0.04791787,0.01443247,0.02526826,-0.00210446,0.00001146,-0.00000938,0
 .00004336,0.00088550,0.00136725,-0.00019144,-0.00004074,0.00001304,-0.
 00003121,-0.00010671,0.00002431,0.00006434,0.00007174,-0.00001515,0.00
 028197,0.00014613,0.00037258,0.00005423,-0.00028862,-0.00023551,0.0000
 1263,0.00042744,0.00009053,0.00011603,-0.00855621,-0.01162141,0.049722
 82,0.00011273,0.00000786,0.00014109,-0.00118716,-0.00091381,-0.0004512
 0,-0.00024249,0.00045129,0.00028226,0.00088390,-0.00008285,-0.00026925
 ,-0.00011126,0.00008031,0.00016741,0.00066010,-0.00102661,0.00048320,-
 0.01428504,-0.00023522,-0.01823970,-0.12636307,-0.01337670,-0.12258750
 ,0.01138614,0.00228267,0.01774093,-0.00009336,0.00003822,-0.00001105,-
 0.00001990,0.00013985,-0.00061684,-0.00005579,0.00000674,0.00007113,0.
 00003004,-0.00002490,-0.00003392,-0.00003843,-0.00010965,0.00021605,0.
 00050918,0.00042822,0.00009015,0.00030799,-0.00066626,0.00035113,-0.00
 189886,0.00362233,0.00035943,-0.00882742,-0.00145378,-0.01141945,0.140
 21204,0.00033106,0.00009930,0.00010806,-0.00143374,-0.00001083,-0.0003
 2340,0.00015227,-0.00041364,0.00017126,0.00076197,-0.00003165,0.000854
 40,-0.00008838,-0.00022353,0.00014342,0.00052055,0.00167120,0.00085690
 ,0.01571400,0.00102366,0.02231074,-0.01484801,-0.05128023,-0.02050576,
 0.00007862,-0.00021036,-0.00138033,0.00001421,0.00003445,-0.00004397,-
 0.00002990,-0.00000918,-0.00048152,0.00001089,-0.00002073,-0.00019550,
 -0.00004146,-0.00001951,0.00002636,-0.00021065,0.00025339,-0.00037311,
 -0.00024211,-0.00048788,-0.00036724,-0.00073113,0.00097503,-0.00039292
 ,0.00407439,-0.00380335,0.00097526,-0.01517030,-0.00283252,-0.02315505
 ,0.01090498,0.05429692,-0.00037114,-0.00092985,0.00043982,-0.00022584,
 0.00056395,0.00008158,0.00019669,0.00000309,0.00026050,-0.00114108,-0.
 00065587,0.00030974,0.00019822,0.00014977,-0.00000304,0.00009344,-0.00
 005225,0.00006830,-0.00029660,-0.00000546,-0.00070103,-0.12069503,-0.0
 1820559,-0.22466329,-0.01368322,-0.00303894,-0.02508267,0.00002644,-0.
 00004466,0.00005908,0.00005013,0.00005586,0.00027489,0.00007163,-0.000
 13674,0.00009572,-0.00007141,0.00012397,-0.00002014,0.00010170,0.00012
 368,0.00009095,0.00005430,0.00041040,-0.00011876,-0.00024141,0.0004818
 7,0.00069294,0.00007860,-0.00028023,0.00137214,0.00199059,-0.00052031,
 0.00266463,0.13028560,0.02209067,0.24703415,0.00029398,0.00097352,0.00
 021982,0.00053824,-0.00072555,-0.00051436,-0.00240484,-0.00071330,-0.0
 0075862,0.01162486,-0.01126432,0.00129724,-0.00144169,-0.00317267,-0.0
 0004916,-0.00005779,-0.00027337,0.00010463,-0.00145034,-0.00119919,0.0
 0385834,-0.01302132,0.01357889,-0.00196875,-0.16797408,0.13432402,-0.0
 1638779,-0.00007713,-0.00012977,0.00015392,0.00051003,0.00080828,0.000
 05119,-0.00005654,0.00000594,0.00006254,0.00058704,-0.00090505,0.00008
 571,0.00003619,0.00006225,-0.00010652,0.00002019,0.00006210,-0.0000361
 1,-0.00062935,0.00116608,0.00020624,0.00034346,-0.00034717,0.00002966,
 -0.00001390,-0.00042177,-0.00053601,0.00081464,-0.00022870,-0.00017975
 ,0.18374063,-0.00050184,0.00082469,-0.00020188,0.00274327,-0.00120693,
 0.00056815,-0.00032053,0.00188338,0.00036543,0.01941824,-0.02356057,0.
 00204629,-0.00509284,-0.00416404,0.00076130,-0.00038357,0.00037637,0.0
 0042775,-0.00037903,0.00112715,0.00001268,-0.00126089,0.00063759,-0.00
 041465,0.13149297,-0.18666002,0.01684108,-0.00020888,0.00033970,0.0002
 6798,-0.00006178,0.00090384,0.00020126,0.00005787,0.00024751,0.0002043
 1,0.00141151,-0.00152162,-0.00003649,0.00011030,0.00008515,-0.00005142
 ,0.00002466,-0.00002542,-0.00013155,-0.00003317,0.00009808,0.00024595,
 0.00012467,-0.00011441,0.00014934,0.00022015,0.00046515,-0.00061104,0.
 00022330,0.00011291,-0.00017084,-0.14267027,0.20527879,0.00015322,0.00
 048311,0.00000519,0.00032318,-0.00082155,-0.00028986,-0.00123540,-0.00
 012972,-0.00048843,-0.00239887,0.00237795,0.00002270,0.00069312,0.0009
 7961,0.00023733,0.00010379,0.00036018,-0.00002407,0.00283188,0.0011633
 4,-0.00482666,0.01961317,-0.02167861,0.00210210,-0.01875175,0.01942149
 ,-0.05075358,-0.00001153,0.00007572,-0.00000903,-0.00014867,-0.0000980
 7,-0.00026475,0.00036221,-0.00037858,0.00020921,-0.00021499,0.00033513
 ,0.00038129,-0.00015538,-0.00006138,0.00006264,-0.00004014,-0.00002957
 ,0.00000421,0.00129372,-0.00130221,-0.00000071,0.00030082,0.00000151,0
 .00019959,-0.00063931,0.00045429,0.00103434,-0.00063105,-0.00027707,0.
 00101118,0.01608601,-0.02056729,0.05409918,-0.00124701,-0.00085190,-0.
 00113775,0.00068103,-0.00255491,0.00318275,-0.00053166,-0.00039506,-0.
 00042289,-0.01051131,-0.00240063,-0.01477686,0.00039728,0.00092433,-0.
 00001972,-0.00004270,-0.00004429,0.00010605,0.00153788,-0.00048157,0.0
 0041609,0.00959737,0.00391508,0.01838419,-0.11970525,-0.02047091,-0.11
 011421,0.00019237,-0.00022236,-0.00000760,-0.00025876,0.00033052,0.000
 61273,0.00057679,-0.00032716,0.00021572,-0.00011754,-0.00006757,0.0002
 6412,0.00008402,-0.00001247,-0.00003880,-0.00009297,0.00000586,0.00002
 729,0.00013442,-0.00028044,-0.00022788,-0.00009010,-0.00030060,-0.0004
 6899,0.00104684,0.00011770,-0.00096643,-0.00179398,0.00046143,0.003758
 16,-0.01138229,-0.00491413,-0.01753403,0.13152556,-0.00225436,-0.00072
 344,-0.00177113,0.00120844,-0.00546814,0.00405109,0.00007671,0.0009367
 1,-0.00009008,-0.01749217,-0.00625437,-0.02577875,-0.00065194,0.001645
 50,-0.00110679,0.00009175,-0.00023717,0.00003999,-0.00059840,0.0000114
 5,-0.00066319,-0.00003597,-0.00060069,0.00067092,-0.02018636,-0.054803
 16,-0.03504886,-0.00007305,0.00005302,-0.00000775,0.00040278,0.0012763
 6,0.00059968,0.00055057,-0.00034242,0.00051996,-0.00011101,0.00024078,
 0.00037553,0.00007870,-0.00003059,-0.00002680,-0.00002108,0.00003452,0
 .00016384,0.00005872,-0.00001241,0.00014641,0.00019689,-0.00000625,-0.
 00009602,0.00041665,0.00022138,0.00017950,-0.00029599,0.00087656,0.000
 03748,0.01107006,0.00487270,0.01969172,0.02756906,0.05830966,-0.000231
 85,-0.00023782,0.00029654,0.00011479,0.00029067,0.00061954,-0.00012869
 ,-0.00001965,-0.00001669,0.00249727,0.00199590,0.00221750,0.00015766,-
 0.00004560,-0.00016955,0.00024768,-0.00005337,0.00006707,-0.00154126,0
 .00055068,0.00066008,-0.01464517,-0.00452297,-0.02506309,-0.10926004,-
 0.03545133,-0.20927043,0.00010814,-0.00005060,-0.00003448,-0.00021438,
 -0.00033842,0.00098984,0.00026888,-0.00043806,0.00010493,0.00006338,-0
 .00018420,0.00017117,0.00002008,-0.00014419,-0.00000454,-0.00000459,0.
 00023057,0.00003243,0.00031497,0.00023302,0.00046076,0.00094802,-0.000
 67302,0.00056793,0.00008370,0.00069275,0.00079736,0.00407159,-0.000041
 22,-0.00386668,-0.00161822,0.00009362,-0.00271187,0.11874805,0.0381132
 6,0.23415217\\0.00005559,0.00012349,-0.00000194,0.00006259,-0.00028902
 ,-0.00000228,-0.00011214,0.00015032,0.00001607,-0.00001882,-0.00000785
 ,-0.00001023,-0.00001256,0.00000995,0.00000414,0.00000599,-0.00000213,
 -0.00000352,-0.00000264,0.00000763,-0.00000717,0.00000294,-0.00000316,
 0.00000555,0.00000398,0.00000833,-0.00000927,0.00000906,-0.00000566,-0
 .00000469,0.00001303,0.00000643,0.00001125,0.00000003,0.00000097,-0.00
 000264,0.00000458,-0.00000935,-0.00000199,-0.00000047,0.,-0.00000022,-
 0.00000102,0.00000096,-0.00000104,0.00000265,0.00000146,-0.00000056,-0
 .00000160,0.00000112,0.00000203,-0.00000289,0.00000397,0.00000458,-0.0
 0000285,0.00000251,-0.00000076,-0.00000423,0.00000078,0.00000139,-0.00
 000124,-0.00000073,0.00000131\\\@
 The archive entry for this job was punched.


 REVOLUTIONS HAVE NEVER LIGHTENED THE BURDEN OF TYRANNY:
 THEY HAVE MERELY SHIFTED IT TO OTHER SHOULDERS.
                                   -- G. B. SHAW (1903)
 Job cpu time:       0 days  3 hours 54 minutes 38.5 seconds.
 Elapsed time:       0 days  0 hours 29 minutes 33.9 seconds.
 File lengths (MBytes):  RWF=    402 Int=      0 D2E=      0 Chk=     15 Scr=      1
 Normal termination of Gaussian 16 at Mon Jan 29 14:03:23 2024.
