Job Start Time: Mon Jan 29 12:53:47 MST 2024
SLURM Job ID: 229722
SLURM Job Name: Ac7_rdkit_conf_2_AD_IE
 Entering Gaussian System, Link 0=/opt/apps/Gaussian/G16C/g16/g16
 Initial command:
 /opt/apps/Gaussian/G16C/g16/l1.exe "/tmp/Gau-1464757.inp" -scrdir="/tmp/"
 Entering Link 1 = /opt/apps/Gaussian/G16C/g16/l1.exe PID=   1464761.
  
 Copyright (c) 1988-2019, Gaussian, Inc.  All Rights Reserved.
  
 This is part of the Gaussian(R) 16 program.  It is based on
 the Gaussian(R) 09 system (copyright 2009, Gaussian, Inc.),
 the Gaussian(R) 03 system (copyright 2003, Gaussian, Inc.),
 the Gaussian(R) 98 system (copyright 1998, Gaussian, Inc.),
 the Gaussian(R) 94 system (copyright 1995, Gaussian, Inc.),
 the Gaussian 92(TM) system (copyright 1992, Gaussian, Inc.),
 the Gaussian 90(TM) system (copyright 1990, Gaussian, Inc.),
 the Gaussian 88(TM) system (copyright 1988, Gaussian, Inc.),
 the Gaussian 86(TM) system (copyright 1986, Carnegie Mellon
 University), and the Gaussian 82(TM) system (copyright 1983,
 Carnegie Mellon University). Gaussian is a federally registered
 trademark of Gaussian, Inc.
  
 This software contains proprietary and confidential information,
 including trade secrets, belonging to Gaussian, Inc.
  
 This software is provided under written license and may be
 used, copied, transmitted, or stored only in accord with that
 written license.
  
 The following legend is applicable only to US Government
 contracts under FAR:
  
                    RESTRICTED RIGHTS LEGEND
  
 Use, reproduction and disclosure by the US Government is
 subject to restrictions as set forth in subparagraphs (a)
 and (c) of the Commercial Computer Software - Restricted
 Rights clause in FAR 52.227-19.
  
 Gaussian, Inc.
 340 Quinnipiac St., Bldg. 40, Wallingford CT 06492
  
  
 ---------------------------------------------------------------
 Warning -- This program may not be used in any manner that
 competes with the business of Gaussian, Inc. or will provide
 assistance to any competitor of Gaussian, Inc.  The licensee
 of this program is prohibited from giving any competitor of
 Gaussian, Inc. access to this program.  By using this program,
 the user acknowledges that Gaussian, Inc. is engaged in the
 business of creating and licensing software in the field of
 computational chemistry and represents and warrants to the
 licensee that it is not a competitor of Gaussian, Inc. and that
 it will not use this program in any manner prohibited above.
 ---------------------------------------------------------------
  

 Cite this work as:
 Gaussian 16, Revision C.01,
 M. J. Frisch, G. W. Trucks, H. B. Schlegel, G. E. Scuseria, 
 M. A. Robb, J. R. Cheeseman, G. Scalmani, V. Barone, 
 G. A. Petersson, H. Nakatsuji, X. Li, M. Caricato, A. V. Marenich, 
 J. Bloino, B. G. Janesko, R. Gomperts, B. Mennucci, H. P. Hratchian, 
 J. V. Ortiz, A. F. Izmaylov, J. L. Sonnenberg, D. Williams-Young, 
 F. Ding, F. Lipparini, F. Egidi, J. Goings, B. Peng, A. Petrone, 
 T. Henderson, D. Ranasinghe, V. G. Zakrzewski, J. Gao, N. Rega, 
 G. Zheng, W. Liang, M. Hada, M. Ehara, K. Toyota, R. Fukuda, 
 J. Hasegawa, M. Ishida, T. Nakajima, Y. Honda, O. Kitao, H. Nakai, 
 T. Vreven, K. Throssell, J. A. Montgomery, Jr., J. E. Peralta, 
 F. Ogliaro, M. J. Bearpark, J. J. Heyd, E. N. Brothers, K. N. Kudin, 
 V. N. Staroverov, T. A. Keith, R. Kobayashi, J. Normand, 
 K. Raghavachari, A. P. Rendell, J. C. Burant, S. S. Iyengar, 
 J. Tomasi, M. Cossi, J. M. Millam, M. Klene, C. Adamo, R. Cammi, 
 J. W. Ochterski, R. L. Martin, K. Morokuma, O. Farkas, 
 J. B. Foresman, and D. J. Fox, Gaussian, Inc., Wallingford CT, 2019.
 
 ******************************************
 Gaussian 16:  AS64L-G16RevC.01  3-Jul-2019
                29-Jan-2024 
 ******************************************
 %nprocshared=8
 Will use up to    8 processors via shared memory.
 %mem=16GB
 ---------------------------------
 # m062x/def2tzvp opt freq=noraman
 ---------------------------------
 1/18=20,19=15,26=3,38=1/1,3;
 2/9=110,12=2,17=6,18=5,40=1/2;
 3/5=44,7=101,11=2,25=1,30=1,71=1,74=-55/1,2,3;
 4//1;
 5/5=2,38=5/2;
 6/7=2,8=2,9=2,10=2,28=1/1;
 7//1,2,3,16;
 1/18=20,19=15,26=3/3(2);
 2/9=110/2;
 99//99;
 2/9=110/2;
 3/5=44,7=101,11=2,25=1,30=1,71=1,74=-55/1,2,3;
 4/5=5,16=3,69=1/1;
 5/5=2,38=5/2;
 7//1,2,3,16;
 1/18=20,19=15,26=3/3(-5);
 2/9=110/2;
 6/7=2,8=2,9=2,10=2,19=2,28=1/1;
 99/9=1/99;
 ----------------------
 Ac7_rdkit_conf_2_AD_IE
 ----------------------
 Symbolic Z-matrix:
 Charge =  1 Multiplicity = 2
 O                    -2.28437  -0.99799   0.69211 
 C                    -1.80866  -0.13873   0.00369 
 O                    -2.55396   0.86296  -0.50763 
 C                    -0.35582  -0.00734  -0.37273 
 C                     0.41134  -1.29277  -0.08242 
 C                     1.88856  -1.13551  -0.43229 
 C                     2.50973   0.04594   0.30901 
 C                     1.74037   1.33411   0.0277 
 C                     0.26167   1.1863    0.37588 
 H                    -3.46099   0.7279   -0.19784 
 H                    -0.32048   0.21614  -1.44461 
 H                    -0.03335  -2.1239   -0.63208 
 H                     0.30179  -1.52919   0.97953 
 H                     1.99139  -0.97658  -1.5113 
 H                     2.42544  -2.05619  -0.1975 
 H                     3.55792   0.16291   0.02769 
 H                     2.48967  -0.15579   1.38525 
 H                     1.83354   1.5854   -1.03423 
 H                     2.17005   2.16627   0.58841 
 H                     0.15511   1.0134    1.4523 
 H                    -0.28662   2.09786   0.1355 
 

 GradGradGradGradGradGradGradGradGradGradGradGradGradGradGradGradGradGrad
 Berny optimization.
 Initialization pass.
                           ----------------------------
                           !    Initial Parameters    !
                           ! (Angstroms and Degrees)  !
 --------------------------                            --------------------------
 ! Name  Definition              Value          Derivative Info.                !
 --------------------------------------------------------------------------------
 ! R1    R(1,2)                  1.1994         estimate D2E/DX2                !
 ! R2    R(2,3)                  1.3492         estimate D2E/DX2                !
 ! R3    R(2,4)                  1.5065         estimate D2E/DX2                !
 ! R4    R(3,10)                 0.9679         estimate D2E/DX2                !
 ! R5    R(4,5)                  1.5248         estimate D2E/DX2                !
 ! R6    R(4,9)                  1.5383         estimate D2E/DX2                !
 ! R7    R(4,11)                 1.0955         estimate D2E/DX2                !
 ! R8    R(5,6)                  1.5262         estimate D2E/DX2                !
 ! R9    R(5,12)                 1.0912         estimate D2E/DX2                !
 ! R10   R(5,13)                 1.0935         estimate D2E/DX2                !
 ! R11   R(6,7)                  1.5268         estimate D2E/DX2                !
 ! R12   R(6,14)                 1.0955         estimate D2E/DX2                !
 ! R13   R(6,15)                 1.0913         estimate D2E/DX2                !
 ! R14   R(7,8)                  1.5266         estimate D2E/DX2                !
 ! R15   R(7,16)                 1.0916         estimate D2E/DX2                !
 ! R16   R(7,17)                 1.0952         estimate D2E/DX2                !
 ! R17   R(8,9)                  1.5263         estimate D2E/DX2                !
 ! R18   R(8,18)                 1.0952         estimate D2E/DX2                !
 ! R19   R(8,19)                 1.0916         estimate D2E/DX2                !
 ! R20   R(9,20)                 1.0954         estimate D2E/DX2                !
 ! R21   R(9,21)                 1.0906         estimate D2E/DX2                !
 ! A1    A(1,2,3)              122.0269         estimate D2E/DX2                !
 ! A2    A(1,2,4)              126.0415         estimate D2E/DX2                !
 ! A3    A(3,2,4)              111.9179         estimate D2E/DX2                !
 ! A4    A(2,3,10)             107.0237         estimate D2E/DX2                !
 ! A5    A(2,4,5)              111.3514         estimate D2E/DX2                !
 ! A6    A(2,4,9)              109.4613         estimate D2E/DX2                !
 ! A7    A(2,4,11)             107.0598         estimate D2E/DX2                !
 ! A8    A(5,4,9)              111.0694         estimate D2E/DX2                !
 ! A9    A(5,4,11)             110.0            estimate D2E/DX2                !
 ! A10   A(9,4,11)             107.7526         estimate D2E/DX2                !
 ! A11   A(4,5,6)              110.883          estimate D2E/DX2                !
 ! A12   A(4,5,12)             109.9475         estimate D2E/DX2                !
 ! A13   A(4,5,13)             108.4678         estimate D2E/DX2                !
 ! A14   A(6,5,12)             110.9441         estimate D2E/DX2                !
 ! A15   A(6,5,13)             109.9914         estimate D2E/DX2                !
 ! A16   A(12,5,13)            106.4811         estimate D2E/DX2                !
 ! A17   A(5,6,7)              111.2356         estimate D2E/DX2                !
 ! A18   A(5,6,14)             109.3654         estimate D2E/DX2                !
 ! A19   A(5,6,15)             109.8718         estimate D2E/DX2                !
 ! A20   A(7,6,14)             109.133          estimate D2E/DX2                !
 ! A21   A(7,6,15)             110.3774         estimate D2E/DX2                !
 ! A22   A(14,6,15)            106.7453         estimate D2E/DX2                !
 ! A23   A(6,7,8)              111.0052         estimate D2E/DX2                !
 ! A24   A(6,7,16)             110.3928         estimate D2E/DX2                !
 ! A25   A(6,7,17)             109.095          estimate D2E/DX2                !
 ! A26   A(8,7,16)             110.245          estimate D2E/DX2                !
 ! A27   A(8,7,17)             109.1048         estimate D2E/DX2                !
 ! A28   A(16,7,17)            106.8935         estimate D2E/DX2                !
 ! A29   A(7,8,9)              111.3766         estimate D2E/DX2                !
 ! A30   A(7,8,18)             109.233          estimate D2E/DX2                !
 ! A31   A(7,8,19)             110.5031         estimate D2E/DX2                !
 ! A32   A(9,8,18)             109.015          estimate D2E/DX2                !
 ! A33   A(9,8,19)             109.7556         estimate D2E/DX2                !
 ! A34   A(18,8,19)            106.8376         estimate D2E/DX2                !
 ! A35   A(4,9,8)              110.6719         estimate D2E/DX2                !
 ! A36   A(4,9,20)             108.4624         estimate D2E/DX2                !
 ! A37   A(4,9,21)             109.8461         estimate D2E/DX2                !
 ! A38   A(8,9,20)             109.4931         estimate D2E/DX2                !
 ! A39   A(8,9,21)             110.8447         estimate D2E/DX2                !
 ! A40   A(20,9,21)            107.4346         estimate D2E/DX2                !
 ! D1    D(1,2,3,10)             0.7623         estimate D2E/DX2                !
 ! D2    D(4,2,3,10)          -177.9682         estimate D2E/DX2                !
 ! D3    D(1,2,4,5)             14.8685         estimate D2E/DX2                !
 ! D4    D(1,2,4,9)           -108.3281         estimate D2E/DX2                !
 ! D5    D(1,2,4,11)           135.1394         estimate D2E/DX2                !
 ! D6    D(3,2,4,5)           -166.4626         estimate D2E/DX2                !
 ! D7    D(3,2,4,9)             70.3407         estimate D2E/DX2                !
 ! D8    D(3,2,4,11)           -46.1917         estimate D2E/DX2                !
 ! D9    D(2,4,5,6)           -178.4689         estimate D2E/DX2                !
 ! D10   D(2,4,5,12)            58.474          estimate D2E/DX2                !
 ! D11   D(2,4,5,13)           -57.5916         estimate D2E/DX2                !
 ! D12   D(9,4,5,6)            -56.1958         estimate D2E/DX2                !
 ! D13   D(9,4,5,12)          -179.2529         estimate D2E/DX2                !
 ! D14   D(9,4,5,13)            64.6815         estimate D2E/DX2                !
 ! D15   D(11,4,5,6)            63.0097         estimate D2E/DX2                !
 ! D16   D(11,4,5,12)          -60.0474         estimate D2E/DX2                !
 ! D17   D(11,4,5,13)         -176.113          estimate D2E/DX2                !
 ! D18   D(2,4,9,8)            179.281          estimate D2E/DX2                !
 ! D19   D(2,4,9,20)            59.15           estimate D2E/DX2                !
 ! D20   D(2,4,9,21)           -58.0            estimate D2E/DX2                !
 ! D21   D(5,4,9,8)             55.9176         estimate D2E/DX2                !
 ! D22   D(5,4,9,20)           -64.2134         estimate D2E/DX2                !
 ! D23   D(5,4,9,21)           178.6366         estimate D2E/DX2                !
 ! D24   D(11,4,9,8)           -64.6258         estimate D2E/DX2                !
 ! D25   D(11,4,9,20)          175.2432         estimate D2E/DX2                !
 ! D26   D(11,4,9,21)           58.0932         estimate D2E/DX2                !
 ! D27   D(4,5,6,7)             56.213          estimate D2E/DX2                !
 ! D28   D(4,5,6,14)           -64.4046         estimate D2E/DX2                !
 ! D29   D(4,5,6,15)           178.7382         estimate D2E/DX2                !
 ! D30   D(12,5,6,7)           178.6928         estimate D2E/DX2                !
 ! D31   D(12,5,6,14)           58.0752         estimate D2E/DX2                !
 ! D32   D(12,5,6,15)          -58.782          estimate D2E/DX2                !
 ! D33   D(13,5,6,7)           -63.7593         estimate D2E/DX2                !
 ! D34   D(13,5,6,14)          175.6231         estimate D2E/DX2                !
 ! D35   D(13,5,6,15)           58.7659         estimate D2E/DX2                !
 ! D36   D(5,6,7,8)            -55.8522         estimate D2E/DX2                !
 ! D37   D(5,6,7,16)          -178.4129         estimate D2E/DX2                !
 ! D38   D(5,6,7,17)            64.4082         estimate D2E/DX2                !
 ! D39   D(14,6,7,8)            64.9021         estimate D2E/DX2                !
 ! D40   D(14,6,7,16)          -57.6586         estimate D2E/DX2                !
 ! D41   D(14,6,7,17)         -174.8375         estimate D2E/DX2                !
 ! D42   D(15,6,7,8)          -178.0853         estimate D2E/DX2                !
 ! D43   D(15,6,7,16)           59.354          estimate D2E/DX2                !
 ! D44   D(15,6,7,17)          -57.8249         estimate D2E/DX2                !
 ! D45   D(6,7,8,9)             55.7723         estimate D2E/DX2                !
 ! D46   D(6,7,8,18)           -64.7006         estimate D2E/DX2                !
 ! D47   D(6,7,8,19)           178.0417         estimate D2E/DX2                !
 ! D48   D(16,7,8,9)           178.4186         estimate D2E/DX2                !
 ! D49   D(16,7,8,18)           57.9457         estimate D2E/DX2                !
 ! D50   D(16,7,8,19)          -59.312          estimate D2E/DX2                !
 ! D51   D(17,7,8,9)           -64.4823         estimate D2E/DX2                !
 ! D52   D(17,7,8,18)          175.0448         estimate D2E/DX2                !
 ! D53   D(17,7,8,19)           57.787          estimate D2E/DX2                !
 ! D54   D(7,8,9,4)            -55.6619         estimate D2E/DX2                !
 ! D55   D(7,8,9,20)            63.8507         estimate D2E/DX2                !
 ! D56   D(7,8,9,21)          -177.798          estimate D2E/DX2                !
 ! D57   D(18,8,9,4)            64.9391         estimate D2E/DX2                !
 ! D58   D(18,8,9,20)         -175.5483         estimate D2E/DX2                !
 ! D59   D(18,8,9,21)          -57.1969         estimate D2E/DX2                !
 ! D60   D(19,8,9,4)          -178.3616         estimate D2E/DX2                !
 ! D61   D(19,8,9,20)          -58.849          estimate D2E/DX2                !
 ! D62   D(19,8,9,21)           59.5023         estimate D2E/DX2                !
 --------------------------------------------------------------------------------
 Trust Radius=3.00D-01 FncErr=1.00D-07 GrdErr=1.00D-06 EigMax=2.50D+02 EigMin=1.00D-04
 Number of steps in this run=    126 maximum allowed number of steps=    126.
 GradGradGradGradGradGradGradGradGradGradGradGradGradGradGradGradGradGrad

                          Input orientation:                          
 ---------------------------------------------------------------------
 Center     Atomic      Atomic             Coordinates (Angstroms)
 Number     Number       Type             X           Y           Z
 ---------------------------------------------------------------------
      1          8           0       -2.284366   -0.997988    0.692113
      2          6           0       -1.808657   -0.138727    0.003687
      3          8           0       -2.553958    0.862956   -0.507628
      4          6           0       -0.355824   -0.007343   -0.372733
      5          6           0        0.411337   -1.292765   -0.082422
      6          6           0        1.888563   -1.135513   -0.432287
      7          6           0        2.509726    0.045943    0.309010
      8          6           0        1.740370    1.334113    0.027700
      9          6           0        0.261671    1.186296    0.375879
     10          1           0       -3.460985    0.727903   -0.197844
     11          1           0       -0.320483    0.216136   -1.444614
     12          1           0       -0.033349   -2.123896   -0.632078
     13          1           0        0.301790   -1.529193    0.979532
     14          1           0        1.991394   -0.976580   -1.511303
     15          1           0        2.425441   -2.056188   -0.197499
     16          1           0        3.557923    0.162912    0.027689
     17          1           0        2.489666   -0.155792    1.385254
     18          1           0        1.833537    1.585403   -1.034230
     19          1           0        2.170049    2.166274    0.588412
     20          1           0        0.155110    1.013402    1.452297
     21          1           0       -0.286615    2.097860    0.135496
 ---------------------------------------------------------------------
                    Distance matrix (angstroms):
                    1          2          3          4          5
     1  O    0.000000
     2  C    1.199399   0.000000
     3  O    2.230509   1.349180   0.000000
     4  C    2.415481   1.506545   2.367997   0.000000
     5  C    2.820215   2.503516   3.690651   1.524836   0.000000
     6  C    4.323948   3.853971   4.871914   2.512685   1.526214
     7  C    4.921370   4.333100   5.193775   2.946013   2.519642
     8  C    4.698791   3.842581   4.353139   2.520690   2.946005
     9  C    3.369481   2.486055   2.968653   1.538341   2.525507
    10  H    2.270497   1.876659   0.967938   3.195809   4.369359
    11  H    3.145876   2.106695   2.506936   1.095500   2.160535
    12  H    2.843981   2.738031   3.910274   2.156629   1.091167
    13  H    2.655747   2.709180   4.011149   2.139417   1.093456
    14  H    4.810158   4.175833   5.005145   2.783019   2.153661
    15  H    4.908511   4.652388   5.780311   3.458888   2.157005
    16  H    5.993454   5.375104   6.175088   3.937860   3.468735
    17  H    4.897052   4.514931   5.482608   3.348040   2.786796
    18  H    5.158614   4.161187   4.477650   2.787063   3.348499
    19  H    5.464899   4.635195   5.021572   3.468205   3.938024
    20  H    3.251863   2.698565   3.347087   2.152605   2.781981
    21  H    3.726272   2.708562   2.660722   2.166787   3.468568
                    6          7          8          9         10
     6  C    0.000000
     7  C    1.526828   0.000000
     8  C    2.516466   1.526573   0.000000
     9  C    2.948000   2.521632   1.526312   0.000000
    10  H    5.669651   6.030867   5.241417   3.794397   0.000000
    11  H    2.780584   3.333803   2.768519   2.143434   3.417469
    12  H    2.170383   3.472906   3.941981   3.472807   4.479956
    13  H    2.160108   2.793857   3.342756   2.782065   4.543036
    14  H    1.095495   2.151223   2.787624   3.351333   5.861644
    15  H    1.091332   2.163934   3.466147   3.940097   6.511618
    16  H    2.164312   1.091577   2.162224   3.468981   7.045222
    17  H    2.150496   1.095171   2.150399   2.789982   6.220720
    18  H    2.787247   2.152083   1.095227   2.149059   5.428334
    19  H    3.467399   2.165467   1.091565   2.155791   5.864781
    20  H    3.342806   2.790573   2.155315   1.095410   3.985049
    21  H    3.938080   3.472750   2.168778   1.090573   3.473402
                   11         12         13         14         15
    11  H    0.000000
    12  H    2.493674   0.000000
    13  H    3.051210   1.750222   0.000000
    14  H    2.602267   2.487761   3.060131   0.000000
    15  H    3.776089   2.497817   2.484556   1.755002   0.000000
    16  H    4.148800   4.308366   3.790993   2.474056   2.501526
    17  H    4.005424   3.782680   2.614889   3.051559   2.474012
    18  H    2.585171   4.172037   4.012754   2.610800   3.783075
    19  H    3.760184   4.974949   4.159308   3.783947   4.302565
    20  H    3.042025   3.771309   2.590330   4.014336   4.159160
    21  H    2.457393   4.298434   3.770163   4.165748   4.972147
                   16         17         18         19         20
    16  H    0.000000
    17  H    1.756624   0.000000
    18  H    2.474805   3.052240   0.000000
    19  H    2.500813   2.475702   1.756023   0.000000
    20  H    3.785760   2.611831   3.054033   2.476972   0.000000
    21  H    4.305359   3.787952   2.475059   2.499002   1.762139
                   21
    21  H    0.000000
 Stoichiometry    C7H12O2(1+,2)
 Framework group  C1[X(C7H12O2)]
 Deg. of freedom    57
 Full point group                 C1      NOp   1
 Largest Abelian subgroup         C1      NOp   1
 Largest concise Abelian subgroup C1      NOp   1
                         Standard orientation:                         
 ---------------------------------------------------------------------
 Center     Atomic      Atomic             Coordinates (Angstroms)
 Number     Number       Type             X           Y           Z
 ---------------------------------------------------------------------
      1          8           0       -2.284366   -0.997988    0.692113
      2          6           0       -1.808657   -0.138727    0.003687
      3          8           0       -2.553958    0.862956   -0.507628
      4          6           0       -0.355824   -0.007343   -0.372733
      5          6           0        0.411337   -1.292765   -0.082422
      6          6           0        1.888563   -1.135513   -0.432287
      7          6           0        2.509726    0.045943    0.309010
      8          6           0        1.740370    1.334113    0.027700
      9          6           0        0.261671    1.186296    0.375879
     10          1           0       -3.460985    0.727902   -0.197844
     11          1           0       -0.320483    0.216136   -1.444614
     12          1           0       -0.033349   -2.123896   -0.632078
     13          1           0        0.301790   -1.529193    0.979532
     14          1           0        1.991394   -0.976580   -1.511303
     15          1           0        2.425441   -2.056188   -0.197499
     16          1           0        3.557923    0.162912    0.027689
     17          1           0        2.489666   -0.155792    1.385254
     18          1           0        1.833537    1.585403   -1.034230
     19          1           0        2.170049    2.166274    0.588412
     20          1           0        0.155110    1.013402    1.452297
     21          1           0       -0.286615    2.097860    0.135496
 ---------------------------------------------------------------------
 Rotational constants (GHZ):           3.2125492           1.0876763           0.8990689
 Standard basis: def2TZVP (5D, 7F)
 There are   396 symmetry adapted cartesian basis functions of A   symmetry.
 There are   351 symmetry adapted basis functions of A   symmetry.
   351 basis functions,   555 primitive gaussians,   396 cartesian basis functions
    35 alpha electrons       34 beta electrons
       nuclear repulsion energy       476.3763368970 Hartrees.
 NAtoms=   21 NActive=   21 NUniq=   21 SFac= 1.00D+00 NAtFMM=   60 NAOKFM=F Big=F
 Integral buffers will be    131072 words long.
 Raffenetti 2 integral format.
 Two-electron integral symmetry is turned on.
 One-electron integrals computed using PRISM.
   1 Symmetry operations used in ECPInt.
 ECPInt:  NShTT=   10878 NPrTT=   32112 LenC2=   10577 LenP2D=   24962.
 LDataN:  DoStor=T MaxTD1= 6 Len=  172
 NBasis=   351 RedAO= T EigKep=  8.47D-05  NBF=   351
 NBsUse=   351 1.00D-06 EigRej= -1.00D+00 NBFU=   351
 ExpMin= 9.52D-02 ExpMax= 2.70D+04 ExpMxC= 9.22D+02 IAcc=3 IRadAn=         5 AccDes= 0.00D+00
 Harris functional with IExCor= 1009 and IRadAn=       5 diagonalized for initial guess.
 HarFok:  IExCor= 1009 AccDes= 0.00D+00 IRadAn=         5 IDoV= 1 UseB2=F ITyADJ=14
 ICtDFT=  3500011 ScaDFX=  1.000000  1.000000  1.000000  1.000000
 FoFCou: FMM=F IPFlag=           0 FMFlag=      100000 FMFlg1=           0
         NFxFlg=           0 DoJE=T BraDBF=F KetDBF=T FulRan=T
         wScrn=  0.000000 ICntrl=       500 IOpCl=  0 I1Cent=   200000004 NGrid=           0
         NMat0=    1 NMatS0=      1 NMatT0=    0 NMatD0=    1 NMtDS0=    0 NMtDT0=    0
 Petite list used in FoFCou.
 Initial guess <Sx>= 0.0000 <Sy>= 0.0000 <Sz>= 0.5000 <S**2>= 0.7500 S= 0.5000
 Requested convergence on RMS density matrix=1.00D-08 within 128 cycles.
 Requested convergence on MAX density matrix=1.00D-06.
 Requested convergence on             energy=1.00D-06.
 No special actions if energy rises.
 Integral accuracy reduced to 1.0D-05 until final iterations.
 Initial convergence to 1.0D-05 achieved.  Increase integral accuracy.
 SCF Done:  E(UM062X) =  -424.054259685     A.U. after   28 cycles
            NFock= 28  Conv=0.64D-08     -V/T= 2.0047
 <Sx>= 0.0000 <Sy>= 0.0000 <Sz>= 0.5000 <S**2>= 0.7579 S= 0.5039
 <L.S>=  0.00000000000    
 Annihilation of the first spin contaminant:
 S**2 before annihilation     0.7579,   after     0.7500

 **********************************************************************

            Population analysis using the SCF Density.

 **********************************************************************

 Orbital symmetries:
 Alpha Orbitals:
       Occupied  (A) (A) (A) (A) (A) (A) (A) (A) (A) (A) (A) (A)
                 (A) (A) (A) (A) (A) (A) (A) (A) (A) (A) (A) (A)
                 (A) (A) (A) (A) (A) (A) (A) (A) (A) (A) (A)
       Virtual   (A) (A) (A) (A) (A) (A) (A) (A) (A) (A) (A) (A)
                 (A) (A) (A) (A) (A) (A) (A) (A) (A) (A) (A) (A)
                 (A) (A) (A) (A) (A) (A) (A) (A) (A) (A) (A) (A)
                 (A) (A) (A) (A) (A) (A) (A) (A) (A) (A) (A) (A)
                 (A) (A) (A) (A) (A) (A) (A) (A) (A) (A) (A) (A)
                 (A) (A) (A) (A) (A) (A) (A) (A) (A) (A) (A) (A)
                 (A) (A) (A) (A) (A) (A) (A) (A) (A) (A) (A) (A)
                 (A) (A) (A) (A) (A) (A) (A) (A) (A) (A) (A) (A)
                 (A) (A) (A) (A) (A) (A) (A) (A) (A) (A) (A) (A)
                 (A) (A) (A) (A) (A) (A) (A) (A) (A) (A) (A) (A)
                 (A) (A) (A) (A) (A) (A) (A) (A) (A) (A) (A) (A)
                 (A) (A) (A) (A) (A) (A) (A) (A) (A) (A) (A) (A)
                 (A) (A) (A) (A) (A) (A) (A) (A) (A) (A) (A) (A)
                 (A) (A) (A) (A) (A) (A) (A) (A) (A) (A) (A) (A)
                 (A) (A) (A) (A) (A) (A) (A) (A) (A) (A) (A) (A)
                 (A) (A) (A) (A) (A) (A) (A) (A) (A) (A) (A) (A)
                 (A) (A) (A) (A) (A) (A) (A) (A) (A) (A) (A) (A)
                 (A) (A) (A) (A) (A) (A) (A) (A) (A) (A) (A) (A)
                 (A) (A) (A) (A) (A) (A) (A) (A) (A) (A) (A) (A)
                 (A) (A) (A) (A) (A) (A) (A) (A) (A) (A) (A) (A)
                 (A) (A) (A) (A) (A) (A) (A) (A) (A) (A) (A) (A)
                 (A) (A) (A) (A) (A) (A) (A) (A) (A) (A) (A) (A)
                 (A) (A) (A) (A) (A) (A) (A) (A) (A) (A) (A) (A)
                 (A) (A) (A) (A) (A) (A) (A) (A) (A) (A) (A) (A)
                 (A) (A) (A) (A) (A) (A) (A) (A) (A) (A) (A) (A)
                 (A) (A) (A) (A) (A) (A) (A) (A) (A) (A) (A) (A)
                 (A) (A) (A) (A)
 Beta  Orbitals:
       Occupied  (A) (A) (A) (A) (A) (A) (A) (A) (A) (A) (A) (A)
                 (A) (A) (A) (A) (A) (A) (A) (A) (A) (A) (A) (A)
                 (A) (A) (A) (A) (A) (A) (A) (A) (A) (A)
       Virtual   (A) (A) (A) (A) (A) (A) (A) (A) (A) (A) (A) (A)
                 (A) (A) (A) (A) (A) (A) (A) (A) (A) (A) (A) (A)
                 (A) (A) (A) (A) (A) (A) (A) (A) (A) (A) (A) (A)
                 (A) (A) (A) (A) (A) (A) (A) (A) (A) (A) (A) (A)
                 (A) (A) (A) (A) (A) (A) (A) (A) (A) (A) (A) (A)
                 (A) (A) (A) (A) (A) (A) (A) (A) (A) (A) (A) (A)
                 (A) (A) (A) (A) (A) (A) (A) (A) (A) (A) (A) (A)
                 (A) (A) (A) (A) (A) (A) (A) (A) (A) (A) (A) (A)
                 (A) (A) (A) (A) (A) (A) (A) (A) (A) (A) (A) (A)
                 (A) (A) (A) (A) (A) (A) (A) (A) (A) (A) (A) (A)
                 (A) (A) (A) (A) (A) (A) (A) (A) (A) (A) (A) (A)
                 (A) (A) (A) (A) (A) (A) (A) (A) (A) (A) (A) (A)
                 (A) (A) (A) (A) (A) (A) (A) (A) (A) (A) (A) (A)
                 (A) (A) (A) (A) (A) (A) (A) (A) (A) (A) (A) (A)
                 (A) (A) (A) (A) (A) (A) (A) (A) (A) (A) (A) (A)
                 (A) (A) (A) (A) (A) (A) (A) (A) (A) (A) (A) (A)
                 (A) (A) (A) (A) (A) (A) (A) (A) (A) (A) (A) (A)
                 (A) (A) (A) (A) (A) (A) (A) (A) (A) (A) (A) (A)
                 (A) (A) (A) (A) (A) (A) (A) (A) (A) (A) (A) (A)
                 (A) (A) (A) (A) (A) (A) (A) (A) (A) (A) (A) (A)
                 (A) (A) (A) (A) (A) (A) (A) (A) (A) (A) (A) (A)
                 (A) (A) (A) (A) (A) (A) (A) (A) (A) (A) (A) (A)
                 (A) (A) (A) (A) (A) (A) (A) (A) (A) (A) (A) (A)
                 (A) (A) (A) (A) (A) (A) (A) (A) (A) (A) (A) (A)
                 (A) (A) (A) (A) (A) (A) (A) (A) (A) (A) (A) (A)
                 (A) (A) (A) (A) (A) (A) (A) (A) (A) (A) (A) (A)
                 (A) (A) (A) (A) (A)
 The electronic state is 2-A.
 Alpha  occ. eigenvalues --  -19.94481 -19.91206 -10.93346 -10.77390 -10.72980
 Alpha  occ. eigenvalues --  -10.71129 -10.70219 -10.68984 -10.68260  -1.51279
 Alpha  occ. eigenvalues --   -1.41193  -1.14323  -1.05279  -1.01949  -0.95659
 Alpha  occ. eigenvalues --   -0.88560  -0.87049  -0.85472  -0.82173  -0.81069
 Alpha  occ. eigenvalues --   -0.78581  -0.72987  -0.71848  -0.68483  -0.67835
 Alpha  occ. eigenvalues --   -0.67409  -0.65803  -0.62796  -0.62447  -0.61748
 Alpha  occ. eigenvalues --   -0.59396  -0.57541  -0.54350  -0.53837  -0.53147
 Alpha virt. eigenvalues --   -0.19311  -0.10761  -0.07773  -0.06625  -0.05311
 Alpha virt. eigenvalues --   -0.04160  -0.01568  -0.00914  -0.00346  -0.00037
 Alpha virt. eigenvalues --    0.00456   0.00876   0.01930   0.02580   0.04666
 Alpha virt. eigenvalues --    0.05799   0.06784   0.07308   0.08045   0.08955
 Alpha virt. eigenvalues --    0.10536   0.10964   0.11195   0.12646   0.13036
 Alpha virt. eigenvalues --    0.13802   0.14134   0.16345   0.17106   0.19389
 Alpha virt. eigenvalues --    0.20859   0.21448   0.23256   0.24543   0.25379
 Alpha virt. eigenvalues --    0.26795   0.27437   0.27787   0.28345   0.30213
 Alpha virt. eigenvalues --    0.30435   0.31245   0.31763   0.31901   0.32654
 Alpha virt. eigenvalues --    0.33215   0.33682   0.34675   0.35152   0.35431
 Alpha virt. eigenvalues --    0.36432   0.36984   0.37453   0.38472   0.38821
 Alpha virt. eigenvalues --    0.40043   0.41650   0.44961   0.46610   0.47736
 Alpha virt. eigenvalues --    0.49203   0.52161   0.53823   0.56033   0.56201
 Alpha virt. eigenvalues --    0.60377   0.61278   0.64349   0.64930   0.65764
 Alpha virt. eigenvalues --    0.66262   0.67006   0.70737   0.71475   0.73565
 Alpha virt. eigenvalues --    0.75842   0.76256   0.76707   0.79123   0.81810
 Alpha virt. eigenvalues --    0.82943   0.83460   0.86745   0.89297   0.89408
 Alpha virt. eigenvalues --    0.91063   0.93512   0.96144   0.98240   0.99530
 Alpha virt. eigenvalues --    1.01052   1.01965   1.04289   1.05450   1.06634
 Alpha virt. eigenvalues --    1.09087   1.11056   1.12949   1.13805   1.15279
 Alpha virt. eigenvalues --    1.15457   1.17509   1.19643   1.22920   1.25593
 Alpha virt. eigenvalues --    1.28002   1.29161   1.31967   1.33925   1.37160
 Alpha virt. eigenvalues --    1.40315   1.43632   1.44136   1.45894   1.47040
 Alpha virt. eigenvalues --    1.48844   1.49380   1.49778   1.52268   1.53590
 Alpha virt. eigenvalues --    1.54758   1.56844   1.57440   1.59480   1.61639
 Alpha virt. eigenvalues --    1.63577   1.64632   1.65394   1.66880   1.68777
 Alpha virt. eigenvalues --    1.70614   1.74409   1.75521   1.76869   1.77960
 Alpha virt. eigenvalues --    1.80265   1.80650   1.82928   1.84202   1.87020
 Alpha virt. eigenvalues --    1.88856   1.91313   1.94020   1.95030   1.98040
 Alpha virt. eigenvalues --    2.00350   2.00939   2.01856   2.02198   2.04863
 Alpha virt. eigenvalues --    2.06905   2.09520   2.10010   2.12333   2.15774
 Alpha virt. eigenvalues --    2.17322   2.20468   2.23841   2.25744   2.28016
 Alpha virt. eigenvalues --    2.28607   2.31677   2.32765   2.34066   2.35581
 Alpha virt. eigenvalues --    2.36505   2.36975   2.38506   2.40416   2.41132
 Alpha virt. eigenvalues --    2.43537   2.44285   2.45136   2.47252   2.47875
 Alpha virt. eigenvalues --    2.50046   2.50559   2.51636   2.52587   2.54339
 Alpha virt. eigenvalues --    2.56041   2.56517   2.58942   2.61198   2.61836
 Alpha virt. eigenvalues --    2.63950   2.65750   2.66878   2.68014   2.69729
 Alpha virt. eigenvalues --    2.72345   2.74127   2.76616   2.78196   2.79004
 Alpha virt. eigenvalues --    2.82716   2.84041   2.84331   2.87443   2.88459
 Alpha virt. eigenvalues --    2.89534   2.92194   2.93408   2.94312   2.97465
 Alpha virt. eigenvalues --    2.98656   3.00207   3.02215   3.03423   3.04452
 Alpha virt. eigenvalues --    3.07402   3.08330   3.09294   3.11377   3.12190
 Alpha virt. eigenvalues --    3.13947   3.14385   3.16445   3.18728   3.19932
 Alpha virt. eigenvalues --    3.21338   3.22898   3.26316   3.27001   3.27550
 Alpha virt. eigenvalues --    3.29969   3.30227   3.31778   3.32204   3.34005
 Alpha virt. eigenvalues --    3.35909   3.37000   3.40049   3.41632   3.43725
 Alpha virt. eigenvalues --    3.44814   3.45441   3.46315   3.47267   3.50575
 Alpha virt. eigenvalues --    3.54144   3.56549   3.60119   3.65307   3.65957
 Alpha virt. eigenvalues --    3.71369   3.74072   3.75911   3.77393   3.80671
 Alpha virt. eigenvalues --    3.82532   3.83708   3.85665   3.90809   3.91000
 Alpha virt. eigenvalues --    3.92448   3.96806   4.00551   4.02731   4.04761
 Alpha virt. eigenvalues --    4.08823   4.11077   4.12828   4.16945   4.18945
 Alpha virt. eigenvalues --    4.22664   4.26062   4.31218   4.33625   4.36260
 Alpha virt. eigenvalues --    4.41607   4.42320   4.46842   4.48992   4.50964
 Alpha virt. eigenvalues --    4.57999   4.60666   4.62200   4.66182   4.73682
 Alpha virt. eigenvalues --    4.81784   4.84334   4.87633   4.91520   4.92529
 Alpha virt. eigenvalues --    4.98063   5.17385   5.18023   5.26697   5.36157
 Alpha virt. eigenvalues --    5.51205   5.62768   5.64156   5.92985   5.98891
 Alpha virt. eigenvalues --    6.03939   6.11072   6.19191   6.21047   6.41243
 Alpha virt. eigenvalues --    6.46662   6.51790   6.54966   6.65353   6.82100
 Alpha virt. eigenvalues --    6.84901   7.07000  22.35721  22.41039  22.44352
 Alpha virt. eigenvalues --   22.45908  22.55475  22.61711  23.13163  43.71958
 Alpha virt. eigenvalues --   43.75848
  Beta  occ. eigenvalues --  -19.93304 -19.91036 -10.93353 -10.77310 -10.72937
  Beta  occ. eigenvalues --  -10.71116 -10.70170 -10.68960 -10.68248  -1.48821
  Beta  occ. eigenvalues --   -1.39186  -1.13507  -1.04387  -1.01515  -0.94697
  Beta  occ. eigenvalues --   -0.87527  -0.85873  -0.83513  -0.81212  -0.78125
  Beta  occ. eigenvalues --   -0.77404  -0.71992  -0.70807  -0.68140  -0.67396
  Beta  occ. eigenvalues --   -0.64674  -0.63004  -0.62081  -0.60739  -0.59203
  Beta  occ. eigenvalues --   -0.57403  -0.54037  -0.53352  -0.52726
  Beta virt. eigenvalues --   -0.41213  -0.18795  -0.10686  -0.07599  -0.06499
  Beta virt. eigenvalues --   -0.05235  -0.04067  -0.01517  -0.00817  -0.00260
  Beta virt. eigenvalues --   -0.00015   0.00541   0.00912   0.01981   0.02670
  Beta virt. eigenvalues --    0.04791   0.05907   0.06937   0.07448   0.08472
  Beta virt. eigenvalues --    0.09055   0.10628   0.11074   0.11414   0.12800
  Beta virt. eigenvalues --    0.13361   0.13859   0.14360   0.16798   0.17227
  Beta virt. eigenvalues --    0.19681   0.21077   0.21569   0.23445   0.25092
  Beta virt. eigenvalues --    0.25687   0.27055   0.27566   0.27999   0.28471
  Beta virt. eigenvalues --    0.30288   0.30516   0.31286   0.31855   0.31956
  Beta virt. eigenvalues --    0.32732   0.33321   0.33787   0.34707   0.35354
  Beta virt. eigenvalues --    0.35523   0.36532   0.37058   0.37573   0.38618
  Beta virt. eigenvalues --    0.38968   0.40275   0.41919   0.45103   0.46904
  Beta virt. eigenvalues --    0.47884   0.49270   0.52315   0.53938   0.56289
  Beta virt. eigenvalues --    0.56529   0.60459   0.61387   0.64427   0.64995
  Beta virt. eigenvalues --    0.65817   0.66350   0.67248   0.70787   0.71583
  Beta virt. eigenvalues --    0.73594   0.75882   0.76402   0.76860   0.79253
  Beta virt. eigenvalues --    0.81894   0.82999   0.83721   0.86864   0.89354
  Beta virt. eigenvalues --    0.89560   0.91171   0.93703   0.96271   0.98343
  Beta virt. eigenvalues --    0.99594   1.01049   1.02048   1.04301   1.05510
  Beta virt. eigenvalues --    1.06616   1.09184   1.11181   1.12974   1.13950
  Beta virt. eigenvalues --    1.15328   1.15568   1.17526   1.19824   1.22952
  Beta virt. eigenvalues --    1.25737   1.28087   1.29664   1.32361   1.34199
  Beta virt. eigenvalues --    1.37681   1.40637   1.43940   1.44331   1.46275
  Beta virt. eigenvalues --    1.47218   1.49015   1.49553   1.49936   1.52333
  Beta virt. eigenvalues --    1.53582   1.54801   1.56921   1.57589   1.59606
  Beta virt. eigenvalues --    1.61718   1.63714   1.64732   1.65433   1.67178
  Beta virt. eigenvalues --    1.68861   1.70701   1.74574   1.75627   1.77061
  Beta virt. eigenvalues --    1.78085   1.80543   1.80761   1.83241   1.84296
  Beta virt. eigenvalues --    1.87098   1.88865   1.91498   1.94067   1.95103
  Beta virt. eigenvalues --    1.98132   2.00466   2.01000   2.02105   2.02333
  Beta virt. eigenvalues --    2.05048   2.07067   2.09667   2.10299   2.12881
  Beta virt. eigenvalues --    2.15721   2.17551   2.20599   2.23912   2.25979
  Beta virt. eigenvalues --    2.28043   2.28663   2.31726   2.33020   2.34172
  Beta virt. eigenvalues --    2.35665   2.36587   2.37631   2.38586   2.40486
  Beta virt. eigenvalues --    2.41282   2.43571   2.44364   2.45204   2.47442
  Beta virt. eigenvalues --    2.48090   2.50085   2.50717   2.51837   2.52648
  Beta virt. eigenvalues --    2.54440   2.56254   2.56787   2.59396   2.61577
  Beta virt. eigenvalues --    2.61900   2.64410   2.65909   2.66994   2.68099
  Beta virt. eigenvalues --    2.69823   2.72873   2.74371   2.76755   2.78401
  Beta virt. eigenvalues --    2.79097   2.82979   2.84084   2.84397   2.87452
  Beta virt. eigenvalues --    2.88834   2.89679   2.92272   2.93635   2.94265
  Beta virt. eigenvalues --    2.97755   2.98766   3.00700   3.02209   3.03576
  Beta virt. eigenvalues --    3.05532   3.07610   3.08506   3.09535   3.11636
  Beta virt. eigenvalues --    3.12654   3.14104   3.14494   3.16425   3.18828
  Beta virt. eigenvalues --    3.20070   3.21376   3.23099   3.26387   3.27196
  Beta virt. eigenvalues --    3.27550   3.29946   3.30371   3.31858   3.32245
  Beta virt. eigenvalues --    3.34054   3.36077   3.37052   3.40221   3.41816
  Beta virt. eigenvalues --    3.43788   3.44827   3.45450   3.46467   3.47296
  Beta virt. eigenvalues --    3.50620   3.54251   3.56573   3.60291   3.65230
  Beta virt. eigenvalues --    3.65921   3.71410   3.74253   3.75868   3.77399
  Beta virt. eigenvalues --    3.80753   3.82540   3.83730   3.85722   3.90818
  Beta virt. eigenvalues --    3.91082   3.92600   3.96765   4.00731   4.02882
  Beta virt. eigenvalues --    4.05004   4.08855   4.11292   4.13260   4.17051
  Beta virt. eigenvalues --    4.19132   4.22835   4.26152   4.31488   4.33429
  Beta virt. eigenvalues --    4.36273   4.41576   4.42295   4.46988   4.49075
  Beta virt. eigenvalues --    4.50437   4.58117   4.60194   4.62346   4.65745
  Beta virt. eigenvalues --    4.73576   4.81873   4.83680   4.88249   4.91996
  Beta virt. eigenvalues --    4.95161   4.98757   5.17556   5.18704   5.27705
  Beta virt. eigenvalues --    5.37178   5.52275   5.62867   5.65049   5.93377
  Beta virt. eigenvalues --    5.99685   6.10041   6.11990   6.23233   6.26281
  Beta virt. eigenvalues --    6.44726   6.47658   6.52895   6.56041   6.67712
  Beta virt. eigenvalues --    6.83694   6.87850   7.07305  22.35777  22.41043
  Beta virt. eigenvalues --   22.44374  22.45934  22.55476  22.61811  23.12866
  Beta virt. eigenvalues --   43.71962  43.75773
          Condensed to atoms (all electrons):
               1          2          3          4          5          6
     1  O    7.599527   0.513168  -0.050191  -0.037059  -0.003262   0.000230
     2  C    0.513168   4.598551   0.397623   0.168413  -0.027253   0.001638
     3  O   -0.050191   0.397623   7.738852  -0.088505   0.005356  -0.000335
     4  C   -0.037059   0.168413  -0.088505   5.459818   0.193419  -0.002943
     5  C   -0.003262  -0.027253   0.005356   0.193419   5.315813   0.169193
     6  C    0.000230   0.001638  -0.000335  -0.002943   0.169193   5.228534
     7  C   -0.000187  -0.002276   0.000009  -0.021879  -0.006287   0.208491
     8  C    0.000061   0.003857  -0.000454  -0.007275  -0.007835  -0.027814
     9  C   -0.007802  -0.012281  -0.005530   0.190939  -0.035427  -0.005679
    10  H   -0.001443  -0.013849   0.294732   0.011165  -0.000695   0.000031
    11  H    0.000545  -0.017549  -0.000450   0.428093  -0.041224   0.000260
    12  H   -0.002364  -0.000154  -0.000236  -0.054809   0.445101  -0.028742
    13  H    0.002610  -0.015970  -0.000013  -0.007355   0.410114  -0.036061
    14  H    0.000009   0.000157   0.000008  -0.001011  -0.049984   0.434226
    15  H   -0.000009  -0.000698   0.000003   0.008063  -0.045469   0.439593
    16  H    0.000003   0.000193  -0.000001   0.000317   0.006147  -0.038345
    17  H   -0.000016   0.000297   0.000004   0.000459  -0.001805  -0.049989
    18  H   -0.000006   0.000444   0.000053  -0.002137   0.000659  -0.003249
    19  H   -0.000010  -0.000399  -0.000014   0.005183  -0.000664   0.006960
    20  H    0.001423   0.001005  -0.000200  -0.037664  -0.005270   0.000956
    21  H    0.000205  -0.011554   0.004003  -0.037858   0.002777  -0.000825
               7          8          9         10         11         12
     1  O   -0.000187   0.000061  -0.007802  -0.001443   0.000545  -0.002364
     2  C   -0.002276   0.003857  -0.012281  -0.013849  -0.017549  -0.000154
     3  O    0.000009  -0.000454  -0.005530   0.294732  -0.000450  -0.000236
     4  C   -0.021879  -0.007275   0.190939   0.011165   0.428093  -0.054809
     5  C   -0.006287  -0.007835  -0.035427  -0.000695  -0.041224   0.445101
     6  C    0.208491  -0.027814  -0.005679   0.000031   0.000260  -0.028742
     7  C    5.213319   0.221683  -0.012066   0.000003  -0.001405   0.004792
     8  C    0.221683   5.224785   0.164441   0.000017   0.001823  -0.000701
     9  C   -0.012066   0.164441   5.326219   0.000289  -0.051537   0.005742
    10  H    0.000003   0.000017   0.000289   0.327750  -0.000162   0.000034
    11  H   -0.001405   0.001823  -0.051537  -0.000162   0.446792  -0.003417
    12  H    0.004792  -0.000701   0.005742   0.000034  -0.003417   0.453296
    13  H   -0.003135   0.002985  -0.016903  -0.000012   0.005258  -0.014668
    14  H   -0.047038  -0.002869  -0.000651  -0.000000   0.002032  -0.001479
    15  H   -0.039698   0.007127  -0.001231  -0.000001   0.000055  -0.006236
    16  H    0.433046  -0.039121   0.006426   0.000000  -0.000109  -0.000109
    17  H    0.435306  -0.049449  -0.002271  -0.000000   0.000028  -0.000068
    18  H   -0.045556   0.434341  -0.049507  -0.000002   0.001526  -0.000126
    19  H   -0.038702   0.429406  -0.037164   0.000001  -0.000053   0.000090
    20  H   -0.004009  -0.034742   0.413892  -0.000052   0.005220  -0.000238
    21  H    0.005465  -0.029263   0.434847  -0.000247  -0.001770  -0.000255
              13         14         15         16         17         18
     1  O    0.002610   0.000009  -0.000009   0.000003  -0.000016  -0.000006
     2  C   -0.015970   0.000157  -0.000698   0.000193   0.000297   0.000444
     3  O   -0.000013   0.000008   0.000003  -0.000001   0.000004   0.000053
     4  C   -0.007355  -0.001011   0.008063   0.000317   0.000459  -0.002137
     5  C    0.410114  -0.049984  -0.045469   0.006147  -0.001805   0.000659
     6  C   -0.036061   0.434226   0.439593  -0.038345  -0.049989  -0.003249
     7  C   -0.003135  -0.047038  -0.039698   0.433046   0.435306  -0.045556
     8  C    0.002985  -0.002869   0.007127  -0.039121  -0.049449   0.434341
     9  C   -0.016903  -0.000651  -0.001231   0.006426  -0.002271  -0.049507
    10  H   -0.000012  -0.000000  -0.000001   0.000000  -0.000000  -0.000002
    11  H    0.005258   0.002032   0.000055  -0.000109   0.000028   0.001526
    12  H   -0.014668  -0.001479  -0.006236  -0.000109  -0.000068  -0.000126
    13  H    0.467340   0.004174  -0.001361   0.000009   0.001150   0.000103
    14  H    0.004174   0.476584  -0.007572  -0.001801   0.005021   0.002164
    15  H   -0.001361  -0.007572   0.461082  -0.004482  -0.001928  -0.000146
    16  H    0.000009  -0.001801  -0.004482   0.452741  -0.008647  -0.001676
    17  H    0.001150   0.005021  -0.001928  -0.008647   0.485064   0.004934
    18  H    0.000103   0.002164  -0.000146  -0.001676   0.004934   0.472091
    19  H   -0.000173  -0.000152  -0.000214  -0.003721  -0.001901  -0.008519
    20  H    0.004369   0.000134  -0.000106   0.000015   0.001228   0.004079
    21  H   -0.000037  -0.000114   0.000090  -0.000126  -0.000080  -0.001374
              19         20         21
     1  O   -0.000010   0.001423   0.000205
     2  C   -0.000399   0.001005  -0.011554
     3  O   -0.000014  -0.000200   0.004003
     4  C    0.005183  -0.037664  -0.037858
     5  C   -0.000664  -0.005270   0.002777
     6  C    0.006960   0.000956  -0.000825
     7  C   -0.038702  -0.004009   0.005465
     8  C    0.429406  -0.034742  -0.029263
     9  C   -0.037164   0.413892   0.434847
    10  H    0.000001  -0.000052  -0.000247
    11  H   -0.000053   0.005220  -0.001770
    12  H    0.000090  -0.000238  -0.000255
    13  H   -0.000173   0.004369  -0.000037
    14  H   -0.000152   0.000134  -0.000114
    15  H   -0.000214  -0.000106   0.000090
    16  H   -0.003721   0.000015  -0.000126
    17  H   -0.001901   0.001228  -0.000080
    18  H   -0.008519   0.004079  -0.001374
    19  H    0.453366  -0.002497  -0.006072
    20  H   -0.002497   0.464912  -0.010800
    21  H   -0.006072  -0.010800   0.446243
          Atomic-Atomic Spin Densities.
               1          2          3          4          5          6
     1  O    0.671935  -0.069068  -0.006858   0.000540   0.008932  -0.000315
     2  C   -0.069068  -0.067042   0.003570   0.101114  -0.003915   0.000036
     3  O   -0.006858   0.003570   0.080188   0.000907   0.000607  -0.000018
     4  C    0.000540   0.101114   0.000907   0.048586  -0.016197  -0.001762
     5  C    0.008932  -0.003915   0.000607  -0.016197   0.022978   0.001638
     6  C   -0.000315   0.000036  -0.000018  -0.001762   0.001638   0.028476
     7  C    0.000244   0.000484   0.000033   0.006072  -0.006782   0.005089
     8  C   -0.000061  -0.000054  -0.000028  -0.010471   0.003285  -0.000107
     9  C    0.001445   0.002897   0.001999  -0.017283   0.003961   0.001423
    10  H    0.003781   0.000704  -0.001217   0.000127  -0.000097   0.000005
    11  H    0.000610  -0.004900   0.000543   0.004085   0.000413  -0.001135
    12  H    0.002701   0.001614   0.000167  -0.004760   0.004023  -0.000569
    13  H   -0.001970  -0.000694  -0.000052   0.001086   0.001270  -0.000216
    14  H   -0.000017  -0.000069  -0.000004  -0.001180   0.001993  -0.000191
    15  H    0.000013   0.000074   0.000000   0.000286  -0.001683   0.001960
    16  H   -0.000004  -0.000049  -0.000000  -0.000986   0.001383  -0.003404
    17  H    0.000001  -0.000011  -0.000000  -0.000165   0.000119  -0.000066
    18  H   -0.000001  -0.000036  -0.000003  -0.000489   0.000039  -0.000133
    19  H    0.000010   0.000148   0.000004   0.001632  -0.000495   0.000263
    20  H    0.000336  -0.001825   0.000106   0.003288  -0.000767   0.000097
    21  H   -0.000043   0.000533  -0.000290   0.000372  -0.000127   0.000031
               7          8          9         10         11         12
     1  O    0.000244  -0.000061   0.001445   0.003781   0.000610   0.002701
     2  C    0.000484  -0.000054   0.002897   0.000704  -0.004900   0.001614
     3  O    0.000033  -0.000028   0.001999  -0.001217   0.000543   0.000167
     4  C    0.006072  -0.010471  -0.017283   0.000127   0.004085  -0.004760
     5  C   -0.006782   0.003285   0.003961  -0.000097   0.000413   0.004023
     6  C    0.005089  -0.000107   0.001423   0.000005  -0.001135  -0.000569
     7  C    0.005893  -0.006262  -0.002754  -0.000006   0.000646   0.000242
     8  C   -0.006262   0.045750   0.020136   0.000017  -0.001078  -0.000196
     9  C   -0.002754   0.020136   0.046656  -0.000340   0.001011  -0.000280
    10  H   -0.000006   0.000017  -0.000340   0.000121  -0.000130  -0.000025
    11  H    0.000646  -0.001078   0.001011  -0.000130   0.003658   0.000851
    12  H    0.000242  -0.000196  -0.000280  -0.000025   0.000851   0.007701
    13  H    0.000030   0.000157   0.000370   0.000006  -0.000105  -0.000011
    14  H   -0.000092   0.000191   0.000288   0.000000  -0.000091  -0.000187
    15  H    0.000592  -0.000076  -0.000086  -0.000000   0.000016   0.000135
    16  H    0.008141  -0.002928   0.000961   0.000000  -0.000067  -0.000021
    17  H    0.000161   0.000006   0.000059   0.000000   0.000005  -0.000004
    18  H    0.000370  -0.000448   0.001063   0.000000   0.000065   0.000001
    19  H   -0.000666   0.008506  -0.006180  -0.000002   0.000118   0.000006
    20  H    0.000483   0.000024  -0.001515  -0.000029   0.000120   0.000081
    21  H   -0.000036  -0.000333  -0.000253  -0.000004   0.000016   0.000000
              13         14         15         16         17         18
     1  O   -0.001970  -0.000017   0.000013  -0.000004   0.000001  -0.000001
     2  C   -0.000694  -0.000069   0.000074  -0.000049  -0.000011  -0.000036
     3  O   -0.000052  -0.000004   0.000000  -0.000000  -0.000000  -0.000003
     4  C    0.001086  -0.001180   0.000286  -0.000986  -0.000165  -0.000489
     5  C    0.001270   0.001993  -0.001683   0.001383   0.000119   0.000039
     6  C   -0.000216  -0.000191   0.001960  -0.003404  -0.000066  -0.000133
     7  C    0.000030  -0.000092   0.000592   0.008141   0.000161   0.000370
     8  C    0.000157   0.000191  -0.000076  -0.002928   0.000006  -0.000448
     9  C    0.000370   0.000288  -0.000086   0.000961   0.000059   0.001063
    10  H    0.000006   0.000000  -0.000000   0.000000   0.000000   0.000000
    11  H   -0.000105  -0.000091   0.000016  -0.000067   0.000005   0.000065
    12  H   -0.000011  -0.000187   0.000135  -0.000021  -0.000004   0.000001
    13  H   -0.001573  -0.000019   0.000082  -0.000048   0.000030   0.000001
    14  H   -0.000019   0.000828  -0.000374   0.000261   0.000002   0.000016
    15  H    0.000082  -0.000374   0.000518  -0.000131  -0.000031  -0.000001
    16  H   -0.000048   0.000261  -0.000131   0.017784   0.000037   0.000004
    17  H    0.000030   0.000002  -0.000031   0.000037  -0.000736  -0.000018
    18  H    0.000001   0.000016  -0.000001   0.000004  -0.000018  -0.002403
    19  H    0.000021  -0.000032   0.000006  -0.000760  -0.000070  -0.000225
    20  H   -0.000126  -0.000006   0.000008  -0.000098   0.000013  -0.000020
    21  H   -0.000002  -0.000006  -0.000001   0.000002  -0.000005  -0.000030
              19         20         21
     1  O    0.000010   0.000336  -0.000043
     2  C    0.000148  -0.001825   0.000533
     3  O    0.000004   0.000106  -0.000290
     4  C    0.001632   0.003288   0.000372
     5  C   -0.000495  -0.000767  -0.000127
     6  C    0.000263   0.000097   0.000031
     7  C   -0.000666   0.000483  -0.000036
     8  C    0.008506   0.000024  -0.000333
     9  C   -0.006180  -0.001515  -0.000253
    10  H   -0.000002  -0.000029  -0.000004
    11  H    0.000118   0.000120   0.000016
    12  H    0.000006   0.000081   0.000000
    13  H    0.000021  -0.000126  -0.000002
    14  H   -0.000032  -0.000006  -0.000006
    15  H    0.000006   0.000008  -0.000001
    16  H   -0.000760  -0.000098   0.000002
    17  H   -0.000070   0.000013  -0.000005
    18  H   -0.000225  -0.000020  -0.000030
    19  H    0.018763   0.000687   0.000079
    20  H    0.000687  -0.000718  -0.000183
    21  H    0.000079  -0.000183  -0.001886
 Mulliken charges and spin densities:
               1          2
     1  O   -0.015432   0.612212
     2  C    0.416635  -0.036488
     3  O   -0.294714   0.079653
     4  C   -0.167376   0.114804
     5  C   -0.323403   0.020578
     6  C   -0.296133   0.031103
     7  C   -0.299875   0.011883
     8  C   -0.291004   0.056030
     9  C   -0.304747   0.053578
    10  H    0.382442   0.002912
    11  H    0.226042   0.004652
    12  H    0.204547   0.011468
    13  H    0.197576  -0.001764
    14  H    0.188162   0.001312
    15  H    0.193135   0.001309
    16  H    0.199240   0.020076
    17  H    0.182663  -0.000673
    18  H    0.191903  -0.002250
    19  H    0.205248   0.021813
    20  H    0.198344  -0.000043
    21  H    0.206745  -0.002164
 Sum of Mulliken charges =   1.00000   1.00000
 Mulliken charges and spin densities with hydrogens summed into heavy atoms:
               1          2
     1  O   -0.015432   0.612212
     2  C    0.416635  -0.036488
     3  O    0.087728   0.082565
     4  C    0.058666   0.119455
     5  C    0.078720   0.030282
     6  C    0.085165   0.033724
     7  C    0.082028   0.031286
     8  C    0.106147   0.075593
     9  C    0.100342   0.051371
 Electronic spatial extent (au):  <R**2>=           1301.6641
 Charge=              1.0000 electrons
 Dipole moment (field-independent basis, Debye):
    X=             -2.5776    Y=              0.7069    Z=             -0.2565  Tot=              2.6851
 Quadrupole moment (field-independent basis, Debye-Ang):
   XX=            -24.7087   YY=            -47.2524   ZZ=            -50.6213
   XY=             -1.5200   XZ=              0.3198   YZ=              1.5795
 Traceless Quadrupole moment (field-independent basis, Debye-Ang):
   XX=             16.1521   YY=             -6.3916   ZZ=             -9.7605
   XY=             -1.5200   XZ=              0.3198   YZ=              1.5795
 Octapole moment (field-independent basis, Debye-Ang**2):
  XXX=            -68.5728  YYY=              0.9319  ZZZ=             -0.0118  XYY=              0.3126
  XXY=             12.1721  XXZ=             -0.3443  XZZ=             -4.2587  YZZ=              0.2295
  YYZ=              0.7147  XYZ=             -0.9689
 Hexadecapole moment (field-independent basis, Debye-Ang**3):
 XXXX=           -744.4832 YYYY=           -367.0076 ZZZZ=           -129.8132 XXXY=            -43.4114
 XXXZ=              3.9608 YYYX=              0.2087 YYYZ=              1.0918 ZZZX=             -2.0805
 ZZZY=             -4.3732 XXYY=           -225.5845 XXZZ=           -204.2808 YYZZ=            -86.7273
 XXYZ=              4.0989 YYXZ=              2.8487 ZZXY=              1.6816
 N-N= 4.763763368970D+02 E-N=-1.928308220410D+03  KE= 4.220845616653D+02
                          Isotropic Fermi Contact Couplings
        Atom                 a.u.       MegaHertz       Gauss      10(-4) cm-1
     1  O(17)              0.06847     -41.50578     -14.81029     -13.84484
     2  C(13)              0.00714       8.03193       2.86599       2.67916
     3  O(17)              0.00351      -2.13006      -0.76006      -0.71051
     4  C(13)             -0.00634      -7.13184      -2.54482      -2.37892
     5  C(13)              0.00056       0.62843       0.22424       0.20962
     6  C(13)             -0.00009      -0.10518      -0.03753      -0.03508
     7  C(13)             -0.00236      -2.65187      -0.94625      -0.88457
     8  C(13)              0.00540       6.06996       2.16591       2.02472
     9  C(13)             -0.00489      -5.49749      -1.96164      -1.83377
    10  H(1)              -0.00084      -3.73998      -1.33452      -1.24752
    11  H(1)               0.00396      17.70917       6.31907       5.90714
    12  H(1)               0.00690      30.84026      11.00457      10.28720
    13  H(1)               0.00067       3.01028       1.07414       1.00412
    14  H(1)               0.00072       3.20717       1.14440       1.06980
    15  H(1)               0.00123       5.51166       1.96670       1.83849
    16  H(1)               0.01148      51.31367      18.30999      17.11640
    17  H(1)              -0.00025      -1.11239      -0.39693      -0.37106
    18  H(1)              -0.00085      -3.77844      -1.34824      -1.26035
    19  H(1)               0.01277      57.07809      20.36688      19.03920
    20  H(1)               0.00002       0.09901       0.03533       0.03303
    21  H(1)              -0.00047      -2.11038      -0.75304      -0.70395
 --------------------------------------------------------
       Center         ----  Spin Dipole Couplings  ----
                      3XX-RR        3YY-RR        3ZZ-RR
 --------------------------------------------------------
     1   Atom        1.829314     -0.668663     -1.160652
     2   Atom        0.088529     -0.035882     -0.052647
     3   Atom       -0.147277      0.288625     -0.141348
     4   Atom        0.173334     -0.069527     -0.103807
     5   Atom        0.033715     -0.020616     -0.013099
     6   Atom        0.039032     -0.020561     -0.018471
     7   Atom        0.029383     -0.009148     -0.020235
     8   Atom        0.095768     -0.043101     -0.052667
     9   Atom        0.082758     -0.023448     -0.059310
    10   Atom        0.012749     -0.000687     -0.012062
    11   Atom       -0.005299     -0.012945      0.018244
    12   Atom        0.000710      0.002894     -0.003604
    13   Atom        0.008310     -0.005505     -0.002805
    14   Atom        0.000459     -0.003503      0.003044
    15   Atom        0.000129      0.004778     -0.004907
    16   Atom        0.006948     -0.004227     -0.002721
    17   Atom        0.000892     -0.002518      0.001626
    18   Atom       -0.000349     -0.005226      0.005575
    19   Atom       -0.004254      0.005786     -0.001532
    20   Atom       -0.001949     -0.005728      0.007677
    21   Atom       -0.000176      0.009494     -0.009318
 --------------------------------------------------------
                        XY            XZ            YZ
 --------------------------------------------------------
     1   Atom       -1.290956      0.028409      0.098727
     2   Atom        0.044479     -0.072381     -0.060492
     3   Atom       -0.171227      0.069464     -0.261929
     4   Atom        0.115274     -0.060794     -0.026389
     5   Atom        0.009209      0.016610      0.004096
     6   Atom        0.019867      0.025072      0.009543
     7   Atom        0.020492      0.008614      0.004150
     8   Atom        0.039533      0.010834      0.002627
     9   Atom        0.073054      0.008284      0.004669
    10   Atom       -0.007210     -0.003648     -0.011062
    11   Atom        0.003025      0.000763     -0.004103
    12   Atom       -0.003393     -0.004799      0.005318
    13   Atom       -0.002156     -0.000473     -0.004134
    14   Atom        0.000176     -0.004244     -0.000251
    15   Atom       -0.003083      0.000059      0.000004
    16   Atom       -0.000205     -0.003774     -0.000049
    17   Atom        0.000298      0.001315     -0.000943
    18   Atom        0.003373     -0.003947     -0.002984
    19   Atom        0.003743      0.001539      0.009072
    20   Atom        0.005013      0.001410      0.001822
    21   Atom       -0.001883      0.000928     -0.000912
 --------------------------------------------------------


 ---------------------------------------------------------------------------------
              Anisotropic Spin Dipole Couplings in Principal Axis System
 ---------------------------------------------------------------------------------

       Atom             a.u.   MegaHertz   Gauss  10(-4) cm-1        Axes

              Baa    -1.2940    93.631    33.410    31.232  0.3081  0.7320 -0.6077
     1 O(17)  Bbb    -1.0827    78.340    27.954    26.131  0.2398  0.5584  0.7942
              Bcc     2.3766  -171.971   -61.364   -57.363  0.9206 -0.3904 -0.0035
 
              Baa    -0.1097   -14.725    -5.254    -4.912  0.1698  0.5612  0.8100
     2 C(13)  Bbb    -0.0334    -4.484    -1.600    -1.496 -0.5177  0.7502 -0.4113
              Bcc     0.1432    19.209     6.854     6.408  0.8385  0.3495 -0.4180
 
              Baa    -0.2668    19.304     6.888     6.439  0.1482  0.4588  0.8761
     3 O(17)  Bbb    -0.2011    14.549     5.191     4.853  0.9463  0.1916 -0.2604
              Bcc     0.4678   -33.853   -12.080   -11.292 -0.2873  0.8676 -0.4058
 
              Baa    -0.1182   -15.867    -5.662    -5.293 -0.0698  0.5978  0.7986
     4 C(13)  Bbb    -0.1141   -15.317    -5.466    -5.109 -0.4068  0.7139 -0.5699
              Bcc     0.2324    31.184    11.127    10.402  0.9108  0.3647 -0.1933
 
              Baa    -0.0225    -3.025    -1.079    -1.009 -0.0707  0.9545 -0.2897
     5 C(13)  Bbb    -0.0181    -2.430    -0.867    -0.810 -0.3356  0.2508  0.9080
              Bcc     0.0406     5.455     1.946     1.819  0.9394  0.1614  0.3026
 
              Baa    -0.0294    -3.939    -1.405    -1.314 -0.1187 -0.5948  0.7951
     6 C(13)  Bbb    -0.0255    -3.418    -1.220    -1.140 -0.4265  0.7536  0.5001
              Bcc     0.0548     7.357     2.625     2.454  0.8967  0.2797  0.3431
 
              Baa    -0.0218    -2.925    -1.044    -0.976 -0.1032 -0.1551  0.9825
     7 C(13)  Bbb    -0.0180    -2.411    -0.860    -0.804 -0.4104  0.9064  0.1000
              Bcc     0.0398     5.336     1.904     1.780  0.9060  0.3929  0.1573
 
              Baa    -0.0537    -7.212    -2.574    -2.406 -0.2436  0.7545  0.6094
     8 C(13)  Bbb    -0.0533    -7.148    -2.550    -2.384  0.1030 -0.6047  0.7898
              Bcc     0.1070    14.360     5.124     4.790  0.9644  0.2552  0.0696
 
              Baa    -0.0608    -8.161    -2.912    -2.722 -0.4046  0.8370 -0.3684
     9 C(13)  Bbb    -0.0597    -8.005    -2.856    -2.670 -0.2112  0.3064  0.9282
              Bcc     0.1205    16.166     5.768     5.392  0.8898  0.4534  0.0528
 
              Baa    -0.0203   -10.817    -3.860    -3.608  0.2077  0.5379  0.8170
    10 H(1)   Bbb     0.0043     2.312     0.825     0.771  0.3746  0.7278 -0.5744
              Bcc     0.0159     8.505     3.035     2.837  0.9036 -0.4253  0.0503
 
              Baa    -0.0145    -7.746    -2.764    -2.584 -0.3187  0.9396  0.1251
    11 H(1)   Bbb    -0.0043    -2.274    -0.812    -0.759  0.9477  0.3180  0.0259
              Bcc     0.0188    10.020     3.575     3.342  0.0155 -0.1268  0.9918
 
              Baa    -0.0076    -4.061    -1.449    -1.354  0.3716 -0.3209  0.8712
    12 H(1)   Bbb    -0.0017    -0.908    -0.324    -0.303  0.7543  0.6515 -0.0817
              Bcc     0.0093     4.968     1.773     1.657 -0.5413  0.6874  0.4842
 
              Baa    -0.0087    -4.666    -1.665    -1.556  0.1184  0.8106  0.5735
    13 H(1)   Bbb     0.0001     0.055     0.020     0.018 -0.1012 -0.5647  0.8191
              Bcc     0.0086     4.611     1.645     1.538  0.9878 -0.1550  0.0152
 
              Baa    -0.0035    -1.874    -0.669    -0.625 -0.0112  0.9995  0.0310
    14 H(1)   Bbb    -0.0027    -1.433    -0.511    -0.478  0.8037 -0.0095  0.5950
              Bcc     0.0062     3.307     1.180     1.103 -0.5950 -0.0316  0.8031
 
              Baa    -0.0049    -2.619    -0.934    -0.874 -0.0148 -0.0052  0.9999
    15 H(1)   Bbb    -0.0014    -0.750    -0.268    -0.250  0.8949  0.4461  0.0156
              Bcc     0.0063     3.369     1.202     1.124 -0.4461  0.8950 -0.0020
 
              Baa    -0.0043    -2.283    -0.815    -0.762  0.1418  0.9173  0.3721
    16 H(1)   Bbb    -0.0040    -2.118    -0.756    -0.707  0.2930 -0.3980  0.8694
              Bcc     0.0082     4.401     1.571     1.468  0.9455 -0.0143 -0.3252
 
              Baa    -0.0028    -1.504    -0.537    -0.502 -0.1656  0.9537  0.2512
    17 H(1)   Bbb     0.0001     0.068     0.024     0.023  0.8018  0.2785 -0.5287
              Bcc     0.0027     1.435     0.512     0.479  0.5741 -0.1139  0.8108
 
              Baa    -0.0070    -3.749    -1.338    -1.250 -0.4074  0.9090  0.0877
    18 H(1)   Bbb    -0.0018    -0.954    -0.340    -0.318  0.7850  0.2996  0.5422
              Bcc     0.0088     4.702     1.678     1.569 -0.4666 -0.2898  0.8356
 
              Baa    -0.0079    -4.210    -1.502    -1.404  0.2762 -0.5826  0.7644
    19 H(1)   Bbb    -0.0049    -2.636    -0.940    -0.879  0.9341 -0.0247 -0.3563
              Bcc     0.0128     6.846     2.443     2.283  0.2264  0.8124  0.5374
 
              Baa    -0.0092    -4.922    -1.756    -1.642 -0.5613  0.8265 -0.0423
    20 H(1)   Bbb     0.0008     0.438     0.156     0.146  0.7955  0.5247 -0.3030
              Bcc     0.0084     4.485     1.600     1.496  0.2283  0.2037  0.9520
 
              Baa    -0.0094    -5.036    -1.797    -1.680 -0.0918  0.0388  0.9950
    21 H(1)   Bbb    -0.0005    -0.250    -0.089    -0.083  0.9778  0.1924  0.0827
              Bcc     0.0099     5.286     1.886     1.763 -0.1882  0.9805 -0.0556
 

 ---------------------------------------------------------------------------------

   1 Symmetry operations used in ECPInt.
 ECPInt:  NShTT=   10878 NPrTT=   32112 LenC2=   10577 LenP2D=   24962.
 LDataN:  DoStor=T MaxTD1= 7 Len=  274
 Calling FoFJK, ICntrl=      2127 FMM=F ISym2X=0 I1Cent= 0 IOpClX= 1 NMat=1 NMatS=1 NMatT=0.
 ***** Axes restored to original set *****
 -------------------------------------------------------------------
 Center     Atomic                   Forces (Hartrees/Bohr)
 Number     Number              X              Y              Z
 -------------------------------------------------------------------
      1        8           0.008652151   -0.003893521    0.000938020
      2        6          -0.037494776    0.040660767   -0.011919177
      3        8           0.018729062   -0.025413308    0.012385161
      4        6           0.048415215   -0.017844185   -0.006548353
      5        6          -0.005271842    0.002028084    0.005701283
      6        6           0.006297575    0.000098951   -0.008441389
      7        6          -0.010485872    0.004989011    0.007023366
      8        6           0.017461087   -0.015258150   -0.016244330
      9        6          -0.026805805    0.009499017    0.020496413
     10        1          -0.009454971    0.004789801   -0.001565742
     11        1          -0.009001625   -0.001436187   -0.001730367
     12        1           0.003056861   -0.001425106   -0.002047437
     13        1          -0.000026570   -0.000473988    0.001287642
     14        1           0.000786114   -0.000305975    0.000493969
     15        1          -0.003029600   -0.000529829   -0.000536850
     16        1           0.000470312   -0.000370275   -0.002730367
     17        1           0.000682728    0.000338369   -0.000586353
     18        1           0.000129474    0.000532815    0.000972227
     19        1          -0.006545990    0.002654146    0.003484235
     20        1           0.001941796    0.000767570   -0.000310237
     21        1           0.001494677    0.000591994   -0.000121714
 -------------------------------------------------------------------
 Cartesian Forces:  Max     0.048415215 RMS     0.012501132

 GradGradGradGradGradGradGradGradGradGradGradGradGradGradGradGradGradGrad
 Berny optimization.
 FormGI is forming the generalized inverse of G from B-inverse, IUseBI=4.
 Internal  Forces:  Max     0.024541603 RMS     0.004579736
 Search for a local minimum.
 Step number   1 out of a maximum of  126
 All quantities printed in internal units (Hartrees-Bohrs-Radians)
 Mixed Optimization -- RFO/linear search
 Second derivative matrix not updated -- first step.
 ITU=  0
     Eigenvalues ---    0.00553   0.00615   0.00679   0.00695   0.01073
     Eigenvalues ---    0.01932   0.01986   0.02364   0.03763   0.03936
     Eigenvalues ---    0.03978   0.04207   0.04803   0.04856   0.04899
     Eigenvalues ---    0.05442   0.05590   0.05616   0.06069   0.06588
     Eigenvalues ---    0.07968   0.08082   0.08089   0.08125   0.08146
     Eigenvalues ---    0.08327   0.08614   0.12042   0.12048   0.14142
     Eigenvalues ---    0.15867   0.16000   0.17332   0.21042   0.24996
     Eigenvalues ---    0.25000   0.27521   0.28156   0.28399   0.29336
     Eigenvalues ---    0.29771   0.29827   0.31700   0.34185   0.34185
     Eigenvalues ---    0.34195   0.34216   0.34222   0.34416   0.34631
     Eigenvalues ---    0.34632   0.34659   0.34678   0.34746   0.53801
     Eigenvalues ---    0.55196   1.05125
 RFO step:  Lambda=-1.26628850D-02 EMin= 5.52846561D-03
 Linear search not attempted -- first point.
 Iteration  1 RMS(Cart)=  0.04053552 RMS(Int)=  0.00141499
 Iteration  2 RMS(Cart)=  0.00193123 RMS(Int)=  0.00061671
 Iteration  3 RMS(Cart)=  0.00000274 RMS(Int)=  0.00061671
 Iteration  4 RMS(Cart)=  0.00000000 RMS(Int)=  0.00061671
 Variable       Old X    -DE/DX   Delta X   Delta X   Delta X     New X
                                 (Linear)    (Quad)   (Total)
    R1        2.26654  -0.00010   0.00000  -0.00010  -0.00010   2.26644
    R2        2.54958  -0.02454   0.00000  -0.04347  -0.04347   2.50611
    R3        2.84696   0.01742   0.00000   0.05286   0.05286   2.89981
    R4        1.82914   0.00769   0.00000   0.01397   0.01397   1.84311
    R5        2.88152  -0.00106   0.00000  -0.00605  -0.00613   2.87539
    R6        2.90704   0.00024   0.00000  -0.00020  -0.00001   2.90704
    R7        2.07020   0.00111   0.00000   0.00313   0.00313   2.07332
    R8        2.88413   0.00009   0.00000   0.00165   0.00169   2.88582
    R9        2.06201   0.00087   0.00000   0.00242   0.00242   2.06443
   R10        2.06633   0.00136   0.00000   0.00380   0.00380   2.07013
   R11        2.88529  -0.00022   0.00000   0.00025   0.00006   2.88535
   R12        2.07019  -0.00046   0.00000  -0.00129  -0.00129   2.06890
   R13        2.06232  -0.00116   0.00000  -0.00323  -0.00323   2.05909
   R14        2.88481  -0.00638   0.00000  -0.01790  -0.01782   2.86698
   R15        2.06278   0.00112   0.00000   0.00311   0.00311   2.06589
   R16        2.06957  -0.00065   0.00000  -0.00184  -0.00184   2.06774
   R17        2.88431   0.00852   0.00000   0.02611   0.02606   2.91037
   R18        2.06968  -0.00081   0.00000  -0.00228  -0.00228   2.06740
   R19        2.06276   0.00124   0.00000   0.00345   0.00345   2.06620
   R20        2.07003  -0.00061   0.00000  -0.00173  -0.00173   2.06829
   R21        2.06089  -0.00023   0.00000  -0.00064  -0.00064   2.06025
    A1        2.12977   0.00741   0.00000   0.02843   0.02830   2.15807
    A2        2.19984  -0.01420   0.00000  -0.05388  -0.05401   2.14583
    A3        1.95334   0.00680   0.00000   0.02606   0.02593   1.97927
    A4        1.86792   0.01361   0.00000   0.07885   0.07885   1.94676
    A5        1.94345   0.00786   0.00000   0.04595   0.04723   1.99068
    A6        1.91046  -0.01365   0.00000  -0.07999  -0.08046   1.83000
    A7        1.86855  -0.00277   0.00000  -0.06154  -0.06141   1.80714
    A8        1.93853   0.00578   0.00000   0.03111   0.03079   1.96932
    A9        1.91986  -0.00235   0.00000   0.01839   0.01749   1.93735
   A10        1.88064   0.00466   0.00000   0.04239   0.03929   1.91992
   A11        1.93527  -0.00190   0.00000  -0.02426  -0.02467   1.91061
   A12        1.91895   0.00239   0.00000   0.01695   0.01672   1.93566
   A13        1.89312   0.00070   0.00000   0.01385   0.01360   1.90672
   A14        1.93634  -0.00266   0.00000  -0.02625  -0.02639   1.90995
   A15        1.91971   0.00148   0.00000   0.01262   0.01321   1.93293
   A16        1.85845   0.00017   0.00000   0.00955   0.00935   1.86780
   A17        1.94143  -0.00320   0.00000  -0.02667  -0.02648   1.91494
   A18        1.90879   0.00182   0.00000   0.01492   0.01503   1.92382
   A19        1.91762  -0.00119   0.00000  -0.01575  -0.01572   1.90190
   A20        1.90473   0.00051   0.00000   0.00691   0.00657   1.91130
   A21        1.92645   0.00283   0.00000   0.02088   0.02079   1.94724
   A22        1.86306  -0.00063   0.00000   0.00114   0.00108   1.86414
   A23        1.93741   0.00107   0.00000   0.00221   0.00120   1.93861
   A24        1.92672  -0.00264   0.00000  -0.02247  -0.02238   1.90434
   A25        1.90407   0.00140   0.00000   0.01409   0.01433   1.91840
   A26        1.92414  -0.00024   0.00000  -0.01062  -0.01059   1.91354
   A27        1.90424  -0.00017   0.00000   0.01086   0.01104   1.91528
   A28        1.86564   0.00061   0.00000   0.00679   0.00681   1.87246
   A29        1.94389   0.00398   0.00000   0.00612   0.00569   1.94958
   A30        1.90648  -0.00175   0.00000   0.01580   0.01536   1.92184
   A31        1.92864   0.00339   0.00000   0.02205   0.02168   1.95032
   A32        1.90267   0.00134   0.00000   0.01594   0.01590   1.91857
   A33        1.91560  -0.00829   0.00000  -0.06826  -0.06809   1.84750
   A34        1.86467   0.00122   0.00000   0.00895   0.00861   1.87327
   A35        1.93159  -0.01112   0.00000  -0.07219  -0.07177   1.85982
   A36        1.89303   0.00397   0.00000   0.03201   0.03141   1.92443
   A37        1.91718   0.00467   0.00000   0.02171   0.02058   1.93776
   A38        1.91102   0.00293   0.00000   0.00939   0.00968   1.92070
   A39        1.93460   0.00141   0.00000   0.00023   0.00018   1.93478
   A40        1.87509  -0.00148   0.00000   0.01227   0.01165   1.88674
    D1        0.01330  -0.00018   0.00000   0.00323   0.00384   0.01714
    D2       -3.10613  -0.00058   0.00000  -0.02398  -0.02458  -3.13071
    D3        0.25950   0.00103   0.00000   0.00448   0.00467   0.26417
    D4       -1.89068  -0.00212   0.00000  -0.01032  -0.00796  -1.89865
    D5        2.35863   0.00099   0.00000   0.01489   0.01296   2.37159
    D6       -2.90532   0.00179   0.00000   0.03433   0.03411  -2.87121
    D7        1.22768  -0.00135   0.00000   0.01953   0.02148   1.24915
    D8       -0.80620   0.00175   0.00000   0.04474   0.04240  -0.76379
    D9       -3.11487   0.00106   0.00000  -0.01213  -0.01242  -3.12729
   D10        1.02056   0.00408   0.00000   0.02599   0.02612   1.04669
   D11       -1.00516   0.00217   0.00000  -0.00260  -0.00280  -1.00796
   D12       -0.98080  -0.00685   0.00000  -0.06053  -0.06069  -1.04149
   D13       -3.12855  -0.00383   0.00000  -0.02241  -0.02215   3.13249
   D14        1.12890  -0.00575   0.00000  -0.05100  -0.05107   1.07784
   D15        1.09973   0.00109   0.00000   0.02375   0.02302   1.12275
   D16       -1.04802   0.00411   0.00000   0.06188   0.06157  -0.98646
   D17       -3.07375   0.00220   0.00000   0.03328   0.03264  -3.04111
   D18        3.12904   0.00557   0.00000   0.06789   0.06777  -3.08637
   D19        1.03236   0.00620   0.00000   0.07986   0.08042   1.11279
   D20       -1.01229   0.00307   0.00000   0.03449   0.03446  -0.97784
   D21        0.97595   0.00117   0.00000   0.04410   0.04448   1.02042
   D22       -1.12074   0.00179   0.00000   0.05607   0.05713  -1.06361
   D23        3.11780  -0.00133   0.00000   0.01070   0.01116   3.12896
   D24       -1.12793  -0.00237   0.00000  -0.02409  -0.02545  -1.15338
   D25        3.05857  -0.00175   0.00000  -0.01212  -0.01280   3.04578
   D26        1.01392  -0.00488   0.00000  -0.05749  -0.05876   0.95515
   D27        0.98110   0.00013   0.00000   0.01191   0.01097   0.99207
   D28       -1.12407   0.00034   0.00000   0.01047   0.01000  -1.11407
   D29        3.11957   0.00073   0.00000   0.00947   0.00917   3.12874
   D30        3.11878   0.00001   0.00000  -0.00162  -0.00196   3.11681
   D31        1.01360   0.00021   0.00000  -0.00306  -0.00293   1.01067
   D32       -1.02594   0.00061   0.00000  -0.00406  -0.00377  -1.02971
   D33       -1.11281  -0.00049   0.00000   0.00197   0.00144  -1.11137
   D34        3.06520  -0.00028   0.00000   0.00053   0.00047   3.06567
   D35        1.02566   0.00011   0.00000  -0.00047  -0.00037   1.02529
   D36       -0.97481  -0.00156   0.00000  -0.02697  -0.02707  -1.00188
   D37       -3.11389  -0.00016   0.00000   0.00059   0.00057  -3.11332
   D38        1.12414  -0.00020   0.00000  -0.00301  -0.00303   1.12111
   D39        1.13276  -0.00098   0.00000  -0.02076  -0.02093   1.11183
   D40       -1.00633   0.00042   0.00000   0.00681   0.00672  -0.99961
   D41       -3.05149   0.00038   0.00000   0.00321   0.00312  -3.04837
   D42       -3.10817   0.00019   0.00000  -0.00317  -0.00319  -3.11137
   D43        1.03592   0.00159   0.00000   0.02439   0.02445   1.06038
   D44       -1.00923   0.00155   0.00000   0.02079   0.02085  -0.98838
   D45        0.97341   0.00518   0.00000   0.05644   0.05676   1.03017
   D46       -1.12924   0.00214   0.00000   0.02225   0.02246  -1.10678
   D47        3.10741  -0.00028   0.00000  -0.01104  -0.01114   3.09627
   D48        3.11399   0.00239   0.00000   0.02204   0.02219   3.13618
   D49        1.01134  -0.00065   0.00000  -0.01215  -0.01210   0.99924
   D50       -1.03519  -0.00306   0.00000  -0.04543  -0.04571  -1.08090
   D51       -1.12543   0.00289   0.00000   0.03056   0.03079  -1.09464
   D52        3.05511  -0.00015   0.00000  -0.00363  -0.00351   3.05160
   D53        1.00857  -0.00257   0.00000  -0.03691  -0.03711   0.97147
   D54       -0.97148   0.00011   0.00000  -0.02990  -0.02944  -1.00092
   D55        1.11440  -0.00002   0.00000  -0.02917  -0.02887   1.08553
   D56       -3.10316   0.00084   0.00000  -0.00807  -0.00820  -3.11136
   D57        1.13340   0.00132   0.00000   0.00414   0.00449   1.13789
   D58       -3.06390   0.00119   0.00000   0.00488   0.00505  -3.05884
   D59       -0.99827   0.00205   0.00000   0.02598   0.02572  -0.97255
   D60       -3.11300  -0.00113   0.00000  -0.01457  -0.01442  -3.12742
   D61       -1.02711  -0.00126   0.00000  -0.01383  -0.01386  -1.04097
   D62        1.03851  -0.00040   0.00000   0.00726   0.00681   1.04532
         Item               Value     Threshold  Converged?
 Maximum Force            0.024542     0.000450     NO 
 RMS     Force            0.004580     0.000300     NO 
 Maximum Displacement     0.194154     0.001800     NO 
[...]
 0.00102028,0.00154391,0.00050973,-0.00097551,-0.00189235,-0.00005905,0
 .00056074,0.00203897,-0.00020320,-0.00128224,-0.00176755,-0.00019983,0
 .00081977,-0.01171633,0.03411185,0.00046072,-0.00316084,-0.00208257,-0
 .02713381,0.00647707,0.00416404,0.12613966,0.01158222,-0.05397056,-0.0
 0223592,0.00227184,0.00070062,0.00073833,-0.00023104,0.00030891,-0.000
 94149,-0.00023210,0.00026387,0.00038991,0.00007710,-0.00007142,-0.0001
 9377,0.00009454,-0.00013565,0.00059372,0.00077267,0.00023130,-0.097431
 38,-0.01758359,0.04977030,-0.00042085,-0.00081495,-0.00167238,-0.01392
 603,-0.00019216,0.01999732,-0.00102753,-0.00229274,0.00071478,-0.03939
 252,0.00915272,-0.00331708,0.00167193,-0.00191543,-0.01839407,-0.00002
 654,0.00184541,0.00306715,0.00612974,-0.00194658,-0.00264989,-0.003209
 50,0.00407379,0.00424034,0.00240313,-0.00271105,-0.01738174,0.00011390
 ,0.00067414,0.00010351,0.04707452,0.00097763,0.00002126,-0.00046905,-0
 .00344308,0.00266488,0.00108802,0.00157705,-0.00094024,0.00015073,0.00
 327436,-0.06505254,0.05238529,0.00236517,-0.00261065,0.02794906,-0.001
 04278,-0.00178410,0.00075968,0.00147714,0.00114841,-0.00003386,-0.0010
 0783,-0.00157912,-0.00048824,0.00185984,0.00924646,-0.02425291,-0.0001
 5270,-0.00005268,-0.00021562,-0.00666963,0.06430659,0.00297591,0.00047
 895,-0.00017322,0.00110805,0.00322567,-0.01426981,-0.00323099,0.000220
 20,0.00153137,-0.01688196,0.04857397,-0.29597893,0.00081228,0.00136694
 ,-0.00358190,-0.00039010,-0.00065351,0.00126264,0.00151031,0.00009749,
 -0.00045581,-0.00088913,0.00045870,0.00100831,0.00173007,0.00216225,-0
 .01501852,0.00021611,0.00043876,0.00070147,0.01426733,-0.05485145,0.32
 207961,0.00128224,-0.00166735,0.00060228,-0.00064873,0.00578292,-0.002
 85579,0.00008583,-0.00145390,0.00099198,0.00610009,0.01545650,0.012922
 90,-0.07368890,-0.08159821,-0.06106088,-0.01955541,-0.02328773,-0.0121
 6377,-0.00122816,-0.00156843,0.00093143,-0.00065313,0.00010706,-0.0005
 4072,-0.00442875,0.00352187,-0.00069051,-0.00035458,0.00032035,-0.0001
 3645,-0.00115898,-0.00124495,-0.00046053,0.09146157,-0.00046021,0.0014
 7470,-0.00012197,0.00028967,-0.00394420,0.00231728,0.00012312,0.000744
 23,-0.00071204,-0.01195703,-0.02106512,-0.01746880,-0.07578270,-0.1978
 2371,-0.10549582,-0.00162582,-0.00376952,-0.00316574,-0.00148538,0.003
 17113,0.00169879,-0.00025989,0.00003428,0.00062414,0.00541771,-0.00265
 846,0.00176231,0.00022884,-0.00025441,0.00002986,0.00147823,0.00155227
 ,0.00067954,0.08220341,0.21723013,-0.00040895,0.00123698,-0.00051471,0
 .00103087,-0.00160582,0.00189755,-0.00060099,0.00078253,-0.00086940,0.
 00196755,0.00096817,0.00162828,-0.05984661,-0.10298758,-0.12631361,0.0
 0723550,0.00340836,0.00153529,-0.00017147,0.00299174,0.00135451,-0.002
 16992,-0.00205039,0.00027726,0.00249099,0.00416036,0.00209941,0.000276
 33,-0.00011812,0.00005479,0.00161143,-0.00074833,0.00068389,0.06053696
 ,0.11673335,0.13100075,-0.00061068,-0.00116832,0.00122201,0.00369548,-
 0.00000657,-0.00012965,0.00009692,-0.00021266,0.00012489,-0.00323532,0
 .00669942,-0.02394372,-0.04171235,-0.00427464,0.01796668,-0.00859109,-
 0.00862313,0.02999017,0.00135318,0.00227432,0.00179274,0.00146890,-0.0
 0203028,-0.00157331,-0.00199231,0.00063482,0.00171476,0.00000480,-0.00
 014779,-0.00004939,0.00157083,0.00458537,0.00077158,0.00054250,0.00213
 175,-0.01087919,0.05172050,-0.00027089,0.00012126,-0.00032599,0.001177
 77,-0.00029652,0.00107054,-0.00028285,0.00026344,-0.00023823,-0.002924
 61,-0.00822870,0.02930926,-0.00237395,-0.06393909,0.05465187,-0.001581
 92,-0.00139881,0.00089169,-0.00047630,0.00040712,0.00126342,0.00091066
 ,-0.00069179,-0.00047334,-0.00088905,0.00179706,0.00171561,0.00006582,
 -0.00000065,-0.00012616,0.00364952,-0.00379454,0.00048742,0.00225199,0
 .00645748,-0.02310518,0.00060741,0.06839704,0.00059270,-0.00048477,0.0
 0027891,-0.00021395,0.00059077,-0.00076710,-0.00000632,-0.00003106,0.0
 0006472,-0.00019179,0.00177329,-0.00502101,0.01267656,0.05690095,-0.30
 520315,0.00293552,0.00112979,-0.00683777,-0.00115210,-0.00034453,0.000
 83030,0.00032022,0.00028668,0.00004259,0.00011157,-0.00114970,0.000771
 02,-0.00002816,-0.00002820,0.00002652,-0.00045959,0.00008753,0.0009395
 8,0.00143901,0.00435685,-0.01474302,-0.01741954,-0.06341913,0.32727281
 ,-0.00035934,0.00048245,-0.00049917,-0.00063963,-0.00015610,0.00027304
 ,0.00006788,0.00007444,-0.00006468,0.00150219,-0.00272707,0.00251744,-
 0.00774917,-0.00438091,0.03072405,-0.04470713,-0.00006742,0.01661576,-
 0.00145386,0.00005780,-0.01574112,-0.00016214,0.00035445,0.00010743,-0
 .00004765,0.00072521,0.00024635,-0.00001940,0.00002401,0.00002921,-0.0
 0064266,0.00028788,-0.00023358,0.00137121,0.00031240,-0.00044282,-0.00
 505784,0.00016328,0.00083029,0.05461127,-0.00007758,0.00016294,-0.0001
 9952,-0.00047603,-0.00007438,0.00033774,0.00004003,0.00003745,-0.00006
 411,0.00101413,-0.00015649,-0.00056262,-0.00192444,-0.00241405,0.00352
 361,0.00049536,-0.05472060,0.04253648,0.00099970,0.00109985,-0.0279254
 7,-0.00007708,0.00253248,-0.00101498,0.00003149,-0.00023984,-0.0000697
 2,0.00002026,-0.00001435,0.00002146,-0.00006770,0.00020947,-0.00003971
 ,0.00001283,0.00017648,0.00038178,-0.00065409,0.00080900,-0.00018916,0
 .00472245,0.05882463,0.00006386,-0.00040346,0.00023581,-0.00005035,0.0
 0081103,-0.00059608,0.00006502,-0.00026683,0.00021944,-0.00039374,0.00
 052805,0.00039332,0.00228882,0.00058638,-0.00618727,0.01582628,0.04174
 099,-0.30645794,0.00099199,0.00179668,-0.01675968,0.00004894,0.0012184
 6,0.00078393,-0.00010782,-0.00027653,-0.00003813,-0.00004636,0.0000434
 9,-0.00002219,0.00021112,-0.00053709,-0.00000748,0.00007085,0.00010958
 ,0.00053295,0.00078651,0.00009412,0.00112197,-0.01857867,-0.04303766,0
 .33171012,-0.00040249,0.00143457,-0.00064707,-0.00228647,-0.00284208,0
 .00250484,0.00006549,0.00078050,-0.00073623,-0.00053693,-0.00146296,0.
 00209464,-0.02489483,0.02348136,-0.00473928,-0.10516107,0.11736909,-0.
 03106464,0.00636962,-0.01469624,0.00425504,-0.00260980,0.00170839,0.00
 001044,0.00215149,-0.00250996,-0.00209883,0.00014226,-0.00022368,0.000
 06473,0.00021512,0.00028000,0.00007258,0.00175431,0.00007419,-0.000427
 22,0.00133861,0.00010898,0.00007031,0.00186073,-0.00286809,0.00038347,
 0.11975111,-0.00040532,0.00134305,-0.00045008,-0.00146842,-0.00412138,
 0.00232626,0.00059448,0.00065971,-0.00067062,0.00202486,0.00266103,0.0
 0006032,-0.00804589,0.00148594,0.00029614,0.11496811,-0.24239937,0.050
 47520,0.00988620,-0.02079372,0.00594131,-0.00397936,0.00159682,-0.0015
 7890,0.00143507,-0.00242166,-0.00211570,0.00013113,-0.00023061,0.00011
 115,0.00034231,0.00067717,0.00006052,0.00079546,0.00053361,0.00029529,
 -0.00001314,0.00009643,-0.00014050,0.00243695,-0.00321215,0.00079053,-
 0.12087057,0.26350450,0.00003332,-0.00039188,0.00029110,0.00091614,0.0
 0038809,-0.00053410,-0.00008117,-0.00014379,0.00014081,0.00021878,0.00
 084189,-0.00042503,0.00854163,-0.00717981,0.00136590,-0.03386292,0.050
 40895,-0.06243813,0.01054973,-0.01211180,0.00419646,-0.00200975,-0.004
 04893,-0.00171200,-0.00021037,0.00082638,0.00002056,0.00001896,0.00004
 740,-0.00000925,0.00018980,-0.00036984,0.00006693,-0.00069379,0.000094
 71,0.00001309,-0.00059585,-0.00059657,0.00033121,-0.01501870,0.0271346
 2,-0.00631426,0.03134941,-0.05420931,0.06321084,0.00163107,-0.00073720
 ,0.00013708,-0.00388706,0.00385076,-0.00211946,0.00093977,-0.00151737,
 0.00100130,0.00406422,-0.00095638,0.00027307,0.00328215,-0.00345999,-0
 .00264318,-0.01648431,-0.00385154,0.00487360,-0.26545630,-0.03259630,0
 .07448493,-0.02151131,-0.00072932,0.00589227,0.00048953,0.00463606,-0.
 00024893,-0.00032228,0.00024068,-0.00007018,-0.00114771,-0.00023377,-0
 .00034156,-0.00127003,0.00010899,0.00023611,0.00019124,0.00013974,0.00
 007270,0.00099108,0.00052877,-0.00044118,0.00039159,0.00009866,-0.0001
 8368,0.29695946,0.00000926,0.00001703,0.00030727,-0.00022586,0.0002173
 8,-0.00047333,0.00019194,-0.00019497,0.00009204,-0.00119421,-0.0053059
 3,-0.00170048,-0.00285920,0.00114036,-0.00125538,-0.02392566,-0.009598
 40,0.00416872,-0.03014683,-0.03771749,0.01403775,0.01985108,-0.0030587
 3,-0.00725456,0.00919527,0.00219683,0.00107636,0.00000806,0.00008415,0
 .00003465,0.00009443,-0.00025506,-0.00002678,-0.00087247,-0.00067559,-
 0.00085119,0.00032062,0.00000911,-0.00013101,0.00070309,0.00126707,0.0
 0017373,0.00055825,0.00064143,0.00021562,0.03479269,0.05219520,-0.0017
 1022,0.00148879,-0.00036915,0.00461604,-0.00510494,0.00288440,-0.00136
 290,0.00203095,-0.00144369,-0.00439936,0.00053046,-0.00026097,-0.00459
 848,0.00258925,0.00132850,-0.01181200,-0.00519098,0.00056275,0.0706709
 9,0.01516854,-0.06577996,-0.00144505,-0.00118208,-0.00037319,-0.001494
 59,-0.00303663,0.00003101,0.00048664,-0.00035619,0.00009299,0.00124852
 ,0.00018740,0.00016478,0.00049615,-0.00062107,-0.00036180,-0.00029353,
 -0.00026565,0.00012855,0.00025921,0.00092678,0.00069247,0.00022853,-0.
 00004556,0.00020359,-0.07998101,-0.01105054,0.07041167,0.00034085,-0.0
 0026370,0.00025880,-0.00044791,0.00080327,-0.00098708,0.00013776,-0.00
 033257,0.00027847,-0.00008868,-0.00004614,-0.00015738,0.00231636,0.000
 20085,-0.00111422,-0.00373880,0.00071738,-0.01147046,-0.04684585,0.001
 13553,-0.00237220,-0.00489247,0.00354990,-0.01747365,0.00291419,0.0005
 4447,-0.00075636,-0.00009377,0.00007928,-0.00002160,-0.00013306,-0.000
 03780,-0.00009613,-0.00001038,-0.00002305,0.00017749,-0.00027436,-0.00
 030741,0.00018061,0.00058290,-0.00151076,-0.00140504,0.00016764,-0.000
 04042,0.00047787,0.00059975,-0.00549319,0.02857702,0.04961157,0.000078
 77,0.00004351,0.00005188,-0.00048352,0.00011215,-0.00026530,0.00012095
 ,-0.00012960,0.00008935,0.00039892,-0.00039559,0.00008244,0.00068616,0
 .00063836,-0.00018788,-0.00034742,0.00483341,-0.02823995,0.00143599,-0
 .05809278,0.04807134,-0.00102901,-0.00680800,0.03094783,0.00018133,0.0
 0072295,0.00015330,-0.00004138,0.00001857,0.00000063,-0.00013018,-0.00
 017716,-0.00009207,0.00032352,-0.00006136,0.00018131,-0.00026146,0.000
 07035,0.00047842,-0.00282778,-0.00393551,-0.00265716,0.00050247,0.0007
 7121,0.00043235,-0.00008788,-0.00120054,0.00356607,-0.00228971,0.06646
 135,-0.00006159,0.00009794,-0.00000113,0.00002683,-0.00023661,0.000031
 43,-0.00004726,0.00008221,-0.00004587,-0.00007346,0.00000940,0.0001013
 0,0.00022731,0.00090773,0.00068633,0.00054449,0.00149947,-0.01611831,-
 0.00386017,0.04893862,-0.30409570,0.00011941,0.00179575,-0.00459530,0.
 00034346,-0.00081288,0.00040185,0.00001772,-0.00001353,0.00000015,0.00
 013063,-0.00001349,-0.00009748,0.00019594,-0.00012553,0.00031037,-0.00
 074535,-0.00007307,0.00034257,-0.00122444,-0.00247892,0.00013930,0.000
 08756,-0.00019780,0.00044078,-0.00038637,0.00154482,-0.00904176,0.0054
 8069,-0.05182269,0.32931589,-0.00036111,-0.00025727,-0.00044015,0.0008
 0974,-0.00014838,0.00124801,-0.00003383,0.00026627,-0.00025015,0.00085
 870,0.00267857,0.00353186,0.00022822,-0.00096124,-0.00044696,0.0000074
 0,0.00027498,0.00002940,-0.00157039,0.00510419,-0.01991090,-0.03832508
 ,-0.00071672,0.00687599,-0.01293313,-0.00975183,0.02495380,0.00005988,
 0.00000551,0.00006287,-0.00040696,-0.00023713,-0.00010321,-0.00006226,
 -0.00003340,0.00032303,-0.00029801,0.00001288,-0.00003102,0.00003391,-
 0.00002126,0.00045862,0.00004336,0.00003326,0.00004691,0.00147530,-0.0
 0068977,0.00042946,0.00016005,0.00435574,0.00008069,0.05175543,-0.0001
 3469,-0.00003200,-0.00009459,0.00023256,-0.00029417,0.00038483,0.00005
 984,0.00008409,-0.00009670,-0.00034880,0.00063147,0.00153214,-0.000103
 90,-0.00034775,-0.00011152,-0.00019470,0.00204605,0.00130290,-0.001926
 16,-0.00747536,0.02775799,0.00057116,-0.06536655,0.06183924,-0.0032290
 7,-0.00267273,0.00105697,0.00000645,-0.00000311,0.00001319,-0.00031743
 ,0.00001686,0.00011335,-0.00005897,-0.00002624,0.00006062,0.00005114,0
 .00002575,-0.00007880,-0.00010780,-0.00041128,-0.00074268,0.00019833,0
 .00027216,-0.00032781,0.00005743,0.00118622,-0.00048767,0.00324372,-0.
 00403785,0.00045859,-0.00059719,0.06896807,-0.00011733,-0.00025991,0.0
 0020882,-0.00027282,0.00034575,-0.00030946,0.00011760,-0.00022052,0.00
 015313,-0.00049864,-0.00040726,0.00064140,-0.00002530,0.00005495,0.000
 04949,0.00018380,-0.00045861,0.00105078,-0.00026538,0.00096425,-0.0049
 7896,0.00698150,0.06229936,-0.30505471,0.00146888,0.00074036,-0.006290
 75,-0.00003311,0.00003378,-0.00000407,-0.00007918,0.00037799,0.0004014
 9,0.00000298,0.00002566,-0.00003618,0.00002356,-0.00008755,-0.00009225
 ,0.00036037,0.00051523,0.00025334,-0.00011616,-0.00006900,0.00022528,-
 0.00049439,0.00023302,0.00031286,-0.00075714,0.00032991,0.00132637,-0.
 00876163,-0.06882559,0.32625622,-0.00044156,0.00099489,-0.00149257,0.0
 0447935,-0.00353892,0.00461912,-0.00179388,0.00253713,-0.00159692,-0.0
 0706295,0.00030962,-0.00189453,0.00409549,0.00153771,-0.00067166,-0.00
 560637,-0.00041201,-0.00101028,0.00740303,0.01501185,0.01226835,-0.058
 38995,-0.07053991,-0.05401452,-0.02488217,-0.01994512,-0.00703165,0.00
 055374,-0.00041197,-0.00002970,0.00166141,0.00007956,0.00027576,-0.000
 35261,0.00027688,0.00008381,-0.00055799,-0.00024236,0.00001452,0.00005
 406,-0.00011096,-0.00016079,0.00157871,0.00188740,0.00033073,-0.000074
 60,-0.00000519,-0.00005830,0.00005339,-0.00067651,-0.00025866,0.001379
 79,0.00224272,0.00116415,0.07516806,0.00049379,-0.00036114,0.00061315,
 -0.00402815,0.00110472,-0.00217996,0.00114736,-0.00117139,0.00085711,0
 .00294430,0.00190397,0.00348111,-0.00140051,-0.00090625,0.00033380,0.0
 0504547,-0.00152489,0.00193547,-0.00969053,-0.01777996,-0.01446705,-0.
 06039738,-0.20270745,-0.10942610,-0.00522196,-0.00777533,-0.00725658,-
 0.00031281,0.00020687,0.00000752,-0.00114118,0.00018502,0.00007410,0.0
 0006695,-0.00009059,0.00009363,0.00019057,0.00004607,0.00002149,-0.000
 06544,0.00007993,-0.00007935,-0.00128158,-0.00133770,-0.00091700,0.000
 24503,0.00001403,0.00044542,0.00012108,0.00092704,0.00046783,0.0010704
 6,0.00656851,0.00476284,0.07068085,0.22152346,0.00066768,-0.00017531,0
 .00083891,-0.00538356,0.00126848,-0.00323365,0.00151813,-0.00169926,0.
 00120579,0.00594980,0.00171996,0.00325556,-0.00411626,-0.00323090,-0.0
 0010874,0.00229351,0.00708911,0.00181136,0.00291015,-0.00052000,0.0021
 6617,-0.05128912,-0.10329982,-0.12151447,0.00892363,-0.00008823,-0.000
 74703,-0.00042614,0.00024805,0.00002564,-0.00160299,0.00045842,0.00004
 628,0.00004892,0.00010660,0.00022304,0.00067494,0.00020870,-0.00007480
 ,-0.00009524,0.00009994,0.00032717,-0.00113549,-0.00072729,0.00088921,
 -0.00029417,0.00063267,0.00026260,0.00065845,-0.00036984,0.00044602,-0
 .00916269,-0.02353187,-0.01515955,0.05021403,0.12087218,0.12895561,-0.
 00063448,-0.00011876,0.00127600,0.00132805,0.00099094,-0.00169759,0.00
 004335,-0.00030362,0.00026507,-0.00246223,-0.00388360,-0.01806822,-0.0
 0359111,0.00070286,0.00140014,0.00188298,0.00160185,-0.00096558,0.0012
 1798,-0.00157091,0.00129581,-0.01265913,-0.00597399,0.02838127,-0.0350
 6485,0.00659415,0.00888777,-0.00017088,-0.00023528,-0.00020937,0.00225
 924,-0.00253677,-0.00071220,0.00036242,-0.00018075,-0.00026920,0.00034
 194,0.00002778,0.00036088,-0.00020456,-0.00015730,-0.00002596,-0.00042
 905,-0.00035804,0.00017690,0.00033113,-0.00047366,-0.00038351,-0.00041
 460,0.00039445,-0.00064890,-0.00392352,0.00022811,0.00088857,0.0014421
 6,0.00106694,-0.00044645,0.04867705,0.00011145,-0.00003185,0.00054764,
 0.00030484,0.00064525,-0.00134870,0.00017496,-0.00009061,0.00026877,0.
 00098164,0.00417630,-0.02729643,-0.00075738,0.00079802,-0.00083898,0.0
 0007204,0.00068656,0.00012794,0.00044982,-0.00073236,-0.00117270,-0.00
 297465,0.00001704,0.00422130,0.00381053,-0.06393087,0.05587915,-0.0000
 9057,0.00003446,-0.00002432,-0.00171784,-0.00393189,-0.00232878,-0.000
 08929,0.00003196,0.00051533,-0.00004587,-0.00044470,0.00042705,-0.0000
 1446,-0.00005584,0.00011896,-0.00012019,-0.00020641,0.00005193,-0.0001
 1746,0.00011363,-0.00000175,0.00002406,0.00022937,-0.00004209,-0.00031
 340,0.00076952,-0.00018307,0.00018117,0.00013267,0.00010896,0.00172265
 ,0.06362123,-0.00027494,-0.00006036,0.00069922,0.00031796,0.00031280,-
 0.00120140,-0.00023274,-0.00008758,0.00003065,0.00007676,0.00175550,-0
 .01627558,-0.00061942,0.00069037,0.00067754,0.00058076,0.00020888,0.00
 005704,-0.00131691,-0.00078078,0.00056543,-0.00008265,0.00185321,-0.00
 811613,0.00455411,0.05225905,-0.30993956,-0.00005625,-0.00008702,-0.00
 009918,-0.00075826,-0.00219930,0.00012560,-0.00011247,0.00008647,0.000
 35426,0.00050988,-0.00059569,0.00033511,-0.00017775,0.00006736,0.00000
 442,-0.00002477,-0.00003401,0.00002902,-0.00000361,0.00021077,0.000320
 15,0.00030891,-0.00048013,0.00017555,0.00151286,0.00031102,0.00092922,
 -0.00017733,0.00040532,0.00052189,-0.00478545,-0.05460713,0.33383837,0
 .00061368,-0.00110557,0.00032043,0.00075538,0.00207156,-0.00247804,-0.
 00126066,-0.00146171,0.00041084,0.00334476,-0.01810155,0.00329797,0.00
 150759,0.00158773,-0.00210355,-0.00121711,-0.00332815,-0.00054670,-0.0
 0056169,0.00126626,0.00216733,-0.02163345,0.01768063,-0.00366369,-0.10
 485928,0.12665014,-0.03001269,-0.00025608,0.00028587,-0.00012960,-0.00
 160747,-0.00015756,-0.00040058,0.00045175,-0.00083697,-0.00075370,0.00
 000503,0.00023349,-0.00010242,-0.00003184,0.00008026,0.00001443,0.0004
 9062,0.00054727,-0.00019397,-0.00119268,0.00016134,0.00052640,0.000055
 42,-0.00030346,0.00005148,0.00110249,0.00012726,0.00022965,0.00129288,
 0.00046676,0.00009288,0.00166810,-0.00159207,0.00076130,0.12133257,0.0
 0026507,-0.00064288,0.00013855,0.00079736,-0.00023518,-0.00147428,0.00
 046606,0.00020405,0.00058694,0.00921980,-0.02268473,0.00523997,-0.0013
 6282,0.00134837,-0.00319149,-0.00097546,-0.00246072,-0.00074647,0.0021
 7167,0.00433160,0.00041861,-0.00704213,-0.00123324,0.00040417,0.119037
 29,-0.24286939,0.04927958,-0.00027991,0.00060183,0.00007977,-0.0013936
 6,0.00014959,-0.00044555,0.00099844,-0.00103705,-0.00034283,-0.0000574
 6,0.00029469,-0.00005597,0.00000261,0.00003517,-0.00001123,0.00037923,
 0.00047995,-0.00014517,-0.00041160,-0.00107573,0.00040941,-0.00007480,
 0.00001013,0.00001424,-0.00007425,0.00009835,-0.00017159,0.00014315,0.
 00096241,0.00082945,0.00246293,-0.00183147,0.00077125,-0.12427152,0.26
 555425,-0.00019732,0.00043967,-0.00021445,-0.00026349,-0.00120919,0.00
 080325,-0.00019280,-0.00014809,-0.00029872,0.01227043,-0.01240508,0.00
 532477,-0.00295566,-0.00330031,-0.00183320,-0.00040018,0.00109375,0.00
 025978,0.00060979,0.00003458,-0.00042620,0.00728485,-0.00577911,0.0014
 8917,-0.03437383,0.04862016,-0.06815626,-0.00004502,0.00014279,0.00005
 427,0.00053326,0.00073505,0.00057122,0.00047551,-0.00091417,0.00087329
 ,0.00005180,-0.00038606,0.00025321,0.00011305,0.00003689,-0.00003122,-
 0.00013188,-0.00011794,0.00000801,0.00023666,0.00001584,0.00023420,0.0
 0021295,-0.00026982,0.00027764,-0.00044680,-0.00053358,0.00011752,-0.0
 0057356,-0.00004496,-0.00013703,-0.01471999,0.02557692,-0.00303163,0.0
 3251223,-0.05158735,0.06386239\\0.00000739,-0.00000942,0.00000714,-0.0
 0000234,0.00002994,-0.00003637,0.00000139,-0.00000872,0.00000563,-0.00
 001260,0.00001329,0.00005030,0.00000123,-0.00000928,-0.00000964,-0.000
 00174,0.00000659,0.00001049,-0.00000246,-0.00001734,-0.00000999,0.0000
 2208,0.00003134,0.00000533,-0.00001857,-0.00003236,-0.00001894,0.00000
 247,0.00000532,0.00000221,-0.00000461,-0.00000111,-0.00000807,-0.00000
 376,0.00000383,0.00000086,0.00000337,0.00000054,-0.00000244,-0.0000019
 3,-0.00000143,-0.00000090,-0.00000042,-0.00000355,-0.00000124,0.000000
 04,-0.00000037,0.00000241,0.00000074,-0.00000151,0.00000050,-0.0000036
 4,-0.00000280,0.00000171,0.00000160,-0.00000580,-0.00000075,0.00000630
 ,-0.00000096,0.00000064,0.00000547,0.00000378,0.00000111\\\@
 The archive entry for this job was punched.


 BE LIKE A POSTAGE STAMP.  STICK TO ONE THING UNTIL
 YOU GET THERE -- JOSH BILLINGS
 Job cpu time:       0 days  3 hours 45 minutes 24.8 seconds.
 Elapsed time:       0 days  0 hours 28 minutes 23.9 seconds.
 File lengths (MBytes):  RWF=    395 Int=      0 D2E=      0 Chk=     15 Scr=      1
 Normal termination of Gaussian 16 at Mon Jan 29 14:01:24 2024.
