Job Start Time: Mon Jan 29 09:34:00 MST 2024
SLURM Job ID: 229516
SLURM Job Name: Ac4_rdkit_conf_2
 Entering Gaussian System, Link 0=/opt/apps/Gaussian/G16C/g16/g16
 Initial command:
 /opt/apps/Gaussian/G16C/g16/l1.exe "/tmp/Gau-3516721.inp" -scrdir="/tmp/"
 Entering Link 1 = /opt/apps/Gaussian/G16C/g16/l1.exe PID=   3516723.
  
 Copyright (c) 1988-2019, Gaussian, Inc.  All Rights Reserved.
  
 This is part of the Gaussian(R) 16 program.  It is based on
 the Gaussian(R) 09 system (copyright 2009, Gaussian, Inc.),
 the Gaussian(R) 03 system (copyright 2003, Gaussian, Inc.),
 the Gaussian(R) 98 system (copyright 1998, Gaussian, Inc.),
 the Gaussian(R) 94 system (copyright 1995, Gaussian, Inc.),
 the Gaussian 92(TM) system (copyright 1992, Gaussian, Inc.),
 the Gaussian 90(TM) system (copyright 1990, Gaussian, Inc.),
 the Gaussian 88(TM) system (copyright 1988, Gaussian, Inc.),
 the Gaussian 86(TM) system (copyright 1986, Carnegie Mellon
 University), and the Gaussian 82(TM) system (copyright 1983,
 Carnegie Mellon University). Gaussian is a federally registered
 trademark of Gaussian, Inc.
  
 This software contains proprietary and confidential information,
 including trade secrets, belonging to Gaussian, Inc.
  
 This software is provided under written license and may be
 used, copied, transmitted, or stored only in accord with that
 written license.
  
 The following legend is applicable only to US Government
 contracts under FAR:
  
                    RESTRICTED RIGHTS LEGEND
  
 Use, reproduction and disclosure by the US Government is
 subject to restrictions as set forth in subparagraphs (a)
 and (c) of the Commercial Computer Software - Restricted
 Rights clause in FAR 52.227-19.
  
 Gaussian, Inc.
 340 Quinnipiac St., Bldg. 40, Wallingford CT 06492
  
  
 ---------------------------------------------------------------
 Warning -- This program may not be used in any manner that
 competes with the business of Gaussian, Inc. or will provide
 assistance to any competitor of Gaussian, Inc.  The licensee
 of this program is prohibited from giving any competitor of
 Gaussian, Inc. access to this program.  By using this program,
 the user acknowledges that Gaussian, Inc. is engaged in the
 business of creating and licensing software in the field of
 computational chemistry and represents and warrants to the
 licensee that it is not a competitor of Gaussian, Inc. and that
 it will not use this program in any manner prohibited above.
 ---------------------------------------------------------------
  

 Cite this work as:
 Gaussian 16, Revision C.01,
 M. J. Frisch, G. W. Trucks, H. B. Schlegel, G. E. Scuseria, 
 M. A. Robb, J. R. Cheeseman, G. Scalmani, V. Barone, 
 G. A. Petersson, H. Nakatsuji, X. Li, M. Caricato, A. V. Marenich, 
 J. Bloino, B. G. Janesko, R. Gomperts, B. Mennucci, H. P. Hratchian, 
 J. V. Ortiz, A. F. Izmaylov, J. L. Sonnenberg, D. Williams-Young, 
 F. Ding, F. Lipparini, F. Egidi, J. Goings, B. Peng, A. Petrone, 
 T. Henderson, D. Ranasinghe, V. G. Zakrzewski, J. Gao, N. Rega, 
 G. Zheng, W. Liang, M. Hada, M. Ehara, K. Toyota, R. Fukuda, 
 J. Hasegawa, M. Ishida, T. Nakajima, Y. Honda, O. Kitao, H. Nakai, 
 T. Vreven, K. Throssell, J. A. Montgomery, Jr., J. E. Peralta, 
 F. Ogliaro, M. J. Bearpark, J. J. Heyd, E. N. Brothers, K. N. Kudin, 
 V. N. Staroverov, T. A. Keith, R. Kobayashi, J. Normand, 
 K. Raghavachari, A. P. Rendell, J. C. Burant, S. S. Iyengar, 
 J. Tomasi, M. Cossi, J. M. Millam, M. Klene, C. Adamo, R. Cammi, 
 J. W. Ochterski, R. L. Martin, K. Morokuma, O. Farkas, 
 J. B. Foresman, and D. J. Fox, Gaussian, Inc., Wallingford CT, 2019.
 
 ******************************************
 Gaussian 16:  AS64L-G16RevC.01  3-Jul-2019
                29-Jan-2024 
 ******************************************
 %nprocshared=8
 Will use up to    8 processors via shared memory.
 %mem=16GB
 ---------------------------------
 # m062x/def2tzvp opt freq=noraman
 ---------------------------------
 1/18=20,19=15,26=3,38=1/1,3;
 2/9=110,12=2,17=6,18=5,40=1/2;
 3/5=44,7=101,11=2,25=1,30=1,71=1,74=-55/1,2,3;
 4//1;
 5/5=2,38=5/2;
 6/7=2,8=2,9=2,10=2,28=1/1;
 7//1,2,3,16;
 1/18=20,19=15,26=3/3(2);
 2/9=110/2;
 99//99;
 2/9=110/2;
 3/5=44,7=101,11=2,25=1,30=1,71=1,74=-55/1,2,3;
 4/5=5,16=3,69=1/1;
 5/5=2,38=5/2;
 7//1,2,3,16;
 1/18=20,19=15,26=3/3(-5);
 2/9=110/2;
 6/7=2,8=2,9=2,10=2,19=2,28=1/1;
 99/9=1/99;
 ----------------
 Ac4_rdkit_conf_2
 ----------------
 Symbolic Z-matrix:
 Charge =  0 Multiplicity = 1
 C                     2.5865    0.2544    0.9607 
 O                     1.4509    0.8026    0.3049 
 C                     0.398    -0.0354    0.0511 
 C                     0.4591   -1.4297    0.1725 
 C                    -0.6413   -2.2256   -0.1663 
 C                    -1.8127   -1.6419   -0.6409 
 C                    -1.8896   -0.2572   -0.7686 
 C                    -0.7955    0.5456   -0.41 
 C                    -0.9669    2.0036   -0.5683 
 O                    -1.5191    2.5514   -1.5056 
 O                    -0.5476    2.6956    0.505 
 H                     3.2721    1.0772    1.185 
 H                     2.3103   -0.2167    1.91 
 H                     3.1138   -0.4484    0.3077 
 H                     1.3574   -1.9342    0.5136 
 H                    -0.5764   -3.3071   -0.0695 
 H                    -2.6623   -2.2629   -0.9136 
 H                    -2.8029    0.2006   -1.1433 
 H                    -0.7338    3.6281    0.2754 
 

 GradGradGradGradGradGradGradGradGradGradGradGradGradGradGradGradGradGrad
 Berny optimization.
 Initialization pass.
                           ----------------------------
                           !    Initial Parameters    !
                           ! (Angstroms and Degrees)  !
 --------------------------                            --------------------------
 ! Name  Definition              Value          Derivative Info.                !
 --------------------------------------------------------------------------------
 ! R1    R(1,2)                  1.4213         estimate D2E/DX2                !
 ! R2    R(1,12)                 1.0942         estimate D2E/DX2                !
 ! R3    R(1,13)                 1.0952         estimate D2E/DX2                !
 ! R4    R(1,14)                 1.0947         estimate D2E/DX2                !
 ! R5    R(2,3)                  1.3694         estimate D2E/DX2                !
 ! R6    R(3,4)                  1.4009         estimate D2E/DX2                !
 ! R7    R(3,8)                  1.4052         estimate D2E/DX2                !
 ! R8    R(4,5)                  1.3997         estimate D2E/DX2                !
 ! R9    R(4,15)                 1.0853         estimate D2E/DX2                !
 ! R10   R(5,6)                  1.3922         estimate D2E/DX2                !
 ! R11   R(5,16)                 1.0878         estimate D2E/DX2                !
 ! R12   R(6,7)                  1.3927         estimate D2E/DX2                !
 ! R13   R(6,17)                 1.0871         estimate D2E/DX2                !
 ! R14   R(7,8)                  1.4036         estimate D2E/DX2                !
 ! R15   R(7,18)                 1.0882         estimate D2E/DX2                !
 ! R16   R(8,9)                  1.4766         estimate D2E/DX2                !
 ! R17   R(9,10)                 1.218          estimate D2E/DX2                !
 ! R18   R(9,11)                 1.3441         estimate D2E/DX2                !
 ! R19   R(11,19)                0.9782         estimate D2E/DX2                !
 ! A1    A(2,1,12)             107.7676         estimate D2E/DX2                !
 ! A2    A(2,1,13)             111.368          estimate D2E/DX2                !
 ! A3    A(2,1,14)             110.9306         estimate D2E/DX2                !
 ! A4    A(12,1,13)            107.6855         estimate D2E/DX2                !
 ! A5    A(12,1,14)            107.6509         estimate D2E/DX2                !
 ! A6    A(13,1,14)            111.246          estimate D2E/DX2                !
 ! A7    A(1,2,3)              117.6325         estimate D2E/DX2                !
 ! A8    A(2,3,4)              124.0188         estimate D2E/DX2                !
 ! A9    A(2,3,8)              117.4411         estimate D2E/DX2                !
 ! A10   A(4,3,8)              118.489          estimate D2E/DX2                !
 ! A11   A(3,4,5)              120.7092         estimate D2E/DX2                !
 ! A12   A(3,4,15)             121.736          estimate D2E/DX2                !
 ! A13   A(5,4,15)             117.5471         estimate D2E/DX2                !
 ! A14   A(4,5,6)              120.3721         estimate D2E/DX2                !
 ! A15   A(4,5,16)             119.7956         estimate D2E/DX2                !
 ! A16   A(6,5,16)             119.8282         estimate D2E/DX2                !
 ! A17   A(5,6,7)              119.6424         estimate D2E/DX2                !
 ! A18   A(5,6,17)             120.2382         estimate D2E/DX2                !
 ! A19   A(7,6,17)             120.1192         estimate D2E/DX2                !
 ! A20   A(6,7,8)              120.1456         estimate D2E/DX2                !
 ! A21   A(6,7,18)             119.7495         estimate D2E/DX2                !
 ! A22   A(8,7,18)             120.1043         estimate D2E/DX2                !
 ! A23   A(3,8,7)              120.624          estimate D2E/DX2                !
 ! A24   A(3,8,9)              122.8225         estimate D2E/DX2                !
 ! A25   A(7,8,9)              116.5444         estimate D2E/DX2                !
 ! A26   A(8,9,10)             125.3964         estimate D2E/DX2                !
 ! A27   A(8,9,11)             112.7399         estimate D2E/DX2                !
 ! A28   A(10,9,11)            121.6256         estimate D2E/DX2                !
 ! A29   A(9,11,19)            104.121          estimate D2E/DX2                !
 ! D1    D(12,1,2,3)          -173.5536         estimate D2E/DX2                !
 ! D2    D(13,1,2,3)           -55.6537         estimate D2E/DX2                !
 ! D3    D(14,1,2,3)            68.8358         estimate D2E/DX2                !
 ! D4    D(1,2,3,4)            -12.0317         estimate D2E/DX2                !
 ! D5    D(1,2,3,8)            170.6133         estimate D2E/DX2                !
 ! D6    D(2,3,4,5)           -176.9214         estimate D2E/DX2                !
 ! D7    D(2,3,4,15)             2.0416         estimate D2E/DX2                !
 ! D8    D(8,3,4,5)              0.4078         estimate D2E/DX2                !
 ! D9    D(8,3,4,15)           179.3708         estimate D2E/DX2                !
 ! D10   D(2,3,8,7)            176.0943         estimate D2E/DX2                !
 ! D11   D(2,3,8,9)             -2.7738         estimate D2E/DX2                !
 ! D12   D(4,3,8,7)             -1.4115         estimate D2E/DX2                !
 ! D13   D(4,3,8,9)            179.7205         estimate D2E/DX2                !
 ! D14   D(3,4,5,6)              0.5325         estimate D2E/DX2                !
 ! D15   D(3,4,5,16)           179.7915         estimate D2E/DX2                !
 ! D16   D(15,4,5,6)          -178.4728         estimate D2E/DX2                !
 ! D17   D(15,4,5,16)            0.7862         estimate D2E/DX2                !
 ! D18   D(4,5,6,7)             -0.4727         estimate D2E/DX2                !
 ! D19   D(4,5,6,17)           179.3351         estimate D2E/DX2                !
 ! D20   D(16,5,6,7)          -179.7315         estimate D2E/DX2                !
 ! D21   D(16,5,6,17)            0.0764         estimate D2E/DX2                !
 ! D22   D(5,6,7,8)             -0.5291         estimate D2E/DX2                !
 ! D23   D(5,6,7,18)           179.7459         estimate D2E/DX2                !
 ! D24   D(17,6,7,8)           179.6628         estimate D2E/DX2                !
 ! D25   D(17,6,7,18)           -0.0622         estimate D2E/DX2                !
 ! D26   D(6,7,8,3)              1.4889         estimate D2E/DX2                !
 ! D27   D(6,7,8,9)           -179.5745         estimate D2E/DX2                !
 ! D28   D(18,7,8,3)          -178.7872         estimate D2E/DX2                !
 ! D29   D(18,7,8,9)             0.1495         estimate D2E/DX2                !
 ! D30   D(3,8,9,10)           138.061          estimate D2E/DX2                !
 ! D31   D(3,8,9,11)           -47.497          estimate D2E/DX2                !
 ! D32   D(7,8,9,10)           -40.8501         estimate D2E/DX2                !
 ! D33   D(7,8,9,11)           133.5919         estimate D2E/DX2                !
 ! D34   D(8,9,11,19)         -178.8606         estimate D2E/DX2                !
 ! D35   D(10,9,11,19)          -4.1808         estimate D2E/DX2                !
 --------------------------------------------------------------------------------
 Trust Radius=3.00D-01 FncErr=1.00D-07 GrdErr=1.00D-06 EigMax=2.50D+02 EigMin=1.00D-04
 Number of steps in this run=     93 maximum allowed number of steps=    114.
 GradGradGradGradGradGradGradGradGradGradGradGradGradGradGradGradGradGrad

                          Input orientation:                          
 ---------------------------------------------------------------------
 Center     Atomic      Atomic             Coordinates (Angstroms)
 Number     Number       Type             X           Y           Z
 ---------------------------------------------------------------------
      1          6           0        2.586500    0.254400    0.960700
      2          8           0        1.450900    0.802600    0.304900
      3          6           0        0.398000   -0.035400    0.051100
      4          6           0        0.459100   -1.429700    0.172500
      5          6           0       -0.641300   -2.225600   -0.166300
      6          6           0       -1.812700   -1.641900   -0.640900
      7          6           0       -1.889600   -0.257200   -0.768600
      8          6           0       -0.795500    0.545600   -0.410000
      9          6           0       -0.966900    2.003600   -0.568300
     10          8           0       -1.519100    2.551400   -1.505600
     11          8           0       -0.547600    2.695600    0.505000
     12          1           0        3.272100    1.077200    1.185000
     13          1           0        2.310300   -0.216700    1.910000
     14          1           0        3.113800   -0.448400    0.307700
     15          1           0        1.357400   -1.934200    0.513600
     16          1           0       -0.576400   -3.307100   -0.069500
     17          1           0       -2.662300   -2.262900   -0.913600
     18          1           0       -2.802900    0.200600   -1.143300
     19          1           0       -0.733800    3.628100    0.275400
 ---------------------------------------------------------------------
                    Distance matrix (angstroms):
                    1          2          3          4          5
     1  C    0.000000
     2  O    1.421332   0.000000
     3  C    2.387653   1.369400   0.000000
     4  C    2.825470   2.446295   1.400908   0.000000
     5  C    4.223650   3.710704   2.434006   1.399687   0.000000
     6  C    5.051142   4.185834   2.819025   2.422338   1.392167
     7  C    4.825731   3.665313   2.440126   2.788695   2.407409
     8  C    3.660811   2.371380   1.405210   2.411460   2.786165
     9  C    4.245491   2.837364   2.530638   3.790753   4.260722
    10  O    5.311760   3.893214   3.576328   4.751679   5.038252
    11  O    3.998713   2.759980   2.925499   4.259355   4.967659
    12  H    1.094238   2.041262   3.283909   3.901624   5.296149
    13  H    1.095168   2.086597   2.673064   2.813755   4.130211
    14  H    1.094706   2.080924   2.758982   2.833489   4.181374
    15  H    2.549619   2.746338   2.177107   1.085271   2.131192
    16  H    4.873349   4.597799   3.415848   2.157650   1.087761
    17  H    6.115530   5.272613   3.906128   3.408368   2.155061
    18  H    5.785788   4.533707   3.424624   3.876835   3.393153
    19  H    4.782874   3.571727   3.840900   5.197590   5.871070
                    6          7          8          9         10
     6  C    0.000000
     7  C    1.392701   0.000000
     8  C    2.423462   1.403616   0.000000
     9  C    3.743036   2.450043   1.476550   0.000000
    10  O    4.291582   2.927230   2.397326   1.218007   0.000000
    11  O    4.661274   3.484544   2.349719   1.344117   2.237659
    12  H    6.048356   5.678056   4.401363   4.679893   5.689305
    13  H    5.053456   4.981536   3.950885   4.670304   5.830352
    14  H    5.157004   5.121425   4.097042   4.840640   5.809528
    15  H    3.386420   3.872903   3.411367   4.698845   5.698423
    16  H    2.151238   3.393394   3.873918   5.348348   6.105169
    17  H    1.087118   2.154280   3.409725   4.603980   4.983458
    18  H    2.151211   1.088163   2.164811   2.636727   2.702899
    19  H    5.456788   4.185853   3.158383   1.845309   2.224397
                   11         12         13         14         15
    11  O    0.000000
    12  H    4.203775   0.000000
    13  H    4.315450   1.767728   0.000000
    14  H    4.830063   1.766966   1.807391   0.000000
    15  H    5.006411   3.631168   2.409929   2.309748   0.000000
    16  H    6.030198   5.967144   4.669264   4.683164   2.442221
    17  H    5.574146   7.125833   6.073418   6.176351   4.278193
    18  H    3.745437   6.564681   5.970058   6.126495   4.960926
    19  H    0.978235   4.835463   5.169231   5.605615   5.947187
                   16         17         18         19
    16  H    0.000000
    17  H    2.480693   0.000000
    18  H    4.291190   2.478177   0.000000
    19  H    6.945555   6.311633   4.247545   0.000000
 Stoichiometry    C8H8O3
 Framework group  C1[X(C8H8O3)]
 Deg. of freedom    51
 Full point group                 C1      NOp   1
 Largest Abelian subgroup         C1      NOp   1
 Largest concise Abelian subgroup C1      NOp   1
                         Standard orientation:                         
 ---------------------------------------------------------------------
 Center     Atomic      Atomic             Coordinates (Angstroms)
 Number     Number       Type             X           Y           Z
 ---------------------------------------------------------------------
      1          6           0        1.277081    2.733881   -0.094948
      2          8           0        0.257364    1.753679   -0.234823
      3          6           0        0.611731    0.440914   -0.072557
      4          6           0        1.936141   -0.012620   -0.019748
      5          6           0        2.220080   -1.379251    0.084277
      6          6           0        1.187090   -2.311632    0.125819
      7          6           0       -0.135176   -1.877510    0.073231
      8          6           0       -0.424184   -0.506492   -0.009953
      9          6           0       -1.852518   -0.134554   -0.051482
     10          8           0       -2.715946   -0.719780   -0.680404
     11          8           0       -2.151392    0.873769    0.785543
     12          1           0        0.802044    3.718620   -0.139533
     13          1           0        1.780210    2.650774    0.874251
     14          1           0        1.993611    2.673319   -0.920356
     15          1           0        2.776548    0.671913   -0.073998
     16          1           0        3.254004   -1.715252    0.120740
     17          1           0        1.410326   -3.373281    0.195765
     18          1           0       -0.943877   -2.605046    0.101397
     19          1           0       -3.114549    1.001191    0.671377
 ---------------------------------------------------------------------
 Rotational constants (GHZ):           1.3815617           1.1450095           0.6602194
 Standard basis: def2TZVP (5D, 7F)
 There are   444 symmetry adapted cartesian basis functions of A   symmetry.
 There are   389 symmetry adapted basis functions of A   symmetry.
   389 basis functions,   625 primitive gaussians,   444 cartesian basis functions
    40 alpha electrons       40 beta electrons
       nuclear repulsion energy       594.2398556688 Hartrees.
 NAtoms=   19 NActive=   19 NUniq=   19 SFac= 1.00D+00 NAtFMM=   60 NAOKFM=F Big=F
 Integral buffers will be    131072 words long.
 Raffenetti 2 integral format.
 Two-electron integral symmetry is turned on.
 One-electron integrals computed using PRISM.
   1 Symmetry operations used in ECPInt.
 ECPInt:  NShTT=   11781 NPrTT=   36312 LenC2=   11266 LenP2D=   26649.
 LDataN:  DoStor=T MaxTD1= 6 Len=  172
 NBasis=   389 RedAO= T EigKep=  8.38D-06  NBF=   389
 NBsUse=   389 1.00D-06 EigRej= -1.00D+00 NBFU=   389
 ExpMin= 9.52D-02 ExpMax= 2.70D+04 ExpMxC= 9.22D+02 IAcc=3 IRadAn=         5 AccDes= 0.00D+00
 Harris functional with IExCor= 1009 and IRadAn=       5 diagonalized for initial guess.
 HarFok:  IExCor= 1009 AccDes= 0.00D+00 IRadAn=         5 IDoV= 1 UseB2=F ITyADJ=14
 ICtDFT=  3500011 ScaDFX=  1.000000  1.000000  1.000000  1.000000
 FoFCou: FMM=F IPFlag=           0 FMFlag=      100000 FMFlg1=           0
         NFxFlg=           0 DoJE=T BraDBF=F KetDBF=T FulRan=T
         wScrn=  0.000000 ICntrl=       500 IOpCl=  0 I1Cent=   200000004 NGrid=           0
         NMat0=    1 NMatS0=      1 NMatT0=    0 NMatD0=    1 NMtDS0=    0 NMtDT0=    0
 Petite list used in FoFCou.
 Requested convergence on RMS density matrix=1.00D-08 within 128 cycles.
 Requested convergence on MAX density matrix=1.00D-06.
 Requested convergence on             energy=1.00D-06.
 No special actions if energy rises.
 Integral accuracy reduced to 1.0D-05 until final iterations.
 Initial convergence to 1.0D-05 achieved.  Increase integral accuracy.
 SCF Done:  E(RM062X) =  -535.334913087     A.U. after   15 cycles
            NFock= 15  Conv=0.99D-08     -V/T= 2.0051

 **********************************************************************

            Population analysis using the SCF Density.

 **********************************************************************

 Orbital symmetries:
       Occupied  (A) (A) (A) (A) (A) (A) (A) (A) (A) (A) (A) (A)
                 (A) (A) (A) (A) (A) (A) (A) (A) (A) (A) (A) (A)
                 (A) (A) (A) (A) (A) (A) (A) (A) (A) (A) (A) (A)
                 (A) (A) (A) (A)
       Virtual   (A) (A) (A) (A) (A) (A) (A) (A) (A) (A) (A) (A)
                 (A) (A) (A) (A) (A) (A) (A) (A) (A) (A) (A) (A)
                 (A) (A) (A) (A) (A) (A) (A) (A) (A) (A) (A) (A)
                 (A) (A) (A) (A) (A) (A) (A) (A) (A) (A) (A) (A)
                 (A) (A) (A) (A) (A) (A) (A) (A) (A) (A) (A) (A)
                 (A) (A) (A) (A) (A) (A) (A) (A) (A) (A) (A) (A)
                 (A) (A) (A) (A) (A) (A) (A) (A) (A) (A) (A) (A)
                 (A) (A) (A) (A) (A) (A) (A) (A) (A) (A) (A) (A)
                 (A) (A) (A) (A) (A) (A) (A) (A) (A) (A) (A) (A)
                 (A) (A) (A) (A) (A) (A) (A) (A) (A) (A) (A) (A)
                 (A) (A) (A) (A) (A) (A) (A) (A) (A) (A) (A) (A)
                 (A) (A) (A) (A) (A) (A) (A) (A) (A) (A) (A) (A)
                 (A) (A) (A) (A) (A) (A) (A) (A) (A) (A) (A) (A)
                 (A) (A) (A) (A) (A) (A) (A) (A) (A) (A) (A) (A)
                 (A) (A) (A) (A) (A) (A) (A) (A) (A) (A) (A) (A)
                 (A) (A) (A) (A) (A) (A) (A) (A) (A) (A) (A) (A)
                 (A) (A) (A) (A) (A) (A) (A) (A) (A) (A) (A) (A)
                 (A) (A) (A) (A) (A) (A) (A) (A) (A) (A) (A) (A)
                 (A) (A) (A) (A) (A) (A) (A) (A) (A) (A) (A) (A)
                 (A) (A) (A) (A) (A) (A) (A) (A) (A) (A) (A) (A)
                 (A) (A) (A) (A) (A) (A) (A) (A) (A) (A) (A) (A)
                 (A) (A) (A) (A) (A) (A) (A) (A) (A) (A) (A) (A)
                 (A) (A) (A) (A) (A) (A) (A) (A) (A) (A) (A) (A)
                 (A) (A) (A) (A) (A) (A) (A) (A) (A) (A) (A) (A)
                 (A) (A) (A) (A) (A) (A) (A) (A) (A) (A) (A) (A)
                 (A) (A) (A) (A) (A) (A) (A) (A) (A) (A) (A) (A)
                 (A) (A) (A) (A) (A) (A) (A) (A) (A) (A) (A) (A)
                 (A) (A) (A) (A) (A) (A) (A) (A) (A) (A) (A) (A)
                 (A) (A) (A) (A) (A) (A) (A) (A) (A) (A) (A) (A)
                 (A)
 The electronic state is 1-A.
 Alpha  occ. eigenvalues --  -19.66999 -19.66751 -19.61519 -10.67838 -10.62474
 Alpha  occ. eigenvalues --  -10.59954 -10.56356 -10.56010 -10.56008 -10.55532
 Alpha  occ. eigenvalues --  -10.54746  -1.23486  -1.19853  -1.13234  -0.97259
 Alpha  occ. eigenvalues --   -0.87925  -0.85830  -0.80258  -0.75444  -0.69144
 Alpha  occ. eigenvalues --   -0.67671  -0.62462  -0.58835  -0.57862  -0.56892
 Alpha  occ. eigenvalues --   -0.55733  -0.54107  -0.52474  -0.51865  -0.49154
 Alpha  occ. eigenvalues --   -0.48266  -0.46088  -0.44771  -0.42958  -0.41146
 Alpha  occ. eigenvalues --   -0.40054  -0.39060  -0.36173  -0.31988  -0.29298
 Alpha virt. eigenvalues --   -0.01279   0.02096   0.06704   0.06828   0.08056
 Alpha virt. eigenvalues --    0.08507   0.10757   0.11533   0.12987   0.13919
 Alpha virt. eigenvalues --    0.14290   0.15432   0.17013   0.18673   0.19417
 Alpha virt. eigenvalues --    0.20977   0.22144   0.23565   0.23909   0.24402
 Alpha virt. eigenvalues --    0.25348   0.25662   0.26888   0.27656   0.29353
 Alpha virt. eigenvalues --    0.30194   0.31964   0.32577   0.33730   0.34611
 Alpha virt. eigenvalues --    0.35443   0.35929   0.36879   0.38233   0.39046
 Alpha virt. eigenvalues --    0.39708   0.40722   0.41263   0.42113   0.43065
 Alpha virt. eigenvalues --    0.43720   0.44572   0.45662   0.46688   0.47063
 Alpha virt. eigenvalues --    0.48417   0.49591   0.50103   0.50198   0.50899
 Alpha virt. eigenvalues --    0.51347   0.53239   0.53593   0.54384   0.56274
 Alpha virt. eigenvalues --    0.57577   0.57858   0.59859   0.61432   0.62064
 Alpha virt. eigenvalues --    0.63951   0.65245   0.67608   0.68413   0.68892
 Alpha virt. eigenvalues --    0.70390   0.71680   0.72611   0.72807   0.74022
 Alpha virt. eigenvalues --    0.75726   0.75999   0.79122   0.79359   0.80263
 Alpha virt. eigenvalues --    0.83337   0.86062   0.86780   0.87829   0.89570
 Alpha virt. eigenvalues --    0.89776   0.92138   0.93312   0.94746   0.97062
 Alpha virt. eigenvalues --    0.97743   0.99250   0.99697   1.01743   1.03292
 Alpha virt. eigenvalues --    1.03806   1.06246   1.08537   1.12243   1.13491
 Alpha virt. eigenvalues --    1.14493   1.14763   1.18946   1.20610   1.22760
 Alpha virt. eigenvalues --    1.23662   1.25714   1.27625   1.29274   1.30068
 Alpha virt. eigenvalues --    1.32211   1.33106   1.34897   1.37146   1.41458
 Alpha virt. eigenvalues --    1.42560   1.45089   1.48076   1.48852   1.49445
 Alpha virt. eigenvalues --    1.52419   1.53424   1.54246   1.55116   1.55673
 Alpha virt. eigenvalues --    1.56362   1.57344   1.58978   1.59596   1.59933
 Alpha virt. eigenvalues --    1.61607   1.63442   1.67365   1.67963   1.70905
 Alpha virt. eigenvalues --    1.72288   1.72961   1.73784   1.74702   1.76711
 Alpha virt. eigenvalues --    1.79469   1.80040   1.83434   1.85906   1.86616
 Alpha virt. eigenvalues --    1.88457   1.90126   1.91538   1.93700   1.95789
 Alpha virt. eigenvalues --    1.98228   1.99037   2.00429   2.02741   2.03156
 Alpha virt. eigenvalues --    2.06281   2.07059   2.10122   2.10469   2.12329
 Alpha virt. eigenvalues --    2.14185   2.15186   2.16174   2.18257   2.21123
 Alpha virt. eigenvalues --    2.22641   2.24707   2.25638   2.26845   2.30053
 Alpha virt. eigenvalues --    2.30917   2.32521   2.35383   2.37208   2.37656
 Alpha virt. eigenvalues --    2.38307   2.42535   2.43041   2.46599   2.48085
 Alpha virt. eigenvalues --    2.50986   2.53010   2.54633   2.55197   2.58207
 Alpha virt. eigenvalues --    2.60210   2.60646   2.63289   2.64851   2.65739
 Alpha virt. eigenvalues --    2.66914   2.67493   2.68760   2.69768   2.71297
 Alpha virt. eigenvalues --    2.73891   2.76428   2.76836   2.78727   2.80264
 Alpha virt. eigenvalues --    2.83007   2.83165   2.84379   2.85035   2.86176
 Alpha virt. eigenvalues --    2.87805   2.89540   2.89787   2.90712   2.92806
 Alpha virt. eigenvalues --    2.94333   2.96662   2.97442   2.99106   3.00715
 Alpha virt. eigenvalues --    3.02501   3.03253   3.06689   3.07926   3.09639
 Alpha virt. eigenvalues --    3.12756   3.12859   3.14716   3.15145   3.16633
 Alpha virt. eigenvalues --    3.17729   3.19042   3.20176   3.20392   3.22276
 Alpha virt. eigenvalues --    3.22516   3.25119   3.25870   3.27474   3.29928
 Alpha virt. eigenvalues --    3.30932   3.31576   3.32178   3.32772   3.32938
 Alpha virt. eigenvalues --    3.35104   3.37690   3.38618   3.39313   3.40701
 Alpha virt. eigenvalues --    3.41173   3.44409   3.46704   3.47824   3.48380
 Alpha virt. eigenvalues --    3.50728   3.51621   3.52134   3.54394   3.55271
 Alpha virt. eigenvalues --    3.56591   3.58694   3.60407   3.64819   3.66980
 Alpha virt. eigenvalues --    3.67370   3.69119   3.76643   3.77298   3.81306
 Alpha virt. eigenvalues --    3.84064   3.85620   3.87159   3.90537   3.93200
 Alpha virt. eigenvalues --    3.98344   4.03033   4.07448   4.08982   4.11528
 Alpha virt. eigenvalues --    4.12105   4.13744   4.14569   4.16491   4.18455
 Alpha virt. eigenvalues --    4.19691   4.22528   4.24727   4.27530   4.29432
 Alpha virt. eigenvalues --    4.35733   4.39789   4.40250   4.42543   4.46987
 Alpha virt. eigenvalues --    4.52658   4.54166   4.57888   4.60610   4.63554
 Alpha virt. eigenvalues --    4.66684   4.73871   4.82411   4.86314   4.87579
 Alpha virt. eigenvalues --    5.03157   5.09062   5.10742   5.18268   5.21076
 Alpha virt. eigenvalues --    5.22657   5.25270   5.27067   5.34121   5.36865
 Alpha virt. eigenvalues --    5.42584   5.46222   5.46749   5.52673   5.58508
 Alpha virt. eigenvalues --    5.64370   5.74610   5.76816   5.86004   5.89118
 Alpha virt. eigenvalues --    5.94018   5.97724   6.14981   6.23160   6.26276
 Alpha virt. eigenvalues --    6.33984   6.35040   6.44390   6.48998   6.52608
 Alpha virt. eigenvalues --    6.63972   6.68829   6.71661   6.76609   6.80447
 Alpha virt. eigenvalues --    6.83749   6.85923   6.91286   7.07547   7.11338
 Alpha virt. eigenvalues --    7.15941   7.30780   7.36870  22.17029  22.45817
 Alpha virt. eigenvalues --   22.67801  22.74531  22.90746  22.92169  23.33505
 Alpha virt. eigenvalues --   23.53438  43.92657  44.01311  44.36178
          Condensed to atoms (all electrons):
               1          2          3          4          5          6
     1  C    4.909487   0.236190  -0.084294   0.007268  -0.004125   0.001160
     2  O    0.236190   7.947099   0.394675  -0.079583   0.006662  -0.000728
     3  C   -0.084294   0.394675   5.002790   0.346625   0.045031  -0.080292
     4  C    0.007268  -0.079583   0.346625   5.212540   0.392944  -0.010293
     5  C   -0.004125   0.006662   0.045031   0.392944   4.966365   0.485280
     6  C    0.001160  -0.000728  -0.080292  -0.010293   0.485280   4.934417
     7  C   -0.001205   0.003554   0.049036  -0.108088   0.010235   0.488727
     8  C    0.003483  -0.125609   0.187545   0.068028  -0.106899  -0.023696
     9  C   -0.001697   0.018987  -0.079932   0.017792  -0.005662   0.013733
    10  O   -0.000062  -0.000467  -0.004261  -0.000323   0.000220   0.001132
    11  O    0.001557  -0.012326   0.000038  -0.002390   0.000121  -0.000132
    12  H    0.398830  -0.028600   0.007223  -0.001386   0.000261  -0.000050
    13  H    0.415725  -0.041725  -0.006620   0.004338  -0.001801   0.000292
    14  H    0.419771  -0.036576  -0.019069   0.008145   0.000538  -0.000107
    15  H    0.003343  -0.004319  -0.038228   0.399248  -0.013819   0.000872
    16  H   -0.000051  -0.000110   0.000527  -0.021274   0.396941  -0.025840
    17  H   -0.000000   0.000016   0.000162   0.006538  -0.038478   0.413765
    18  H    0.000038  -0.000059   0.018522  -0.004209   0.007783  -0.041732
    19  H    0.000032   0.000445   0.000804   0.000122  -0.000015   0.000035
               7          8          9         10         11         12
     1  C   -0.001205   0.003483  -0.001697  -0.000062   0.001557   0.398830
     2  O    0.003554  -0.125609   0.018987  -0.000467  -0.012326  -0.028600
     3  C    0.049036   0.187545  -0.079932  -0.004261   0.000038   0.007223
     4  C   -0.108088   0.068028   0.017792  -0.000323  -0.002390  -0.001386
     5  C    0.010235  -0.106899  -0.005662   0.000220   0.000121   0.000261
     6  C    0.488727  -0.023696   0.013733   0.001132  -0.000132  -0.000050
     7  C    4.995353   0.390325  -0.070110   0.014772   0.005126   0.000149
     8  C    0.390325   5.591116   0.224351  -0.113980  -0.128093   0.000153
     9  C   -0.070110   0.224351   4.561535   0.683601   0.396599  -0.000458
    10  O    0.014772  -0.113980   0.683601   7.847506  -0.094461  -0.000000
    11  O    0.005126  -0.128093   0.396599  -0.094461   7.934481   0.000199
    12  H    0.000149   0.000153  -0.000458  -0.000000   0.000199   0.507838
    13  H   -0.000839   0.001939   0.000645   0.000002  -0.000112  -0.018784
    14  H    0.000158  -0.002052  -0.000096  -0.000001  -0.000021  -0.023696
    15  H    0.001051   0.006564   0.000082   0.000007  -0.000048   0.000006
    16  H    0.001613   0.001617   0.000077  -0.000001  -0.000001   0.000001
    17  H   -0.037183   0.006977  -0.000341  -0.000051   0.000004  -0.000000
    18  H    0.412047  -0.037322  -0.011892   0.007321  -0.000606   0.000001
    19  H   -0.001271   0.020573  -0.031016   0.006133   0.288197  -0.000005
              13         14         15         16         17         18
     1  C    0.415725   0.419771   0.003343  -0.000051  -0.000000   0.000038
     2  O   -0.041725  -0.036576  -0.004319  -0.000110   0.000016  -0.000059
     3  C   -0.006620  -0.019069  -0.038228   0.000527   0.000162   0.018522
     4  C    0.004338   0.008145   0.399248  -0.021274   0.006538  -0.004209
     5  C   -0.001801   0.000538  -0.013819   0.396941  -0.038478   0.007783
     6  C    0.000292  -0.000107   0.000872  -0.025840   0.413765  -0.041732
     7  C   -0.000839   0.000158   0.001051   0.001613  -0.037183   0.412047
     8  C    0.001939  -0.002052   0.006564   0.001617   0.006977  -0.037322
     9  C    0.000645  -0.000096   0.000082   0.000077  -0.000341  -0.011892
    10  O    0.000002  -0.000001   0.000007  -0.000001  -0.000051   0.007321
    11  O   -0.000112  -0.000021  -0.000048  -0.000001   0.000004  -0.000606
    12  H   -0.018784  -0.023696   0.000006   0.000001  -0.000000   0.000001
    13  H    0.548369  -0.054641  -0.002214  -0.000023   0.000002  -0.000005
    14  H   -0.054641   0.561257  -0.002986  -0.000001   0.000000   0.000000
    15  H   -0.002214  -0.002986   0.489034  -0.002403  -0.000285   0.000015
    16  H   -0.000023  -0.000001  -0.002403   0.502496  -0.003498  -0.000247
    17  H    0.000002   0.000000  -0.000285  -0.003498   0.510504  -0.003598
    18  H   -0.000005   0.000000   0.000015  -0.000247  -0.003598   0.485678
    19  H    0.000010  -0.000003  -0.000002   0.000000  -0.000001  -0.000045
              19
     1  C    0.000032
     2  O    0.000445
     3  C    0.000804
     4  C    0.000122
     5  C   -0.000015
     6  C    0.000035
     7  C   -0.001271
     8  C    0.020573
     9  C   -0.031016
    10  O    0.006133
    11  O    0.288197
    12  H   -0.000005
    13  H    0.000010
    14  H   -0.000003
    15  H   -0.000002
    16  H    0.000000
    17  H   -0.000001
    18  H   -0.000045
    19  H    0.379876
 Mulliken charges:
               1
     1  C   -0.305449
     2  O   -0.277525
     3  C    0.259716
     4  C   -0.236042
     5  C   -0.141583
     6  C   -0.156542
     7  C   -0.153449
     8  C    0.034981
     9  C    0.283803
    10  O   -0.347086
    11  O   -0.388133
    12  H    0.158317
    13  H    0.155442
    14  H    0.149381
    15  H    0.164083
    16  H    0.150176
    17  H    0.145469
    18  H    0.168309
    19  H    0.336131
 Sum of Mulliken charges =  -0.00000
 Mulliken charges with hydrogens summed into heavy atoms:
               1
     1  C    0.157691
     2  O   -0.277525
     3  C    0.259716
     4  C   -0.071959
     5  C    0.008593
     6  C   -0.011072
     7  C    0.014860
     8  C    0.034981
     9  C    0.283803
    10  O   -0.347086
    11  O   -0.052001
 Electronic spatial extent (au):  <R**2>=           1701.9356
 Charge=             -0.0000 electrons
 Dipole moment (field-independent basis, Debye):
    X=              2.9025    Y=              1.5239    Z=              1.0853  Tot=              3.4533
 Quadrupole moment (field-independent basis, Debye-Ang):
   XX=            -58.8335   YY=            -54.5190   ZZ=            -68.2869
   XY=             -2.0808   XZ=             -4.2914   YZ=             -1.7578
 Traceless Quadrupole moment (field-independent basis, Debye-Ang):
   XX=              1.7130   YY=              6.0275   ZZ=             -7.7405
   XY=             -2.0808   XZ=             -4.2914   YZ=             -1.7578
 Octapole moment (field-independent basis, Debye-Ang**2):
  XXX=             -5.0601  YYY=             17.3078  ZZZ=             -0.5818  XYY=              6.8934
  XXY=             23.9906  XXZ=             15.6035  XZZ=             -6.0714  YZZ=              9.0703
  YYZ=              2.3190  XYZ=              1.8744
 Hexadecapole moment (field-independent basis, Debye-Ang**3):
 XXXX=          -1021.1546 YYYY=           -865.7968 ZZZZ=           -120.4889 XXXY=            -79.1144
 XXXZ=            -56.8252 YYYX=             13.1638 YYYZ=             -4.0826 ZZZX=             -3.9247
 ZZZY=              2.8736 XXYY=           -318.1588 XXZZ=           -217.5179 YYZZ=           -196.0130
 XXYZ=             -5.3066 YYXZ=             -4.2406 ZZXY=              4.9566
 N-N= 5.942398556688D+02 E-N=-2.439443731707D+03  KE= 5.326239699491D+02
   1 Symmetry operations used in ECPInt.
 ECPInt:  NShTT=   11781 NPrTT=   36312 LenC2=   11266 LenP2D=   26649.
 LDataN:  DoStor=T MaxTD1= 7 Len=  274
 Calling FoFJK, ICntrl=      2127 FMM=F ISym2X=0 I1Cent= 0 IOpClX= 0 NMat=1 NMatS=1 NMatT=0.
 ***** Axes restored to original set *****
 -------------------------------------------------------------------
 Center     Atomic                   Forces (Hartrees/Bohr)
 Number     Number              X              Y              Z
 -------------------------------------------------------------------
      1        6           0.001352331    0.003495267   -0.001461653
      2        8          -0.006613932   -0.010246341    0.002560431
      3        6           0.004415410   -0.000756876    0.001344375
      4        6          -0.002267657   -0.004763266   -0.000471904
      5        6           0.000679487    0.009777870   -0.000664811
      6        6           0.000134096    0.000325672    0.000708173
      7        6           0.009690366   -0.004496837    0.002384338
      8        6          -0.006576494   -0.009851727   -0.006918281
      9        6          -0.013905608    0.017993036   -0.009926257
     10        8           0.012789999   -0.014464744    0.018516841
     11        8          -0.001642445    0.010464727   -0.009388028
     12        1          -0.006094010   -0.000173743   -0.003217641
     13        1          -0.000845962   -0.001869028   -0.003518059
     14        1          -0.002288047   -0.001490543    0.002314268
     15        1          -0.001176547    0.004688777   -0.000470648
     16        1           0.001041786    0.004205141    0.000150134
     17        1           0.002889356    0.002491520    0.001170764
     18        1           0.005659183    0.001408241    0.001545754
     19        1           0.002758686   -0.006737144    0.005342206
 -------------------------------------------------------------------
 Cartesian Forces:  Max     0.018516841 RMS     0.006504188

 GradGradGradGradGradGradGradGradGradGradGradGradGradGradGradGradGradGrad
 Berny optimization.
 FormGI is forming the generalized inverse of G from B-inverse, IUseBI=4.
 Internal  Forces:  Max     0.026553872 RMS     0.005197079
 Search for a local minimum.
 Step number   1 out of a maximum of   93
 All quantities printed in internal units (Hartrees-Bohrs-Radians)
 Mixed Optimization -- RFO/linear search
 Second derivative matrix not updated -- first step.
 ITU=  0
     Eigenvalues ---    0.01076   0.01410   0.01541   0.01746   0.02038
     Eigenvalues ---    0.02065   0.02085   0.02093   0.02097   0.02111
     Eigenvalues ---    0.02143   0.02164   0.02189   0.02431   0.09986
     Eigenvalues ---    0.10549   0.15997   0.15999   0.16000   0.16000
     Eigenvalues ---    0.16000   0.16000   0.16000   0.16000   0.22000
     Eigenvalues ---    0.22486   0.24473   0.24940   0.24972   0.24996
     Eigenvalues ---    0.25000   0.25000   0.34222   0.34274   0.34327
     Eigenvalues ---    0.34968   0.35026   0.35073   0.35148   0.35365
     Eigenvalues ---    0.41400   0.41892   0.42260   0.45076   0.45436
     Eigenvalues ---    0.46196   0.46696   0.51092   0.51729   0.56292
     Eigenvalues ---    0.96272
 RFO step:  Lambda=-6.21484022D-03 EMin= 1.07614182D-02
 Linear search not attempted -- first point.
 Iteration  1 RMS(Cart)=  0.05451166 RMS(Int)=  0.00188668
 Iteration  2 RMS(Cart)=  0.00235846 RMS(Int)=  0.00062229
 Iteration  3 RMS(Cart)=  0.00000311 RMS(Int)=  0.00062229
 Iteration  4 RMS(Cart)=  0.00000000 RMS(Int)=  0.00062229
 Variable       Old X    -DE/DX   Delta X   Delta X   Delta X     New X
                                 (Linear)    (Quad)   (Total)
    R1        2.68593  -0.00899   0.00000  -0.02097  -0.02097   2.66496
    R2        2.06781  -0.00461   0.00000  -0.01319  -0.01319   2.05462
    R3        2.06957  -0.00203   0.00000  -0.00584  -0.00584   2.06373
    R4        2.06870  -0.00152   0.00000  -0.00437  -0.00437   2.06433
    R5        2.58779  -0.01805   0.00000  -0.03491  -0.03491   2.55288
    R6        2.64733  -0.00982   0.00000  -0.02122  -0.02122   2.62612
    R7        2.65546  -0.00628   0.00000  -0.01400  -0.01399   2.64147
    R8        2.64502  -0.01097   0.00000  -0.02347  -0.02347   2.62156
    R9        2.05086  -0.00330   0.00000  -0.00918  -0.00918   2.04169
   R10        2.63081  -0.00607   0.00000  -0.01261  -0.01261   2.61820
   R11        2.05557  -0.00411   0.00000  -0.01150  -0.01150   2.04407
   R12        2.63182  -0.00675   0.00000  -0.01429  -0.01429   2.61753
   R13        2.05436  -0.00397   0.00000  -0.01111  -0.01111   2.04324
   R14        2.65245  -0.01387   0.00000  -0.03062  -0.03062   2.62183
   R15        2.05633  -0.00469   0.00000  -0.01315  -0.01315   2.04317
   R16        2.79028   0.00668   0.00000   0.01876   0.01876   2.80904
   R17        2.30170  -0.02655   0.00000  -0.02741  -0.02741   2.27429
   R18        2.54001  -0.00096   0.00000  -0.00169  -0.00169   2.53832
   R19        1.84860  -0.00820   0.00000  -0.01567  -0.01567   1.83293
    A1        1.88090  -0.00642   0.00000  -0.03576  -0.03578   1.84512
    A2        1.94374  -0.00098   0.00000  -0.00764  -0.00770   1.93604
    A3        1.93610   0.00135   0.00000   0.00689   0.00689   1.94299
    A4        1.87947   0.00450   0.00000   0.02934   0.02926   1.90872
    A5        1.87886   0.00386   0.00000   0.02664   0.02669   1.90555
    A6        1.94161  -0.00218   0.00000  -0.01810  -0.01813   1.92348
    A7        2.05307  -0.00366   0.00000  -0.01429  -0.01429   2.03878
    A8        2.16454  -0.00302   0.00000  -0.01167  -0.01168   2.15286
    A9        2.04973  -0.00165   0.00000  -0.00634  -0.00635   2.04339
   A10        2.06802   0.00468   0.00000   0.01817   0.01818   2.08620
   A11        2.10677  -0.00335   0.00000  -0.01412  -0.01414   2.09264
   A12        2.12469  -0.00197   0.00000  -0.01479  -0.01481   2.10989
   A13        2.05158   0.00532   0.00000   0.02907   0.02906   2.08064
   A14        2.10089   0.00159   0.00000   0.00787   0.00785   2.10874
   A15        2.09083  -0.00222   0.00000  -0.01251  -0.01250   2.07832
   A16        2.09140   0.00063   0.00000   0.00466   0.00467   2.09607
   A17        2.08815  -0.00178   0.00000  -0.00766  -0.00769   2.08046
   A18        2.09855   0.00115   0.00000   0.00538   0.00539   2.10394
   A19        2.09647   0.00063   0.00000   0.00228   0.00229   2.09877
   A20        2.09694   0.00244   0.00000   0.01018   0.01015   2.10709
   A21        2.09002   0.00265   0.00000   0.01821   0.01821   2.10823
   A22        2.09622  -0.00510   0.00000  -0.02842  -0.02842   2.06780
   A23        2.10529  -0.00359   0.00000  -0.01468  -0.01469   2.09060
   A24        2.14366   0.00091   0.00000   0.00391   0.00391   2.14756
   A25        2.03408   0.00268   0.00000   0.01085   0.01085   2.04493
   A26        2.18858  -0.00615   0.00000  -0.02037  -0.02348   2.16510
   A27        1.96768   0.00568   0.00000   0.02597   0.02284   1.99052
   A28        2.12277   0.00074   0.00000   0.00692   0.00375   2.12652
   A29        1.81725   0.00698   0.00000   0.04197   0.04197   1.85922
    D1       -3.02908   0.00022   0.00000   0.00307   0.00297  -3.02611
    D2       -0.97134   0.00120   0.00000   0.01248   0.01252  -0.95882
    D3        1.20141  -0.00135   0.00000  -0.01158  -0.01152   1.18989
    D4       -0.20999   0.00141   0.00000   0.04902   0.04897  -0.16102
    D5        2.97776   0.00114   0.00000   0.04444   0.04449   3.02225
    D6       -3.08786  -0.00024   0.00000  -0.00886  -0.00878  -3.09664
    D7        0.03563   0.00007   0.00000   0.00176   0.00167   0.03731
    D8        0.00712  -0.00013   0.00000  -0.00485  -0.00481   0.00230
    D9        3.13061   0.00018   0.00000   0.00577   0.00564   3.13625
   D10        3.07342  -0.00006   0.00000  -0.00173  -0.00172   3.07170
   D11       -0.04841  -0.00022   0.00000  -0.00665  -0.00662  -0.05503
   D12       -0.02463  -0.00012   0.00000  -0.00527  -0.00524  -0.02988
   D13        3.13671  -0.00027   0.00000  -0.01020  -0.01014   3.12658
   D14        0.00929   0.00016   0.00000   0.00568   0.00564   0.01494
   D15        3.13795   0.00020   0.00000   0.00757   0.00753  -3.13770
   D16       -3.11494  -0.00008   0.00000  -0.00409  -0.00420  -3.11914
   D17        0.01372  -0.00003   0.00000  -0.00219  -0.00231   0.01141
   D18       -0.00825   0.00011   0.00000   0.00398   0.00389  -0.00436
   D19        3.12999   0.00001   0.00000   0.00116   0.00113   3.13112
   D20       -3.13691   0.00008   0.00000   0.00221   0.00211  -3.13480
   D21        0.00133  -0.00002   0.00000  -0.00060  -0.00065   0.00068
   D22       -0.00924  -0.00044   0.00000  -0.01441  -0.01447  -0.02371
   D23        3.13716  -0.00022   0.00000  -0.00668  -0.00658   3.13058
   D24        3.13571  -0.00034   0.00000  -0.01161  -0.01172   3.12398
   D25       -0.00109  -0.00012   0.00000  -0.00387  -0.00383  -0.00492
   D26        0.02599   0.00036   0.00000   0.01488   0.01490   0.04089
   D27       -3.13417   0.00049   0.00000   0.01946   0.01946  -3.11471
   D28       -3.12042   0.00017   0.00000   0.00725   0.00732  -3.11310
   D29        0.00261   0.00030   0.00000   0.01182   0.01188   0.01449
   D30        2.40962  -0.00056   0.00000  -0.00934  -0.00884   2.40078
   D31       -0.82898   0.00274   0.00000   0.13711   0.13664  -0.69233
   D32       -0.71297  -0.00064   0.00000  -0.01381  -0.01334  -0.72631
   D33        2.33162   0.00266   0.00000   0.13265   0.13214   2.46376
   D34       -3.12171  -0.00116   0.00000  -0.06289  -0.06376   3.09772
   D35       -0.07297   0.00155   0.00000   0.07551   0.07638   0.00341
         Item               Value     Threshold  Converged?
 Maximum Force            0.026554     0.000450     NO 
 RMS     Force            0.005197     0.000300     NO 
 Maximum Displacement     0.214666     0.001800     NO 
 RMS     Displacement     0.054324     0.001200     NO 
 Predicted change in Energy=-3.324676D-03
 GradGradGradGradGradGradGradGradGradGradGradGradGradGradGradGradGradGrad

                          Input orientation:                          
 ---------------------------------------------------------------------
 Center     Atomic      Atomic             Coordinates (Angstroms)
 Number     Number       Type             X           Y           Z
 ---------------------------------------------------------------------
      1          6           0        2.537464    0.238250    0.945464
      2          8           0        1.396437    0.802910    0.338846
      3          6           0        0.371987   -0.035317    0.068877
      4          6           0        0.464590   -1.417062    0.184722
      5          6           0       -0.616483   -2.214109   -0.162425
      6          6           0       -1.788133   -1.651496   -0.642312
      7          6           0       -1.874324   -0.274861   -0.769002
      8          6           0       -0.814773    0.539147   -0.395294
      9          6           0       -1.005572    2.006987   -0.531912
     10          8           0       -1.542982    2.532067   -1.472074
     11          8           0       -0.469334    2.724195    0.469241
     12          1           0        3.187110    1.075731    1.187782
     13          1           0        2.270248   -0.290038    1.863149
     14          1           0        3.059360   -0.434511    0.261107
     15          1           0        1.372948   -1.884524    0.536377
     16          1           0       -0.531166   -3.287876   -0.063604
     17          1           0       -2.624581   -2.277555   -0.920664
     18          1           0       -2.772592    0.190741   -1.150218
     19          1           0       -0.620204    3.657321    0.251738
 ---------------------------------------------------------------------
                    Distance matrix (angstroms):
                    1          2          3          4          5
     1  C    0.000000
     2  O    1.410236   0.000000
     3  C    2.352134   1.350928   0.000000
     4  C    2.759636   2.412544   1.389681   0.000000
     5  C    4.145945   3.661355   2.403686   1.387268   0.000000
     6  C    4.980256   4.138631   2.789971   2.411162   1.385492
     7  C    4.760939   3.617567   2.409426   2.772134   2.389725
     8  C    3.622936   2.344778   1.397807   2.408307   2.770193
     9  C    4.226603   2.824477   2.535670   3.794608   4.255064
    10  O    5.268408   3.861296   3.554307   4.729793   5.009968
    11  O    3.930336   2.681314   2.912563   4.254783   4.980713
    12  H    1.087260   2.000408   3.226654   3.825214   5.207056
    13  H    1.092080   2.069197   2.624441   2.710665   4.017240
    14  H    1.092396   2.074263   2.723653   2.775622   4.105870
    15  H    2.455528   2.694786   2.154076   1.080415   2.134194
    16  H    4.782078   4.540061   3.378221   2.133809   1.081674
    17  H    6.038080   5.219599   3.871206   3.391946   2.147420
    18  H    5.708837   4.469101   3.380188   3.853108   3.377551
    19  H    4.705546   3.496011   3.827983   5.189473   5.886020
                    6          7          8          9         10
     6  C    0.000000
     7  C    1.385136   0.000000
     8  C    2.409847   1.387412   0.000000
     9  C    3.742871   2.453114   1.486480   0.000000
    10  O    4.272096   2.912549   2.379386   1.203505   0.000000
    11  O    4.703345   3.535757   2.375118   1.343222   2.226732
    12  H    5.961548   5.592067   4.336948   4.626356   5.618676
    13  H    4.959975   4.909778   3.912220   4.663007   5.799027
    14  H    5.078918   5.042603   4.048183   4.807647   5.743350
    15  H    3.381722   3.852247   3.395337   4.684278   5.660636
    16  H    2.143037   3.373414   3.851825   5.336661   6.072833
    17  H    1.081238   2.143985   3.388986   4.596696   4.960481
    18  H    2.149643   1.081202   2.127052   2.608334   2.664083
    19  H    5.508803   4.251679   3.190535   1.867142   2.255935
                   11         12         13         14         15
    11  O    0.000000
    12  H    4.074717   0.000000
    13  H    4.305100   1.778224   0.000000
    14  H    4.740510   1.776479   1.791678   0.000000
    15  H    4.963749   3.532509   2.260057   2.241048   0.000000
    16  H    6.035955   5.867931   4.532917   4.597718   2.440292
    17  H    5.620892   7.033194   5.971532   6.091025   4.272901
    18  H    3.787615   6.462778   5.894214   6.032781   4.933237
    19  H    0.969944   4.694297   5.151019   5.502942   5.896246
                   16         17         18         19
    16  H    0.000000
    17  H    2.477436   0.000000
    18  H    4.278493   2.483362   0.000000
    19  H    6.952922   6.372974   4.314560   0.000000
 Stoichiometry    C8H8O3
 Framework group  C1[X(C8H8O3)]
 Deg. of freedom    51
 Full point group                 C1      NOp   1
 Largest Abelian subgroup         C1      NOp   1
 Largest concise Abelian subgroup C1      NOp   1
                         Standard orientation:                         
 ---------------------------------------------------------------------
 Center     Atomic      Atomic             Coordinates (Angstroms)
 Number     Number       Type             X           Y           Z
 ---------------------------------------------------------------------
      1          6           0        1.126298    2.745161   -0.114250
      2          8           0        0.151145    1.730079   -0.200568
      3          6           0        0.581603    0.457693   -0.056529
      4          6           0        1.925370    0.105486   -0.018379
      5          6           0        2.287697   -1.230118    0.078547
      6          6           0        1.324960   -2.225590    0.120540
      7          6           0       -0.013745   -1.873603    0.069774
      8          6           0       -0.394426   -0.540955    0.006176
      9          6           0       -1.852388   -0.251618   -0.009768
     10          8           0       -2.657639   -0.882115   -0.644172
     11          8           0       -2.204199    0.827356    0.708765
     12          1           0        0.577279    3.683424   -0.133596
     13          1           0        1.684319    2.671423    0.821599
     14          1           0        1.810535    2.712109   -0.965164
     15          1           0        2.697926    0.858982   -0.070317
     16          1           0        3.337425   -1.489044    0.110906
     17          1           0        1.612563   -3.265794    0.186384
     18          1           0       -0.786100   -2.629931    0.090550
     19          1           0       -3.160614    0.937544    0.590778
 ---------------------------------------------------------------------
 Rotational constants (GHZ):           1.4200568           1.1546846           0.6668563
 Standard basis: def2TZVP (5D, 7F)
 There are   444 symmetry adapted cartesian basis functions of A   symmetry.
 There are   389 symmetry adapted basis functions of A   symmetry.
   389 basis functions,   625 primitive gaussians,   444 cartesian basis functions
    40 alpha electrons       40 beta electrons
       nuclear repulsion energy       598.5474342944 Hartrees.
 NAtoms=   19 NActive=   19 NUniq=   19 SFac= 1.00D+00 NAtFMM=   60 NAOKFM=F Big=F
 Integral buffers will be    131072 words long.
 Raffenetti 2 integral format.
 Two-electron integral symmetry is turned on.
 One-electron integrals computed using PRISM.
   1 Symmetry operations used in ECPInt.
 ECPInt:  NShTT=   11781 NPrTT=   36312 LenC2=   11287 LenP2D=   26735.
 LDataN:  DoStor=T MaxTD1= 6 Len=  172
 NBasis=   389 RedAO= T EigKep=  7.63D-06  NBF=   389
 NBsUse=   389 1.00D-06 EigRej= -1.00D+00 NBFU=   389
 Initial guess from the checkpoint file:  "/tmp/Gau-3516723.chk"
 B after Tr=     0.000000   -0.000000   -0.000000
         Rot=    0.999624    0.003554   -0.000074   -0.027181 Ang=   3.14 deg.
 ExpMin= 9.52D-02 ExpMax= 2.70D+04 ExpMxC= 9.22D+02 IAcc=3 IRadAn=         5 AccDes= 0.00D+00
 Harris functional with IExCor= 1009 and IRadAn=       5 diagonalized for initial guess.
 HarFok:  IExCor= 1009 AccDes= 0.00D+00 IRadAn=         5 IDoV= 1 UseB2=F ITyADJ=14
 ICtDFT=  3500011 ScaDFX=  1.000000  1.000000  1.000000  1.000000
 FoFCou: FMM=F IPFlag=           0 FMFlag=      100000 FMFlg1=           0
         NFxFlg=           0 DoJE=T BraDBF=F KetDBF=T FulRan=T
         wScrn=  0.000000 ICntrl=       500 IOpCl=  0 I1Cent=   200000004 NGrid=           0
         NMat0=    1 NMatS0=      1 NMatT0=    0 NMatD0=    1 NMtDS0=    0 NMtDT0=    0
 Petite list used in FoFCou.
 Requested convergence on RMS density matrix=1.00D-08 within 128 cycles.
 Requested convergence on MAX density matrix=1.00D-06.
 Requested convergence on             energy=1.00D-06.
 No special actions if energy rises.
 Integral accuracy reduced to 1.0D-05 until final iterations.
 Initial convergence to 1.0D-05 achieved.  Increase integral accuracy.
 SCF Done:  E(RM062X) =  -535.337224235     A.U. after   13 cycles
            NFock= 13  Conv=0.79D-08     -V/T= 2.0044
   1 Symmetry operations used in ECPInt.
 ECPInt:  NShTT=   11781 NPrTT=   36312 LenC2=   11287 LenP2D=   26735.
 LDataN:  DoStor=T MaxTD1= 7 Len=  274
 Calling FoFJK, ICntrl=      2127 FMM=F ISym2X=0 I1Cent= 0 IOpClX= 0 NMat=1 NMatS=1 NMatT=0.
 ***** Axes restored to original set *****
 -------------------------------------------------------------------
 Center     Atomic                   Forces (Hartrees/Bohr)
 Number     Number              X              Y              Z
 -------------------------------------------------------------------
      1        6           0.002618669    0.004867974    0.000045701
      2        8          -0.000574302   -0.004530503    0.001933389
      3        6           0.003124644    0.003922962    0.000484627
      4        6          -0.000018339   -0.003680009    0.000413047
      5        6          -0.001153457    0.000720865   -0.000381360
      6        6          -0.000829558   -0.001593355   -0.000921689
      7        6           0.000796699   -0.001165273    0.000434651
      8        6          -0.006584524    0.000643777    0.000786150
      9        6           0.011648631    0.007367392   -0.008277397
     10        8          -0.004697196   -0.003418612    0.004655307
     11        8          -0.004141700    0.000025342    0.000909382
     12        1           0.000266574   -0.000608413    0.000018734
     13        1           0.000547539   -0.000697239   -0.000062824
     14        1          -0.000145476   -0.000890835    0.000389938
     15        1          -0.000600666    0.000623237   -0.000476034
     16        1          -0.000019797   -0.000512564    0.000112918
     17        1           0.000098025    0.000012212    0.000049325
     18        1          -0.000301788    0.000851068   -0.000269330
     19        1          -0.000033977   -0.001938024    0.000155466
 -------------------------------------------------------------------
 Cartesian Forces:  Max     0.011648631 RMS     0.002922726

 GradGradGradGradGradGradGradGradGradGradGradGradGradGradGradGradGradGrad
 Berny optimization.
 Using GEDIIS/GDIIS optimizer.
 FormGI is forming the generalized inverse of G from B-inverse, IUseBI=4.
 Internal  Forces:  Max     0.009255489 RMS     0.001860579
 Search for a local minimum.
 Step number   2 out of a maximum of   93
 All quantities printed in internal units (Hartrees-Bohrs-Radians)
 Mixed Optimization -- RFO/linear search
 Update second derivatives using D2CorX and points    1    2
 DE= -2.31D-03 DEPred=-3.32D-03 R= 6.95D-01
 TightC=F SS=  1.41D+00  RLast= 2.62D-01 DXNew= 5.0454D-01 7.8738D-01
 Trust test= 6.95D-01 RLast= 2.62D-01 DXMaxT set to 5.05D-01
 ITU=  1  0
 Use linear search instead of GDIIS.
     Eigenvalues ---    0.01022   0.01409   0.01741   0.01970   0.02044
     Eigenvalues ---    0.02065   0.02085   0.02093   0.02113   0.02143
     Eigenvalues ---    0.02160   0.02188   0.02428   0.02555   0.09914
     Eigenvalues ---    0.10705   0.14985   0.15999   0.15999   0.16000
     Eigenvalues ---    0.16000   0.16000   0.16000   0.16137   0.21498
     Eigenvalues ---    0.22539   0.23561   0.24701   0.24978   0.24992
     Eigenvalues ---    0.24998   0.27102   0.34005   0.34232   0.34281
     Eigenvalues ---    0.34545   0.35049   0.35125   0.35181   0.35335
     Eigenvalues ---    0.41389   0.41529   0.42782   0.44886   0.45623
     Eigenvalues ---    0.46662   0.47819   0.50340   0.52044   0.56431
     Eigenvalues ---    0.91932
 RFO step:  Lambda=-3.11109065D-03 EMin= 1.02193995D-02
 Quartic linear search produced a step of -0.20729.
 Iteration  1 RMS(Cart)=  0.05258445 RMS(Int)=  0.00354065
 Iteration  2 RMS(Cart)=  0.00455756 RMS(Int)=  0.00170056
 Iteration  3 RMS(Cart)=  0.00001196 RMS(Int)=  0.00170053
 Iteration  4 RMS(Cart)=  0.00000004 RMS(Int)=  0.00170053
 Variable       Old X    -DE/DX   Delta X   Delta X   Delta X     New X
                                 (Linear)    (Quad)   (Total)
    R1        2.66496   0.00175   0.00435  -0.01264  -0.00830   2.65666
    R2        2.05462  -0.00030   0.00273  -0.01072  -0.00798   2.04664
    R3        2.06373   0.00015   0.00121  -0.00409  -0.00288   2.06085
    R4        2.06433   0.00024   0.00091  -0.00277  -0.00187   2.06246
    R5        2.55288   0.00137   0.00724  -0.02440  -0.01716   2.53572
    R6        2.62612   0.00364   0.00440  -0.00949  -0.00510   2.62102
    R7        2.64147   0.00506   0.00290  -0.00134   0.00156   2.64303
    R8        2.62156   0.00133   0.00486  -0.01557  -0.01072   2.61084
    R9        2.04169  -0.00093   0.00190  -0.00905  -0.00714   2.03454
   R10        2.61820  -0.00047   0.00261  -0.01071  -0.00809   2.61011
   R11        2.04407   0.00052   0.00238  -0.00757  -0.00518   2.03888
   R12        2.61753   0.00049   0.00296  -0.01031  -0.00733   2.61020
   R13        2.04324  -0.00010   0.00230  -0.00866  -0.00635   2.03689
   R14        2.62183   0.00100   0.00635  -0.02146  -0.01511   2.60672
   R15        2.04317   0.00071   0.00273  -0.00839  -0.00566   2.03752
   R16        2.80904   0.00189  -0.00389   0.01852   0.01463   2.82367
   R17        2.27429  -0.00303   0.00568  -0.02334  -0.01766   2.25663
   R18        2.53832  -0.00190   0.00035  -0.00396  -0.00361   2.53471
   R19        1.83293  -0.00189   0.00325  -0.01481  -0.01156   1.82137
    A1        1.84512   0.00101   0.00742  -0.02120  -0.01377   1.83135
    A2        1.93604   0.00064   0.00160  -0.00319  -0.00160   1.93445
    A3        1.94299  -0.00001  -0.00143   0.00452   0.00309   1.94608
    A4        1.90872  -0.00022  -0.00607   0.02229   0.01625   1.92497
    A5        1.90555  -0.00011  -0.00553   0.02053   0.01500   1.92055
    A6        1.92348  -0.00122   0.00376  -0.02155  -0.01780   1.90567
    A7        2.03878   0.00926   0.00296   0.01832   0.02128   2.06006
    A8        2.15286   0.00116   0.00242  -0.00579  -0.00336   2.14950
    A9        2.04339   0.00137   0.00132  -0.00108   0.00024   2.04363
   A10        2.08620  -0.00253  -0.00377   0.00679   0.00300   2.08920
   A11        2.09264   0.00095   0.00293  -0.00698  -0.00406   2.08857
   A12        2.10989  -0.00074   0.00307  -0.01441  -0.01133   2.09855
   A13        2.08064  -0.00021  -0.00602   0.02142   0.01541   2.09605
   A14        2.10874   0.00082  -0.00163   0.00794   0.00632   2.11505
   A15        2.07832  -0.00038   0.00259  -0.01032  -0.00773   2.07059
   A16        2.09607  -0.00045  -0.00097   0.00238   0.00141   2.09748
   A17        2.08046  -0.00064   0.00159  -0.00959  -0.00798   2.07248
   A18        2.10394   0.00026  -0.00112   0.00569   0.00456   2.10850
   A19        2.09877   0.00038  -0.00048   0.00390   0.00342   2.10219
   A20        2.10709   0.00172  -0.00210   0.01323   0.01115   2.11823
   A21        2.10823  -0.00024  -0.00377   0.01412   0.01033   2.11857
   A22        2.06780  -0.00148   0.00589  -0.02732  -0.02144   2.04635
   A23        2.09060  -0.00032   0.00305  -0.01160  -0.00856   2.08203
   A24        2.14756   0.00273  -0.00081   0.01123   0.01040   2.15797
   A25        2.04493  -0.00241  -0.00225   0.00029  -0.00197   2.04296
   A26        2.16510  -0.00239   0.00487  -0.02341  -0.02705   2.13805
   A27        1.99052   0.00075  -0.00473   0.02176   0.00834   1.99886
   A28        2.12652   0.00196  -0.00078   0.01123   0.00143   2.12795
   A29        1.85922  -0.00076  -0.00870   0.02810   0.01940   1.87862
    D1       -3.02611  -0.00039  -0.00062  -0.01333  -0.01393  -3.04004
    D2       -0.95882   0.00028  -0.00260  -0.00086  -0.00348  -0.96229
    D3        1.18989  -0.00085   0.00239  -0.02768  -0.02528   1.16461
    D4       -0.16102   0.00050  -0.01015   0.05401   0.04386  -0.11715
    D5        3.02225   0.00073  -0.00922   0.05607   0.04684   3.06909
    D6       -3.09664   0.00013   0.00182  -0.00252  -0.00070  -3.09734
    D7        0.03731   0.00002  -0.00035   0.00178   0.00144   0.03875
    D8        0.00230  -0.00002   0.00100  -0.00483  -0.00382  -0.00152
    D9        3.13625  -0.00014  -0.00117  -0.00052  -0.00167   3.13457
   D10        3.07170  -0.00002   0.00036  -0.00338  -0.00302   3.06868
   D11       -0.05503   0.00027   0.00137   0.00392   0.00529  -0.04974
   D12       -0.02988   0.00012   0.00109  -0.00109   0.00000  -0.02987
   D13        3.12658   0.00041   0.00210   0.00621   0.00831   3.13489
   D14        0.01494   0.00004  -0.00117   0.00589   0.00472   0.01966
   D15       -3.13770  -0.00001  -0.00156   0.00563   0.00407  -3.13363
   D16       -3.11914   0.00015   0.00087   0.00181   0.00270  -3.11644
   D17        0.01141   0.00010   0.00048   0.00155   0.00204   0.01345
   D18       -0.00436  -0.00013  -0.00081  -0.00074  -0.00156  -0.00592
   D19        3.13112  -0.00005  -0.00023  -0.00071  -0.00096   3.13016
   D20       -3.13480  -0.00008  -0.00044  -0.00040  -0.00083  -3.13563
   D21        0.00068   0.00000   0.00014  -0.00037  -0.00024   0.00044
   D22       -0.02371   0.00016   0.00300  -0.00586  -0.00285  -0.02656
   D23        3.13058  -0.00007   0.00136  -0.00794  -0.00662   3.12396
   D24        3.12398   0.00008   0.00243  -0.00590  -0.00345   3.12054
   D25       -0.00492  -0.00015   0.00079  -0.00798  -0.00721  -0.01213
   D26        0.04089  -0.00014  -0.00309   0.00659   0.00349   0.04438
   D27       -3.11471  -0.00037  -0.00403  -0.00019  -0.00417  -3.11887
   D28       -3.11310   0.00009  -0.00152   0.00891   0.00732  -3.10578
   D29        0.01449  -0.00014  -0.00246   0.00213  -0.00034   0.01415
   D30        2.40078   0.00430   0.00183   0.18931   0.18972   2.59050
   D31       -0.69233  -0.00328  -0.02833  -0.03293  -0.05988  -0.75221
   D32       -0.72631   0.00457   0.00277   0.19653   0.19792  -0.52840
   D33        2.46376  -0.00301  -0.02739  -0.02571  -0.05168   2.41207
   D34        3.09772   0.00377   0.01322   0.11651   0.13093  -3.05453
   D35        0.00341  -0.00349  -0.01583  -0.09915  -0.11618  -0.11277
         Item               Value     Threshold  Converged?
 Maximum Force            0.009255     0.000450     NO 
 RMS     Force            0.001861     0.000300     NO 
 Maximum Displacement     0.221699     0.001800     NO 
 RMS     Displacement     0.051000     0.001200     NO 
 Predicted change in Energy=-1.900264D-03
 GradGradGradGradGradGradGradGradGradGradGradGradGradGradGradGradGradGrad

                          Input orientation:                          
 ---------------------------------------------------------------------
 Center     Atomic      Atomic             Coordinates (Angstroms)
 Number     Number       Type             X           Y           Z
 ---------------------------------------------------------------------
      1          6           0        2.564583    0.214649    0.936860
      2          8           0        1.410863    0.774033    0.360301
      3          6           0        0.384369   -0.044361    0.082644
      4          6           0        0.457630   -1.423478    0.210661
      5          6           0       -0.626925   -2.201849   -0.145275
      6          6           0       -1.780175   -1.633545   -0.650048
      7          6           0       -1.838174   -0.260554   -0.789336
      8          6           0       -0.785663    0.544993   -0.407103
      9          6           0       -0.963171    2.019342   -0.572910
     10          8           0       -1.644524    2.490899   -1.432799
     11          8           0       -0.503596    2.754098    0.450828
     12          1           0        3.200961    1.060849    1.164746
     13          1           0        2.317558   -0.329356    1.849192
     14          1           0        3.071827   -0.458852    0.243846
     15          1           0        1.356367   -1.886675    0.580609
     16          1           0       -0.554527   -3.272363   -0.031916
     17          1           0       -2.618868   -2.247429   -0.935630
     18          1           0       -2.711013    0.226447   -1.193703
     19          1           0       -0.737522    3.673152    0.278834
 ---------------------------------------------------------------------
                    Distance matrix (angstroms):
                    1          2          3          4          5
     1  C    0.000000
     2  O    1.405846   0.000000
     3  C    2.355866   1.341846   0.000000
     4  C    2.765877   2.400020   1.386982   0.000000
     5  C    4.146831   3.641986   2.393621   1.381598   0.000000
     6  C    4.981066   4.123100   2.783450   2.406806   1.381213
     7  C    4.752878   3.598371   2.397246   2.760997   2.377092
     8  C    3.624847   2.337968   1.398630   2.408794   2.763855
     9  C    4.240445   2.838611   2.550389   3.806004   4.256100
    10  O    5.339774   3.936778   3.583367   4.737336   4.971429
    11  O    4.012325   2.755722   2.958954   4.293457   4.993192
    12  H    1.083035   1.983394   3.213351   3.822045   5.197507
    13  H    1.090556   2.063095   2.634223   2.709468   4.019218
    14  H    1.091406   2.071803   2.724008   2.786689   4.107338
    15  H    2.449952   2.670370   2.141698   1.076635   2.135343
    16  H    4.777722   4.515519   3.363726   2.121717   1.078931
    17  H    6.036241   5.200711   3.861324   3.384925   2.143495
    18  H    5.689583   4.438991   3.359136   3.838592   3.367380
    19  H    4.826814   3.609305   3.888063   5.235329   5.891328
                    6          7          8          9         10
     6  C    0.000000
     7  C    1.381256   0.000000
     8  C    2.407094   1.379416   0.000000
     9  C    3.743932   2.451611   1.494224   0.000000
    10  O    4.200254   2.832320   2.361407   1.194160   0.000000
    11  O    4.700318   3.522391   2.386578   1.341311   2.217891
    12  H    5.946844   5.563941   4.316248   4.612825   5.680758
    13  H    4.973783   4.923076   3.935141   4.705968   5.867145
    14  H    5.071575   5.021444   4.038771   4.805179   5.810003
    15  H    3.378829   3.837462   3.387754   4.686986   5.676470
    16  H    2.137762   3.360421   3.842707   5.334961   6.030403
    17  H    1.077876   2.139756   3.381952   4.591104   4.862949
    18  H    2.149788   1.078207   2.104088   2.579692   2.514420
    19  H    5.487347   4.222140   3.202844   1.873892   2.269375
                   11         12         13         14         15
    11  O    0.000000
    12  H    4.135277   0.000000
    13  H    4.407042   1.783687   0.000000
    14  H    4.811396   1.781635   1.778434   0.000000
    15  H    5.001308   3.525854   2.226755   2.257187   0.000000
    16  H    6.045980   5.857681   4.522027   4.598079   2.438613
    17  H    5.604633   7.016174   5.983522   6.080640   4.269849
    18  H    3.737138   6.419498   5.903783   5.998118   4.914982
    19  H    0.963828   4.808390   5.274429   5.620126   5.948707
                   16         17         18         19
    16  H    0.000000
    17  H    2.475619   0.000000
    18  H    4.271048   2.489007   0.000000
    19  H    6.954871   6.329903   4.235896   0.000000
 Stoichiometry    C8H8O3
 Framework group  C1[X(C8H8O3)]
 Deg. of freedom    51
 Full point group                 C1      NOp   1
 Largest Abelian subgroup         C1      NOp   1
 Largest concise Abelian subgroup C1      NOp   1
                         Standard orientation:                         
 ---------------------------------------------------------------------
 Center     Atomic      Atomic             Coordinates (Angstroms)
 Number     Number       Type             X           Y           Z
 ---------------------------------------------------------------------
      1          6           0        1.435590    2.623779   -0.132080
      2          8           0        0.365809    1.713474   -0.189650
      3          6           0        0.640667    0.407635   -0.048985
      4          6           0        1.932542   -0.093156    0.014145
      5          6           0        2.133516   -1.456902    0.106972
      6          6           0        1.069590   -2.337665    0.115175
      7          6           0       -0.212879   -1.830916    0.035507
      8          6           0       -0.445955   -0.472464   -0.019926
      9          6           0       -1.871896   -0.029251   -0.074336
     10          8           0       -2.729443   -0.687321   -0.581855
     11          8           0       -2.154342    1.033460    0.693767
     12          1           0        0.971547    3.601904   -0.162054
     13          1           0        1.999963    2.501085    0.792983
     14          1           0        2.109519    2.503354   -0.982072
     15          1           0        2.775447    0.576066   -0.014088
     16          1           0        3.145136   -1.827878    0.162595
     17          1           0        1.233779   -3.401151    0.177270
     18          1           0       -1.073445   -2.480364    0.022278
     19          1           0       -3.105193    1.183728    0.646173
 ---------------------------------------------------------------------
 Rotational constants (GHZ):           1.4233522           1.1506971           0.6637137
 Standard basis: def2TZVP (5D, 7F)
 There are   444 symmetry adapted cartesian basis functions of A   symmetry.
 There are   389 symmetry adapted basis functions of A   symmetry.
   389 basis functions,   625 primitive gaussians,   444 cartesian basis functions
    40 alpha electrons       40 beta electrons
       nuclear repulsion energy       599.0547982450 Hartrees.
 NAtoms=   19 NActive=   19 NUniq=   19 SFac= 1.00D+00 NAtFMM=   60 NAOKFM=F Big=F
 Integral buffers will be    131072 words long.
 Raffenetti 2 integral format.
 Two-electron integral symmetry is turned on.
 One-electron integrals computed using PRISM.
   1 Symmetry operations used in ECPInt.
 ECPInt:  NShTT=   11781 NPrTT=   36312 LenC2=   11280 LenP2D=   26720.
 LDataN:  DoStor=T MaxTD1= 6 Len=  172
 NBasis=   389 RedAO= T EigKep=  7.42D-06  NBF=   389
 NBsUse=   389 1.00D-06 EigRej= -1.00D+00 NBFU=   389
 Initial guess from the checkpoint file:  "/tmp/Gau-3516723.chk"
 B after Tr=    -0.000000    0.000000   -0.000000
         Rot=    0.998704    0.001298    0.001880    0.050840 Ang=   5.83 deg.
 ExpMin= 9.52D-02 ExpMax= 2.70D+04 ExpMxC= 9.22D+02 IAcc=3 IRadAn=         5 AccDes= 0.00D+00
 Harris functional with IExCor= 1009 and IRadAn=       5 diagonalized for initial guess.
 HarFok:  IExCor= 1009 AccDes= 0.00D+00 IRadAn=         5 IDoV= 1 UseB2=F ITyADJ=14
 ICtDFT=  3500011 ScaDFX=  1.000000  1.000000  1.000000  1.000000
 FoFCou: FMM=F IPFlag=           0 FMFlag=      100000 FMFlg1=           0
         NFxFlg=           0 DoJE=T BraDBF=F KetDBF=T FulRan=T
         wScrn=  0.000000 ICntrl=       500 IOpCl=  0 I1Cent=   200000004 NGrid=           0
         NMat0=    1 NMatS0=      1 NMatT0=    0 NMatD0=    1 NMtDS0=    0 NMtDT0=    0
 Petite list used in FoFCou.
 Requested convergence on RMS density matrix=1.00D-08 within 128 cycles.
 Requested convergence on MAX density matrix=1.00D-06.
 Requested convergence on             energy=1.00D-06.
 No special actions if energy rises.
 Integral accuracy reduced to 1.0D-05 until final iterations.
 Initial convergence to 1.0D-05 achieved.  Increase integral accuracy.
 SCF Done:  E(RM062X) =  -535.336419264     A.U. after   14 cycles
            NFock= 14  Conv=0.33D-08     -V/T= 2.0041
   1 Symmetry operations used in ECPInt.
 ECPInt:  NShTT=   11781 NPrTT=   36312 LenC2=   11280 LenP2D=   26720.
 LDataN:  DoStor=T MaxTD1= 7 Len=  274
 Calling FoFJK, ICntrl=      2127 FMM=F ISym2X=0 I1Cent= 0 IOpClX= 0 NMat=1 NMatS=1 NMatT=0.
 ***** Axes restored to original set *****
 -------------------------------------------------------------------
 Center     Atomic                   Forces (Hartrees/Bohr)
 Number     Number              X              Y              Z
 -------------------------------------------------------------------
      1        6           0.000453834    0.001303360    0.000079411
      2        8           0.000548359    0.003955850    0.000628093
      3        6           0.000178605    0.002237815   -0.000939409
      4        6           0.001237710    0.000223132    0.001446330
      5        6          -0.001002035   -0.004786900    0.000026293
      6        6          -0.000701348   -0.001289972   -0.000276723
      7        6          -0.005234562    0.001830052   -0.002225328
      8        6           0.010123842    0.004973165   -0.000999327
      9        6          -0.013684746   -0.007285797    0.016973169
     10        8          -0.001326129    0.007106894   -0.014261970
     11        8           0.010312890   -0.005287872    0.000899968
     12        1           0.003310847   -0.000092580    0.001514305
     13        1           0.000809282    0.000182329    0.002027598
     14        1           0.000785497   -0.000230292   -0.001084812
     15        1           0.001011387   -0.001935867    0.000315552
     16        1          -0.000393918   -0.002814128    0.000017988
     17        1          -0.001585057   -0.001234883   -0.000552530
     18        1          -0.002987056    0.000237800   -0.001260558
     19        1          -0.001857403    0.002907895   -0.002328049
 -------------------------------------------------------------------
 Cartesian Forces:  Max     0.016973169 RMS     0.004592632

 GradGradGradGradGradGradGradGradGradGradGradGradGradGradGradGradGradGrad
 Berny optimization.
 Using GEDIIS/GDIIS optimizer.
 FormGI is forming the generalized inverse of G from B-inverse, IUseBI=4.
 Internal  Forces:  Max     0.013832247 RMS     0.003271311
 Search for a local minimum.
 Step number   3 out of a maximum of   93
 All quantities printed in internal units (Hartrees-Bohrs-Radians)
 Mixed Optimization -- RFO/linear search
 Update second derivatives using D2CorX and points    1    3    2
 DE=  8.05D-04 DEPred=-1.90D-03 R=-4.24D-01
 Trust test=-4.24D-01 RLast= 3.51D-01 DXMaxT set to 2.52D-01
 ITU= -1  1  0
 Use linear search instead of GDIIS.
     Eigenvalues ---    0.00979   0.01403   0.01739   0.02037   0.02059
     Eigenvalues ---    0.02067   0.02086   0.02097   0.02115   0.02144
     Eigenvalues ---    0.02164   0.02189   0.02429   0.07138   0.09953
     Eigenvalues ---    0.10741   0.15482   0.15999   0.16000   0.16000
     Eigenvalues ---    0.16000   0.16000   0.16004   0.16176   0.21591
     Eigenvalues ---    0.22505   0.23434   0.24569   0.24916   0.24982
     Eigenvalues ---    0.25244   0.25705   0.34227   0.34233   0.34287
     Eigenvalues ---    0.34622   0.35045   0.35117   0.35185   0.35353
     Eigenvalues ---    0.41371   0.41656   0.42436   0.45070   0.45611
     Eigenvalues ---    0.46665   0.47189   0.50862   0.51602   0.56262
     Eigenvalues ---    0.94469
 RFO step:  Lambda=-9.03639364D-04 EMin= 9.78753075D-03
 Quartic linear search produced a step of -0.59297.
 Iteration  1 RMS(Cart)=  0.04312991 RMS(Int)=  0.00134292
 Iteration  2 RMS(Cart)=  0.00176093 RMS(Int)=  0.00050392
 Iteration  3 RMS(Cart)=  0.00000180 RMS(Int)=  0.00050392
[...]
 0.00367524,-0.00408573,0.00157485,-0.02306183,-0.04001200,-0.00826067,
 -0.00529340,-0.29518309,0.00102043,-0.00940908,0.67834875,0.00266934,-
 0.00313984,-0.00066084,-0.00548384,-0.01654348,0.01016615,-0.02438915,
 0.03014639,-0.08256477,0.22283005,-0.01287158,0.21681665,-0.00378136,0
 .00143258,-0.00180147,0.00336975,0.01144066,-0.00185492,0.04527327,-0.
 08269571,0.01945016,-0.24755716,-0.06171413,-0.07592522,0.60812309,0.0
 0102609,0.00048878,0.00040427,0.00373521,-0.00278210,0.00161626,-0.024
 13764,-0.03666313,-0.00927596,-0.13269220,-0.20379259,-0.05243401,-0.0
 0608024,0.75119268,-0.00175773,0.00058157,-0.00017073,-0.00156467,0.00
 485712,0.00618624,0.01848900,-0.03350773,0.00953506,-0.07520834,-0.023
 33827,-0.09044886,0.19323245,-0.01283934,0.22276378,0.00243518,-0.0014
 1710,0.00094491,-0.00464770,-0.00652748,-0.00127501,-0.02085162,0.0417
 4126,-0.00697383,-0.04963870,-0.03781712,-0.02372950,-0.27466472,0.107
 92472,-0.08968088,0.64738783,-0.00085994,0.00067497,-0.00038489,-0.003
 26564,0.00318684,-0.00152532,0.03871484,-0.05860744,0.01684825,0.01511
 305,0.07155036,0.00542729,0.03643189,-0.16727956,0.01704534,0.04386021
 ,0.70950076,0.00094574,-0.00059734,0.00056196,-0.00145455,-0.00277089,
 -0.00144526,-0.00691336,0.01823430,-0.00878686,-0.02447854,-0.01661487
 ,-0.00121776,-0.08851296,0.04652776,-0.10116581,0.21494464,0.00860273,
 0.21806542,-0.00025170,-0.00114815,-0.00062776,0.00025715,0.00249638,-
 0.00182587,-0.04824383,0.01344105,-0.02157268,-0.01422694,-0.02452626,
 -0.00324825,0.02554856,0.03374986,0.00678701,-0.12354235,0.04891479,-0
 .02488664,0.63684018,0.00233236,-0.00070612,0.00096834,0.00492964,-0.0
 0864561,0.00238078,-0.04009392,0.08141330,-0.01792599,-0.02825331,-0.0
 6628384,-0.01091637,0.08940197,-0.01713697,0.03738281,-0.02225062,-0.3
 5235957,-0.00436183,-0.03274237,0.72578601,-0.00065711,-0.00046503,0.0
 0118075,-0.00201227,0.00102130,0.00387304,-0.02059797,0.00451689,-0.00
 532758,-0.00314030,-0.00955907,-0.00668397,0.00638094,0.01448344,0.010
 06774,-0.02432393,0.02556689,-0.07525105,0.20492606,-0.02302820,0.2342
 3094,0.00325079,-0.00271023,-0.00005348,-0.04777346,0.00159379,-0.0215
 6450,-0.22216080,0.03709506,-0.06200505,0.02554159,0.06876733,0.004797
 55,-0.06197839,-0.00350514,-0.02324751,0.03816689,-0.06662789,0.012678
 76,-0.23438761,-0.05871702,-0.07035954,0.62136482,-0.00444416,-0.00279
 773,-0.00153740,-0.01914357,0.02613638,-0.00815074,0.09043375,-0.17442
 756,0.03737938,0.02633638,-0.00945347,0.01121450,-0.01165338,-0.003959
 85,-0.00474070,-0.01472272,-0.04114067,-0.00565114,-0.11776244,-0.1883
 6416,-0.04622392,0.00989688,0.64063474,0.00003713,-0.00093253,0.002991
 78,-0.02103816,0.00044513,-0.00330871,-0.06358201,0.01509838,-0.096815
 17,0.00627585,0.02943895,0.01257320,-0.02387479,-0.00152009,-0.0153582
 6,0.01304408,-0.02746516,0.01440864,-0.06978105,-0.02181693,-0.0941686
 8,0.20335733,0.00013850,0.22938760,-0.00232547,0.00016631,-0.00078572,
 0.00049660,-0.00414449,0.00183868,0.00568919,0.02986026,0.00186361,-0.
 00349463,0.00296537,-0.00440213,-0.00441638,0.00011944,-0.00133516,-0.
 00293191,-0.00770638,-0.00440295,0.01556324,-0.01815538,0.00617528,-0.
 09977569,0.00863574,-0.00709818,0.76852768,0.00362152,-0.00189145,0.00
 141274,-0.01663368,-0.01255522,-0.00660867,0.02794388,0.00665211,0.012
 43023,-0.00034836,-0.00160419,-0.00023375,0.00516303,0.00308706,0.0020
 0171,-0.00708500,0.00870748,-0.00304896,-0.01478572,-0.04131253,-0.006
 62831,0.01746819,-0.18936597,0.00869150,-0.11525879,0.68481916,-0.0009
 6757,0.00005869,-0.00069141,0.00120367,-0.00261902,-0.00312211,0.00269
 853,0.01347008,0.00093147,-0.00430829,0.00114540,0.00499782,-0.0013830
 5,0.00024124,-0.00160852,-0.00475938,-0.00333347,0.00603898,0.00648279
 ,-0.00616247,0.00446107,-0.00625870,0.00236096,-0.08317195,0.30552982,
 -0.05545166,0.38877587,0.00170302,-0.00050669,0.00068037,-0.00194835,0
 .00078265,-0.00084084,0.00453251,0.00095380,0.00063258,-0.00037213,0.0
 0028452,0.00067077,0.00127106,-0.00010355,0.00043177,0.00036504,0.0030
 8273,0.00053972,-0.00735635,-0.00814595,-0.00323434,-0.01058947,0.0314
 4094,-0.01736525,-0.50850244,0.19475491,-0.23644223,0.59960196,-0.0015
 2464,0.00077729,-0.00058688,0.00474448,0.00353611,0.00190243,-0.010733
 11,-0.00938589,-0.00411186,0.00212133,-0.00109482,0.00068394,0.0001332
 9,-0.00119361,0.00004333,0.00226146,-0.00033914,0.00071199,0.00332719,
 -0.00169692,0.00222130,0.04301722,-0.02788360,0.02293010,0.19127352,-0
 .21095647,0.10541400,-0.21354927,0.21305919,0.00092980,-0.00024001,0.0
 0019859,-0.00101957,0.00072628,0.00014740,0.00104479,0.00053456,0.0032
 6248,0.00026066,0.00031588,-0.00130535,0.00046274,-0.00009976,0.000238
 55,0.00043596,0.00139972,-0.00048648,-0.00383951,-0.00403635,-0.001189
 41,-0.01713887,0.01673766,0.01160465,-0.23635011,0.10759173,-0.2134074
 3,0.31544676,-0.11802473,0.21092619,0.00008667,0.00051150,-0.00003055,
 0.00135749,0.00921341,0.00007136,-0.00685883,-0.00474085,-0.00268198,0
 .00081231,0.00102665,0.00060004,-0.00113276,-0.00057972,-0.00053604,0.
 00202238,-0.00101649,0.00106114,0.00062730,0.00287268,-0.00025305,0.00
 808135,-0.00721705,-0.00168822,-0.18194882,-0.05609486,-0.06699687,-0.
 07662628,-0.02842997,-0.06283492,0.34482690,-0.00150674,-0.00069002,-0
 .00085589,0.01182063,-0.00270692,0.00439327,-0.00740236,-0.00336039,-0
 .00316448,0.00065809,0.00138210,0.00035138,-0.00185174,-0.00075557,-0.
 00076392,-0.00027787,-0.00281800,0.00029790,0.00605855,-0.00372129,0.0
 0244405,-0.02967346,-0.03352595,-0.01759055,-0.08656526,-0.20089769,-0
 .05309647,-0.01809227,0.03411291,-0.01045877,-0.04170003,0.64354554,-0
 .00010544,0.00017274,0.00007898,0.00075612,0.00367510,0.00172199,-0.00
 331850,-0.00221131,-0.00154961,0.00050235,0.00032710,-0.00019175,-0.00
 053650,-0.00034234,-0.00002208,0.00110347,-0.00041694,0.00004778,-0.00
 005307,0.00106104,0.00142377,-0.00240037,-0.00439867,0.00894584,-0.068
 17415,-0.03677588,-0.10699476,-0.06291003,-0.01582149,-0.00449785,0.17
 349032,-0.00528582,0.13893376,-0.13807000,-0.12222649,-0.03227361,-0.0
 3253143,-0.02132776,-0.01290128,-0.00170608,0.00426104,-0.00094570,-0.
 00011547,0.00077832,-0.00026555,0.00022492,-0.00026057,0.00001153,-0.0
 0004484,-0.00000453,0.00001215,-0.00023926,0.00037226,-0.00011380,-0.0
 0087267,-0.00095325,-0.00042342,-0.00019881,-0.00095404,-0.00014375,0.
 00001223,0.00031705,0.00001792,0.00029947,0.00046548,0.00018804,0.1648
 5951,-0.13564743,-0.22544108,-0.05114223,0.01540018,0.01453313,0.00589
 760,0.00299949,-0.00075875,0.00122377,0.00037124,-0.00105107,0.0001878
 1,-0.00007762,0.00045266,-0.00003237,-0.00017772,0.00010343,-0.0000772
 6,-0.00000156,-0.00034287,0.00000436,0.00056120,0.00063371,0.00022455,
 0.00010521,0.00003451,0.00006692,-0.00009288,0.00003508,-0.00005527,-0
 .00013042,0.00003166,-0.00004495,0.13507307,0.23441099,-0.03199667,-0.
 04577417,-0.06401236,-0.01363822,-0.00883607,-0.00466539,-0.00093204,0
 .00172689,0.00001701,-0.00026507,0.00034306,0.00038621,0.00001506,-0.0
 0011131,0.00020719,0.00001442,-0.00000055,-0.00006523,-0.00009637,0.00
 015111,-0.00004700,-0.00046656,-0.00038843,0.00008681,-0.00006972,-0.0
 0036346,-0.00002320,-0.00001018,0.00012542,-0.00001346,0.00015041,0.00
 016577,-0.00002366,0.04469774,0.05064095,0.06430161,-0.06359081,-0.033
 64586,0.05114436,-0.00591374,0.02178030,-0.03367601,0.00576251,0.00414
 396,0.00002090,0.00098294,-0.00128595,0.00054898,-0.00116450,-0.000027
 00,0.00004593,0.00038789,-0.00086520,0.00021649,0.00034594,0.00094796,
 0.00040236,-0.00171820,-0.00001923,0.00009437,0.00037735,-0.00023024,-
 0.00000428,-0.00018374,0.00011974,-0.00010389,-0.00009795,0.00023235,0
 .00004534,-0.00218023,-0.00796892,0.01575865,0.06887515,-0.03002186,-0
 .12377429,0.11180878,0.00876306,-0.00913377,0.01475137,-0.00215434,-0.
 00130260,-0.00142584,0.00077237,0.00052963,-0.00015407,-0.00079987,-0.
 00007208,-0.00005566,0.00049444,-0.00032160,0.00027927,0.00017299,0.00
 051020,0.00000869,0.00008372,-0.00020823,-0.00000676,-0.00039130,0.000
 51748,-0.00009762,0.00025140,-0.00021826,0.00011752,0.00006211,-0.0002
 4143,-0.00010546,-0.00543466,-0.01120127,0.02068153,0.02608802,0.13467
 931,0.04518872,0.11093159,-0.22534353,-0.01127385,0.00820158,-0.009149
 58,0.00349906,0.00306208,0.00123434,-0.00045018,0.00029738,-0.00019147
 ,0.00017987,-0.00036497,0.00019490,0.00002592,-0.00021460,-0.00004842,
 0.00021307,0.00020984,0.00015939,-0.00082389,-0.00014826,-0.00026921,0
 .00044153,-0.00012225,0.00012192,-0.00020170,0.00004662,-0.00009076,-0
 .00012474,0.00004601,0.00001924,-0.00046853,-0.00462949,0.00798760,-0.
 04222325,-0.12848086,0.24334473,-0.09132325,0.05450528,0.07262659,-0.0
 2943914,0.02205367,0.01285866,0.00538425,0.00518812,0.00376257,0.00047
 733,-0.00074734,0.00014309,-0.00039930,-0.00028182,-0.00063473,0.00029
 269,-0.00077603,0.00014715,0.00056750,0.00083375,-0.00002853,-0.001345
 45,-0.00017922,-0.00114934,0.00046243,-0.00017932,0.00043302,-0.000256
 08,0.00009274,-0.00015463,-0.00011574,0.00027975,-0.00012215,0.0103441
 2,-0.00971694,-0.01344305,-0.00117261,0.00274354,0.00604314,0.10820866
 ,0.05791594,-0.13234738,-0.10466198,0.01657118,-0.00947007,-0.00388491
 ,-0.00265756,-0.00133615,-0.00041957,0.00048579,0.00052162,0.00064088,
 -0.00064453,-0.00007002,-0.00052760,0.00055996,-0.00033928,0.00016064,
 0.00013261,0.00052849,0.00012277,0.00006747,-0.00019980,0.00000791,-0.
 00039851,0.00046447,-0.00027325,0.00027497,-0.00020943,0.00016232,0.00
 001331,-0.00025067,0.00008816,0.01016584,-0.01189207,-0.01823182,-0.00
 846688,0.01061464,0.01226441,-0.07253314,0.14427608,0.07840135,-0.1065
 2222,-0.18881027,-0.00906564,0.01000394,0.01464171,0.00054353,0.000794
 40,0.00164719,0.00107109,-0.00113952,0.00035517,-0.00072603,0.00023903
 ,-0.00056334,0.00029018,-0.00043605,0.00004827,0.00016983,0.00048812,-
 0.00006622,-0.00021434,0.00006367,-0.00061588,-0.00010031,-0.00008093,
 0.00001863,0.00002180,0.00004728,0.00001315,0.00002318,0.00018189,0.00
 003338,0.00232765,-0.00195912,-0.00381100,0.00958404,-0.01582362,-0.01
 728860,-0.08147435,0.11388140,0.19418879,-0.00217877,-0.00323059,-0.00
 064037,-0.00182036,0.00054344,0.00048257,0.00195938,0.00094127,-0.0007
 5213,-0.25457405,0.10774466,-0.09278922,-0.01587095,0.01185312,-0.0075
 1839,-0.00087404,-0.00370953,-0.00321405,0.00023940,-0.00084413,0.0003
 6414,0.00174308,0.00020781,-0.00134688,0.00017769,-0.00057476,-0.00003
 600,-0.00011536,0.00012673,0.00003618,0.00004397,0.00015824,0.00004589
 ,0.00039784,-0.00071558,0.00035881,-0.00064469,-0.00074763,0.00001858,
 -0.00145574,-0.00158021,-0.00073843,0.27352288,-0.00006216,-0.00197546
 ,0.00004058,-0.00102657,0.00209727,-0.00052067,0.02769635,-0.00624822,
 0.01150556,0.10632931,-0.11518408,0.04500228,-0.01653087,0.01199841,-0
 .00692805,-0.00331677,-0.00124042,-0.00125215,-0.00100213,-0.00144784,
 -0.00039844,-0.00045382,-0.00573763,-0.00011269,0.00127016,0.00113839,
 0.00053335,0.00038632,-0.00096585,0.00023452,-0.00026280,-0.00032842,-
 0.00013070,-0.00009587,0.00039722,-0.00005885,-0.00074382,-0.00047749,
 -0.00100228,-0.00116929,-0.00040062,0.00023381,-0.11070854,0.11706757,
 -0.00075719,-0.00127244,-0.00062540,0.00054792,0.00017883,-0.00279005,
 -0.00111105,0.00025602,0.00326374,-0.09264357,0.04580632,-0.07116898,-
 0.00727338,0.00467324,-0.00104609,-0.00317657,-0.00151159,0.00580230,0
 .00039080,-0.00016450,-0.00044464,-0.00137790,0.00020751,0.00446447,-0
 .00007722,-0.00020276,0.00019554,0.00004805,0.00002703,-0.00018484,0.0
 0002440,0.00003962,-0.00001441,0.00034921,-0.00030948,-0.00030906,-0.0
 0161741,-0.00149551,-0.00062608,0.00090073,0.00057484,0.00012889,0.104
 19973,-0.04691880,0.06706754,0.00033496,-0.00006707,0.00014240,-0.0001
 0099,-0.00146752,0.00020370,-0.00221527,-0.00255711,-0.00418161,0.0059
 1985,-0.02439141,0.00114292,-0.05995199,0.02672445,-0.00861886,0.00366
 898,0.02665001,-0.00082301,-0.00337665,0.00238921,-0.00450764,-0.00129
 835,-0.00052448,-0.00021821,-0.00045100,0.00015194,0.00023497,0.000297
 36,0.00007448,0.00007183,0.00010610,0.00009234,0.00006022,-0.00003598,
 0.00003442,-0.00003305,0.00000695,0.00003039,-0.00003970,-0.00005432,-
 0.00000366,0.00000483,0.00025854,0.00040720,0.00182524,0.05659558,0.00
 042930,-0.00016695,0.00017676,-0.00036313,-0.00116335,-0.00013408,-0.0
 0274703,0.00068006,-0.00098872,0.00365783,-0.01351685,0.00178692,0.026
 31940,-0.33973235,0.01587036,-0.00146419,-0.00811189,-0.00041364,0.002
 67169,0.00068890,0.00121591,-0.00020937,0.00081777,-0.00011339,0.00007
 085,-0.00003036,0.00001780,-0.00004846,-0.00013087,-0.00000222,-0.0000
 1885,-0.00007971,-0.00002273,-0.00003592,0.00001029,-0.00001376,-0.000
 01859,0.00004278,-0.00002834,-0.00003168,0.00004477,0.00000723,-0.0000
 9148,0.00085637,-0.00012706,-0.02817444,0.35955479,0.00014532,-0.00002
 483,0.00004408,0.00015127,-0.00061966,-0.00046359,-0.00420450,-0.00097
 598,0.00634569,0.00076837,-0.00978840,0.00451977,-0.00863806,0.0160079
 4,-0.04412241,-0.00034829,0.01129033,0.00426331,-0.00457371,0.00112302
 ,0.00546419,-0.00012112,-0.00029685,-0.00087255,0.00027858,0.00011088,
 -0.00102688,0.00005942,0.00006346,0.00017761,0.00001401,0.00000453,0.0
 0003074,-0.00003169,0.00001516,0.00003051,-0.00005583,-0.00003598,-0.0
 0001842,0.00002367,0.00004876,0.00004243,0.00182144,0.00008805,-0.0034
 3941,0.01288782,-0.01718110,0.03238875,-0.00010850,0.00001387,0.000071
 99,0.00007879,-0.00007498,0.00034531,-0.00029427,0.00100185,0.00002160
 ,-0.00182604,0.00329456,-0.00375579,-0.01504987,-0.01720852,-0.0066482
 3,-0.22141271,-0.12633383,-0.07561437,0.00572139,0.00339506,0.00160994
 ,0.00232240,0.00107247,-0.00210974,0.00027899,0.00025789,-0.00014194,0
 .00000903,-0.00015316,0.00000053,-0.00004014,0.00002913,0.00007465,0.0
 0001271,-0.00004728,0.00001894,0.00003497,0.00001722,0.00006375,0.0000
 0051,-0.00001774,-0.00007089,-0.00068698,-0.00079901,-0.00045730,0.000
 23816,0.00023669,0.00169437,0.23089252,0.00003619,-0.00001588,0.000010
 04,-0.00010209,0.00032204,-0.00006018,0.00107922,-0.00112508,0.0004654
 7,0.00260746,-0.00013246,0.00120147,0.01150377,0.01169534,0.00462709,-
 0.12630943,-0.15461673,-0.05055104,-0.02524862,-0.01335775,-0.01025831
 ,0.00177731,-0.00481071,0.00100483,-0.00163087,0.00054239,-0.00068748,
 0.00038978,-0.00027119,0.00018902,0.00005189,-0.00085618,-0.00001636,-
 0.00002074,0.00002654,-0.00000955,-0.00001421,-0.00000189,-0.00002961,
 -0.00002772,0.00000026,0.00001351,0.00057110,0.00038733,0.00023250,-0.
 00057549,0.00064758,-0.00031026,0.13563145,0.16052257,0.00005297,0.000
 00706,-0.00025400,0.00037343,-0.00001193,-0.00059585,-0.00005013,0.000
 41368,-0.00041171,-0.00374937,0.00154441,0.00548875,-0.00713813,-0.007
 34231,-0.00123776,-0.07565206,-0.05055306,-0.06516945,0.00207474,0.001
 56809,0.00255048,-0.00201106,0.00057302,0.00644933,-0.00011586,0.00018
 556,0.00054205,0.00000528,-0.00002721,0.00003437,0.00005353,0.00002979
 ,-0.00018407,0.00001977,-0.00002144,-0.00002247,-0.00010263,-0.0000405
 1,0.00001251,0.00009873,0.00003787,0.00003772,-0.00049001,-0.00034225,
 0.00026270,0.00171272,0.00003000,-0.00314382,0.08319034,0.05417992,0.0
 5914915,0.00003801,-0.00030447,0.00009441,-0.00116322,0.00071344,-0.00
 061843,-0.00011248,-0.00360742,-0.00272513,0.00016101,-0.00044562,0.00
 042201,0.00224397,-0.00030824,-0.00217883,0.00422860,-0.00142961,-0.00
 041827,-0.25453590,0.10255834,-0.09051428,-0.01636485,0.01056886,-0.00
 905576,-0.00349134,0.00178567,-0.00003929,0.00224488,0.00154092,0.0011
 5844,0.00071402,0.00019772,0.00034916,-0.00009889,0.00004753,-0.000023
 98,0.00000033,0.00002430,-0.00002256,-0.00004867,0.00003003,-0.0000087
 5,-0.00012006,0.00007413,0.00022442,0.00004311,-0.00019290,0.00016441,
 -0.00016911,0.00035360,0.00169787,0.26643053,-0.00009835,-0.00024303,-
 0.00002130,-0.00133095,0.00055155,-0.00053018,-0.00227070,-0.00229023,
 -0.00084392,-0.00101835,-0.00087952,-0.00041319,0.00004556,-0.00564441
 ,0.00026900,0.02521984,-0.00678644,0.01077396,0.10575152,-0.11247206,0
 .04487400,-0.01464687,0.01193367,-0.00618049,-0.00305443,0.00022517,-0
 .00170803,0.00075551,-0.00359028,0.00040835,0.00139259,0.00087971,0.00
 091382,-0.00010144,0.00004078,-0.00004166,0.00000332,0.00002053,-0.000
 00825,-0.00000587,0.00002105,0.00000643,0.00007067,0.00004112,0.000014
 68,0.00120893,-0.00042943,0.00048840,-0.00035037,0.00111402,-0.0002631
 1,-0.11144080,0.11766215,0.00009041,-0.00013494,-0.00012273,-0.0005944
 0,0.00031403,0.00006544,-0.00274191,-0.00129477,0.00530162,0.00041205,
 -0.00026985,-0.00062275,-0.00205352,0.00006040,0.00649302,-0.00074444,
 -0.00032932,0.00487575,-0.09059640,0.04384859,-0.08078047,-0.00854234,
 0.00374355,0.00124322,0.00021969,0.00099858,-0.00430388,0.00106214,0.0
 0098941,0.00014074,0.00002443,-0.00020682,0.00016629,-0.00002353,0.000
 01919,-0.00004808,-0.00005357,0.00001792,-0.00001833,0.00002500,0.0000
 0656,0.00003150,0.00021726,0.00001864,-0.00056537,0.00015506,-0.000085
 19,-0.00027660,0.00167620,0.00005741,-0.00346807,0.10160161,-0.0476962
 5,0.07174597,0.00052033,0.00028695,0.00022955,-0.00130784,0.00110100,-
 0.00062719,-0.00039236,-0.00039503,0.00006562,-0.00000861,0.00015548,0
 .00016390,-0.00008725,0.00005175,-0.00006832,-0.00034689,-0.00017244,0
 .00017291,0.00044994,-0.00083054,-0.00011594,-0.00220597,-0.00197335,-
 0.00407775,0.01596332,-0.03900224,0.00489855,-0.00408688,0.00524002,0.
 00157590,-0.09215742,0.16707745,-0.03899537,-0.00005713,-0.00001598,-0
 .00003910,-0.00010754,0.00004609,-0.00004523,-0.00012720,0.00008510,-0
 .00003874,-0.00000175,0.00000820,-0.00001889,0.00001496,0.00001029,-0.
 00003548,-0.00000185,-0.00007260,0.00002988,0.00000005,-0.00012980,-0.
 00013373,0.08394009,0.00032664,-0.00005565,0.00013684,-0.00024264,0.00
 011092,-0.00017495,0.00035056,0.00027290,0.00026620,0.00001606,-0.0000
 5874,0.00006344,0.00017594,0.00016732,0.00005530,-0.00069587,0.0002369
 1,-0.00024941,0.00050063,-0.00107938,0.00008168,-0.00378438,0.00171905
 ,-0.00224126,0.00283856,-0.04757432,0.00012104,0.00718153,0.00641576,0
 .00449955,0.12504690,-0.42971968,0.05933471,-0.00001780,-0.00002288,-0
 .00000509,-0.00002976,0.00003836,-0.00003057,-0.00004848,0.00004410,0.
 00000075,-0.00001458,0.00002236,-0.00000844,-0.00000219,0.00001844,-0.
 00000747,0.00003472,-0.00007019,0.00003242,-0.00016549,-0.00015435,-0.
 00005715,-0.13147035,0.46968906,0.00021091,0.00006462,0.00015538,-0.00
 050349,0.00038065,0.00031808,0.00004601,0.00003727,-0.00044903,0.00014
 600,0.00002846,-0.00024722,-0.00000318,0.00007653,0.00005737,-0.000139
 68,-0.00000960,-0.00047608,0.00005701,-0.00076911,0.00054765,-0.004248
 41,-0.00088263,0.00242486,0.00656434,-0.02390631,0.00826680,0.00140590
 ,0.00336586,-0.00556816,-0.04036644,0.08346852,-0.03792358,-0.00003315
 ,-0.00000869,0.00002399,-0.00002454,0.00005683,-0.00003021,-0.00005557
 ,0.00000263,-0.00003152,-0.00001912,0.00000807,0.00002916,-0.00001960,
 0.00000525,0.00005658,0.00003064,-0.00005848,-0.00003986,-0.00010706,-
 0.00004227,0.00014273,0.03705944,-0.06181760,0.03274307\\-0.00000201,-
 0.00000127,-0.00000026,0.00000120,-0.00000588,0.00000021,0.00000596,-0
 .00000037,0.00000482,0.00000105,0.00000236,-0.00000031,-0.00000738,0.0
 0000074,-0.00000371,0.00000082,-0.00000299,-0.00000011,0.00000274,0.00
 000611,0.00000078,-0.00000529,-0.00000059,-0.00000200,0.00000242,0.000
 00626,-0.00000236,0.00000291,0.00000157,0.00000273,0.00000168,-0.00000
 032,0.00000179,0.00000031,-0.00000385,0.00000073,0.00000007,-0.0000040
 1,0.00000090,-0.00000067,-0.00000443,0.,-0.00000162,-0.00000194,-0.000
 00101,-0.00000241,0.00000016,-0.00000149,-0.00000247,0.00000373,-0.000
 00193,-0.00000017,0.00000367,-0.00000075,0.00000286,0.00000105,0.00000
 198\\\@
 The archive entry for this job was punched.


 Everything starts as somebody's daydream.
                           -- Larry Niven
 Job cpu time:       0 days  2 hours 13 minutes 55.4 seconds.
 Elapsed time:       0 days  0 hours 16 minutes 55.3 seconds.
 File lengths (MBytes):  RWF=    247 Int=      0 D2E=      0 Chk=     13 Scr=      1
 Normal termination of Gaussian 16 at Mon Jan 29 10:23:47 2024.
