Job Start Time: Mon Jan 29 09:34:00 MST 2024
SLURM Job ID: 229515
SLURM Job Name: Ac4_rdkit_conf_1
 Entering Gaussian System, Link 0=/opt/apps/Gaussian/G16C/g16/g16
 Initial command:
 /opt/apps/Gaussian/G16C/g16/l1.exe "/tmp/Gau-3516743.inp" -scrdir="/tmp/"
 Entering Link 1 = /opt/apps/Gaussian/G16C/g16/l1.exe PID=   3516744.
  
 Copyright (c) 1988-2019, Gaussian, Inc.  All Rights Reserved.
  
 This is part of the Gaussian(R) 16 program.  It is based on
 the Gaussian(R) 09 system (copyright 2009, Gaussian, Inc.),
 the Gaussian(R) 03 system (copyright 2003, Gaussian, Inc.),
 the Gaussian(R) 98 system (copyright 1998, Gaussian, Inc.),
 the Gaussian(R) 94 system (copyright 1995, Gaussian, Inc.),
 the Gaussian 92(TM) system (copyright 1992, Gaussian, Inc.),
 the Gaussian 90(TM) system (copyright 1990, Gaussian, Inc.),
 the Gaussian 88(TM) system (copyright 1988, Gaussian, Inc.),
 the Gaussian 86(TM) system (copyright 1986, Carnegie Mellon
 University), and the Gaussian 82(TM) system (copyright 1983,
 Carnegie Mellon University). Gaussian is a federally registered
 trademark of Gaussian, Inc.
  
 This software contains proprietary and confidential information,
 including trade secrets, belonging to Gaussian, Inc.
  
 This software is provided under written license and may be
 used, copied, transmitted, or stored only in accord with that
 written license.
  
 The following legend is applicable only to US Government
 contracts under FAR:
  
                    RESTRICTED RIGHTS LEGEND
  
 Use, reproduction and disclosure by the US Government is
 subject to restrictions as set forth in subparagraphs (a)
 and (c) of the Commercial Computer Software - Restricted
 Rights clause in FAR 52.227-19.
  
 Gaussian, Inc.
 340 Quinnipiac St., Bldg. 40, Wallingford CT 06492
  
  
 ---------------------------------------------------------------
 Warning -- This program may not be used in any manner that
 competes with the business of Gaussian, Inc. or will provide
 assistance to any competitor of Gaussian, Inc.  The licensee
 of this program is prohibited from giving any competitor of
 Gaussian, Inc. access to this program.  By using this program,
 the user acknowledges that Gaussian, Inc. is engaged in the
 business of creating and licensing software in the field of
 computational chemistry and represents and warrants to the
 licensee that it is not a competitor of Gaussian, Inc. and that
 it will not use this program in any manner prohibited above.
 ---------------------------------------------------------------
  

 Cite this work as:
 Gaussian 16, Revision C.01,
 M. J. Frisch, G. W. Trucks, H. B. Schlegel, G. E. Scuseria, 
 M. A. Robb, J. R. Cheeseman, G. Scalmani, V. Barone, 
 G. A. Petersson, H. Nakatsuji, X. Li, M. Caricato, A. V. Marenich, 
 J. Bloino, B. G. Janesko, R. Gomperts, B. Mennucci, H. P. Hratchian, 
 J. V. Ortiz, A. F. Izmaylov, J. L. Sonnenberg, D. Williams-Young, 
 F. Ding, F. Lipparini, F. Egidi, J. Goings, B. Peng, A. Petrone, 
 T. Henderson, D. Ranasinghe, V. G. Zakrzewski, J. Gao, N. Rega, 
 G. Zheng, W. Liang, M. Hada, M. Ehara, K. Toyota, R. Fukuda, 
 J. Hasegawa, M. Ishida, T. Nakajima, Y. Honda, O. Kitao, H. Nakai, 
 T. Vreven, K. Throssell, J. A. Montgomery, Jr., J. E. Peralta, 
 F. Ogliaro, M. J. Bearpark, J. J. Heyd, E. N. Brothers, K. N. Kudin, 
 V. N. Staroverov, T. A. Keith, R. Kobayashi, J. Normand, 
 K. Raghavachari, A. P. Rendell, J. C. Burant, S. S. Iyengar, 
 J. Tomasi, M. Cossi, J. M. Millam, M. Klene, C. Adamo, R. Cammi, 
 J. W. Ochterski, R. L. Martin, K. Morokuma, O. Farkas, 
 J. B. Foresman, and D. J. Fox, Gaussian, Inc., Wallingford CT, 2019.
 
 ******************************************
 Gaussian 16:  AS64L-G16RevC.01  3-Jul-2019
                29-Jan-2024 
 ******************************************
 %nprocshared=8
 Will use up to    8 processors via shared memory.
 %mem=16GB
 ---------------------------------
 # m062x/def2tzvp opt freq=noraman
 ---------------------------------
 1/18=20,19=15,26=3,38=1/1,3;
 2/9=110,12=2,17=6,18=5,40=1/2;
 3/5=44,7=101,11=2,25=1,30=1,71=1,74=-55/1,2,3;
 4//1;
 5/5=2,38=5/2;
 6/7=2,8=2,9=2,10=2,28=1/1;
 7//1,2,3,16;
 1/18=20,19=15,26=3/3(2);
 2/9=110/2;
 99//99;
 2/9=110/2;
 3/5=44,7=101,11=2,25=1,30=1,71=1,74=-55/1,2,3;
 4/5=5,16=3,69=1/1;
 5/5=2,38=5/2;
 7//1,2,3,16;
 1/18=20,19=15,26=3/3(-5);
 2/9=110/2;
 6/7=2,8=2,9=2,10=2,19=2,28=1/1;
 99/9=1/99;
 ----------------
 Ac4_rdkit_conf_1
 ----------------
 Symbolic Z-matrix:
 Charge =  0 Multiplicity = 1
 C                    -1.1125    2.6306    0.1817 
 O                     0.008     1.7609    0.0956 
 C                    -0.2277    0.4125    0.1005 
 C                    -1.4542   -0.1607    0.4635 
 C                    -1.6156   -1.5496    0.4855 
 C                    -0.5538   -2.3838    0.1511 
 C                     0.6734   -1.8293   -0.208 
 C                     0.8444   -0.4338   -0.2351 
 C                     2.1567    0.1258   -0.6536 
 O                     2.3811    1.1853   -1.2057 
 O                     3.1709   -0.7095   -0.3462 
 H                    -1.8488    2.4127   -0.5992 
 H                    -1.5658    2.5858    1.177 
 H                    -0.7549    3.653     0.0257 
 H                    -2.3058    0.4489    0.7488 
 H                    -2.5734   -1.9788    0.7706 
 H                    -0.6794   -3.4635    0.1698 
 H                     1.4954   -2.4902   -0.4736 
 H                     3.9621   -0.2162   -0.6484 
 

 GradGradGradGradGradGradGradGradGradGradGradGradGradGradGradGradGradGrad
 Berny optimization.
 Initialization pass.
                           ----------------------------
                           !    Initial Parameters    !
                           ! (Angstroms and Degrees)  !
 --------------------------                            --------------------------
 ! Name  Definition              Value          Derivative Info.                !
 --------------------------------------------------------------------------------
 ! R1    R(1,2)                  1.421          estimate D2E/DX2                !
 ! R2    R(1,12)                 1.0952         estimate D2E/DX2                !
 ! R3    R(1,13)                 1.0946         estimate D2E/DX2                !
 ! R4    R(1,14)                 1.0943         estimate D2E/DX2                !
 ! R5    R(2,3)                  1.3689         estimate D2E/DX2                !
 ! R6    R(3,4)                  1.4017         estimate D2E/DX2                !
 ! R7    R(3,8)                  1.4065         estimate D2E/DX2                !
 ! R8    R(4,5)                  1.3984         estimate D2E/DX2                !
 ! R9    R(4,15)                 1.0855         estimate D2E/DX2                !
 ! R10   R(5,6)                  1.3911         estimate D2E/DX2                !
 ! R11   R(5,16)                 1.0876         estimate D2E/DX2                !
 ! R12   R(6,7)                  1.3937         estimate D2E/DX2                !
 ! R13   R(6,17)                 1.0871         estimate D2E/DX2                !
 ! R14   R(7,8)                  1.4062         estimate D2E/DX2                !
 ! R15   R(7,18)                 1.0877         estimate D2E/DX2                !
 ! R16   R(8,9)                  1.4868         estimate D2E/DX2                !
 ! R17   R(9,10)                 1.2156         estimate D2E/DX2                !
 ! R18   R(9,11)                 1.3494         estimate D2E/DX2                !
 ! R19   R(11,19)                0.9801         estimate D2E/DX2                !
 ! A1    A(2,1,12)             111.417          estimate D2E/DX2                !
 ! A2    A(2,1,13)             110.8911         estimate D2E/DX2                !
 ! A3    A(2,1,14)             107.788          estimate D2E/DX2                !
 ! A4    A(12,1,13)            111.2102         estimate D2E/DX2                !
 ! A5    A(12,1,14)            107.6943         estimate D2E/DX2                !
 ! A6    A(13,1,14)            107.6496         estimate D2E/DX2                !
 ! A7    A(1,2,3)              117.8325         estimate D2E/DX2                !
 ! A8    A(2,3,4)              123.6717         estimate D2E/DX2                !
 ! A9    A(2,3,8)              117.4265         estimate D2E/DX2                !
 ! A10   A(4,3,8)              118.8634         estimate D2E/DX2                !
 ! A11   A(3,4,5)              120.7458         estimate D2E/DX2                !
 ! A12   A(3,4,15)             121.6625         estimate D2E/DX2                !
 ! A13   A(5,4,15)             117.5871         estimate D2E/DX2                !
 ! A14   A(4,5,6)              120.246          estimate D2E/DX2                !
 ! A15   A(4,5,16)             119.8486         estimate D2E/DX2                !
 ! A16   A(6,5,16)             119.9045         estimate D2E/DX2                !
 ! A17   A(5,6,7)              119.6991         estimate D2E/DX2                !
 ! A18   A(5,6,17)             120.2152         estimate D2E/DX2                !
 ! A19   A(7,6,17)             120.0857         estimate D2E/DX2                !
 ! A20   A(6,7,8)              120.4557         estimate D2E/DX2                !
 ! A21   A(6,7,18)             119.1187         estimate D2E/DX2                !
 ! A22   A(8,7,18)             120.4244         estimate D2E/DX2                !
 ! A23   A(3,8,7)              119.9892         estimate D2E/DX2                !
 ! A24   A(3,8,9)              120.8968         estimate D2E/DX2                !
 ! A25   A(7,8,9)              119.0969         estimate D2E/DX2                !
 ! A26   A(8,9,10)             128.2313         estimate D2E/DX2                !
 ! A27   A(8,9,11)             111.4872         estimate D2E/DX2                !
 ! A28   A(10,9,11)            120.2815         estimate D2E/DX2                !
 ! A29   A(9,11,19)            102.9987         estimate D2E/DX2                !
 ! D1    D(12,1,2,3)           -54.3613         estimate D2E/DX2                !
 ! D2    D(13,1,2,3)            70.0886         estimate D2E/DX2                !
 ! D3    D(14,1,2,3)          -172.3124         estimate D2E/DX2                !
 ! D4    D(1,2,3,4)            -13.9499         estimate D2E/DX2                !
 ! D5    D(1,2,3,8)            168.3326         estimate D2E/DX2                !
 ! D6    D(2,3,4,5)           -178.0485         estimate D2E/DX2                !
 ! D7    D(2,3,4,15)             1.1515         estimate D2E/DX2                !
 ! D8    D(8,3,4,5)             -0.3619         estimate D2E/DX2                !
 ! D9    D(8,3,4,15)           178.8381         estimate D2E/DX2                !
 ! D10   D(2,3,8,7)            178.0852         estimate D2E/DX2                !
 ! D11   D(2,3,8,9)             -3.4319         estimate D2E/DX2                !
 ! D12   D(4,3,8,7)              0.2541         estimate D2E/DX2                !
 ! D13   D(4,3,8,9)            178.7371         estimate D2E/DX2                !
 ! D14   D(3,4,5,6)              0.2716         estimate D2E/DX2                !
 ! D15   D(3,4,5,16)           179.9266         estimate D2E/DX2                !
 ! D16   D(15,4,5,6)          -178.9602         estimate D2E/DX2                !
 ! D17   D(15,4,5,16)            0.6949         estimate D2E/DX2                !
 ! D18   D(4,5,6,7)             -0.0678         estimate D2E/DX2                !
 ! D19   D(4,5,6,17)           179.909          estimate D2E/DX2                !
 ! D20   D(16,5,6,7)          -179.7226         estimate D2E/DX2                !
 ! D21   D(16,5,6,17)            0.2542         estimate D2E/DX2                !
 ! D22   D(5,6,7,8)             -0.0379         estimate D2E/DX2                !
 ! D23   D(5,6,7,18)          -179.6276         estimate D2E/DX2                !
 ! D24   D(17,6,7,8)           179.9852         estimate D2E/DX2                !
 ! D25   D(17,6,7,18)            0.3955         estimate D2E/DX2                !
 ! D26   D(6,7,8,3)             -0.0572         estimate D2E/DX2                !
 ! D27   D(6,7,8,9)           -178.5674         estimate D2E/DX2                !
 ! D28   D(18,7,8,3)           179.5271         estimate D2E/DX2                !
 ! D29   D(18,7,8,9)             1.0169         estimate D2E/DX2                !
 ! D30   D(3,8,9,10)           -28.3646         estimate D2E/DX2                !
 ! D31   D(3,8,9,11)           151.6865         estimate D2E/DX2                !
 ! D32   D(7,8,9,10)           150.1317         estimate D2E/DX2                !
 ! D33   D(7,8,9,11)           -29.8172         estimate D2E/DX2                !
 ! D34   D(8,9,11,19)         -178.5189         estimate D2E/DX2                !
 ! D35   D(10,9,11,19)           1.5277         estimate D2E/DX2                !
 --------------------------------------------------------------------------------
 Trust Radius=3.00D-01 FncErr=1.00D-07 GrdErr=1.00D-06 EigMax=2.50D+02 EigMin=1.00D-04
 Number of steps in this run=     93 maximum allowed number of steps=    114.
 GradGradGradGradGradGradGradGradGradGradGradGradGradGradGradGradGradGrad

                          Input orientation:                          
 ---------------------------------------------------------------------
 Center     Atomic      Atomic             Coordinates (Angstroms)
 Number     Number       Type             X           Y           Z
 ---------------------------------------------------------------------
      1          6           0       -1.112500    2.630600    0.181700
      2          8           0        0.008000    1.760900    0.095600
      3          6           0       -0.227700    0.412500    0.100500
      4          6           0       -1.454200   -0.160700    0.463500
      5          6           0       -1.615600   -1.549600    0.485500
      6          6           0       -0.553800   -2.383800    0.151100
      7          6           0        0.673400   -1.829300   -0.208000
      8          6           0        0.844400   -0.433800   -0.235100
      9          6           0        2.156700    0.125800   -0.653600
     10          8           0        2.381100    1.185300   -1.205700
     11          8           0        3.170900   -0.709500   -0.346200
     12          1           0       -1.848800    2.412700   -0.599200
     13          1           0       -1.565800    2.585800    1.177000
     14          1           0       -0.754900    3.653000    0.025700
     15          1           0       -2.305800    0.448900    0.748800
     16          1           0       -2.573400   -1.978800    0.770600
     17          1           0       -0.679400   -3.463500    0.169800
     18          1           0        1.495400   -2.490200   -0.473600
     19          1           0        3.962100   -0.216200   -0.648400
 ---------------------------------------------------------------------
                    Distance matrix (angstroms):
                    1          2          3          4          5
     1  C    0.000000
     2  O    1.421025   0.000000
     3  C    2.389442   1.368854   0.000000
     4  C    2.826221   2.442524   1.401652   0.000000
     5  C    4.221312   3.707763   2.433994   1.398420   0.000000
     6  C    5.045522   4.182970   2.815705   2.418778   1.391090
     7  C    4.819960   3.663941   2.435738   2.786004   2.408048
     8  C    3.659744   2.371842   1.406503   2.417889   2.795688
     9  C    4.202311   2.802100   2.517186   3.790593   4.281911
    10  O    4.027283   2.767002   3.018148   4.394027   5.129663
    11  O    5.457331   4.037574   3.606786   4.727404   4.930322
    12  H    1.095182   2.086935   2.668023   2.812015   4.114703
    13  H    1.094582   2.080080   2.769945   2.839859   4.193112
    14  H    1.094311   2.041310   3.283957   3.901922   5.293323
    15  H    2.550565   2.738920   2.177181   1.085463   2.130658
    16  H    4.871098   4.593975   3.416088   2.156944   1.087601
    17  H    6.109482   5.269951   3.902847   3.405152   2.153869
    18  H    5.783870   4.539625   3.424081   3.873612   3.388646
    19  H    5.877491   4.483009   4.302388   5.529530   5.845889
                    6          7          8          9         10
     6  C    0.000000
     7  C    1.393716   0.000000
     8  C    2.430353   1.406199   0.000000
     9  C    3.780535   2.494224   1.486750   0.000000
    10  O    4.815913   3.605476   2.434131   1.215611   0.000000
    11  O    4.113876   2.740540   2.345412   1.349379   2.225487
    12  H    5.024578   4.950666   3.935538   4.612689   4.445943
    13  H    5.174315   5.140559   4.113523   4.822831   4.818369
    14  H    6.041450   5.670121   4.396329   4.623852   4.176169
    15  H    3.383924   3.870568   3.416281   4.688819   5.131217
    16  H    2.150951   3.394366   3.883274   5.369500   6.201964
    17  H    1.087142   2.154857   3.415405   4.648067   5.733237
    18  H    2.144946   1.087665   2.170130   2.704288   3.850940
    19  H    5.072578   3.689389   3.152494   1.837515   2.185028
                   11         12         13         14         15
    11  O    0.000000
    12  H    5.916885   0.000000
    13  H    5.967870   1.806914   0.000000
    14  H    5.880614   1.767897   1.766909   0.000000
    15  H    5.703960   2.425379   2.301586   3.632413   0.000000
    16  H    5.987933   4.656895   4.692120   5.964813   2.442501
    17  H    4.761889   6.040578   6.196304   7.118359   4.276364
    18  H    2.448351   5.936150   6.153146   6.561407   4.957993
    19  H    0.980136   6.378095   6.460725   6.138013   6.456090
                   16         17         18         19
    16  H    0.000000
    17  H    2.480430   0.000000
    18  H    4.285405   2.468002   0.000000
    19  H    6.916146   5.723454   3.359500   0.000000
 Stoichiometry    C8H8O3
 Framework group  C1[X(C8H8O3)]
 Deg. of freedom    51
 Full point group                 C1      NOp   1
 Largest Abelian subgroup         C1      NOp   1
 Largest concise Abelian subgroup C1      NOp   1
                         Standard orientation:                         
 ---------------------------------------------------------------------
 Center     Atomic      Atomic             Coordinates (Angstroms)
 Number     Number       Type             X           Y           Z
 ---------------------------------------------------------------------
      1          6           0       -1.818490   -2.453912   -0.025044
      2          8           0       -0.624835   -1.699706   -0.185266
      3          6           0       -0.707144   -0.338960   -0.061344
      4          6           0       -1.916086    0.370293   -0.068223
      5          6           0       -1.926801    1.765746    0.022189
      6          6           0       -0.731398    2.471119    0.114892
      7          6           0        0.479264    1.780666    0.118773
      8          6           0        0.499777    0.377391    0.030488
      9          6           0        1.806619   -0.330463    0.069624
     10          8           0        2.046050   -1.445135    0.491393
     11          8           0        2.795916    0.429390   -0.444902
     12          1           0       -2.308226   -2.229729    0.928541
     13          1           0       -2.498601   -2.291857   -0.867242
     14          1           0       -1.545892   -3.513702   -0.017885
     15          1           0       -2.872689   -0.135103   -0.156072
     16          1           0       -2.873287    2.301448    0.014316
     17          1           0       -0.740253    3.556047    0.183668
     18          1           0        1.408004    2.341213    0.197791
     19          1           0        3.579446   -0.155990   -0.381046
 ---------------------------------------------------------------------
 Rotational constants (GHZ):           1.3861219           1.1460816           0.6432609
 Standard basis: def2TZVP (5D, 7F)
 There are   444 symmetry adapted cartesian basis functions of A   symmetry.
 There are   389 symmetry adapted basis functions of A   symmetry.
   389 basis functions,   625 primitive gaussians,   444 cartesian basis functions
    40 alpha electrons       40 beta electrons
       nuclear repulsion energy       593.1277486310 Hartrees.
 NAtoms=   19 NActive=   19 NUniq=   19 SFac= 1.00D+00 NAtFMM=   60 NAOKFM=F Big=F
 Integral buffers will be    131072 words long.
 Raffenetti 2 integral format.
 Two-electron integral symmetry is turned on.
 One-electron integrals computed using PRISM.
   1 Symmetry operations used in ECPInt.
 ECPInt:  NShTT=   11781 NPrTT=   36312 LenC2=   11249 LenP2D=   26592.
 LDataN:  DoStor=T MaxTD1= 6 Len=  172
 NBasis=   389 RedAO= T EigKep=  8.33D-06  NBF=   389
 NBsUse=   389 1.00D-06 EigRej= -1.00D+00 NBFU=   389
 ExpMin= 9.52D-02 ExpMax= 2.70D+04 ExpMxC= 9.22D+02 IAcc=3 IRadAn=         5 AccDes= 0.00D+00
 Harris functional with IExCor= 1009 and IRadAn=       5 diagonalized for initial guess.
 HarFok:  IExCor= 1009 AccDes= 0.00D+00 IRadAn=         5 IDoV= 1 UseB2=F ITyADJ=14
 ICtDFT=  3500011 ScaDFX=  1.000000  1.000000  1.000000  1.000000
 FoFCou: FMM=F IPFlag=           0 FMFlag=      100000 FMFlg1=           0
         NFxFlg=           0 DoJE=T BraDBF=F KetDBF=T FulRan=T
         wScrn=  0.000000 ICntrl=       500 IOpCl=  0 I1Cent=   200000004 NGrid=           0
         NMat0=    1 NMatS0=      1 NMatT0=    0 NMatD0=    1 NMtDS0=    0 NMtDT0=    0
 Petite list used in FoFCou.
 Requested convergence on RMS density matrix=1.00D-08 within 128 cycles.
 Requested convergence on MAX density matrix=1.00D-06.
 Requested convergence on             energy=1.00D-06.
 No special actions if energy rises.
 Integral accuracy reduced to 1.0D-05 until final iterations.
 Initial convergence to 1.0D-05 achieved.  Increase integral accuracy.
 SCF Done:  E(RM062X) =  -535.334950543     A.U. after   16 cycles
            NFock= 16  Conv=0.17D-08     -V/T= 2.0051

 **********************************************************************

            Population analysis using the SCF Density.

 **********************************************************************

 Orbital symmetries:
       Occupied  (A) (A) (A) (A) (A) (A) (A) (A) (A) (A) (A) (A)
                 (A) (A) (A) (A) (A) (A) (A) (A) (A) (A) (A) (A)
                 (A) (A) (A) (A) (A) (A) (A) (A) (A) (A) (A) (A)
                 (A) (A) (A) (A)
       Virtual   (A) (A) (A) (A) (A) (A) (A) (A) (A) (A) (A) (A)
                 (A) (A) (A) (A) (A) (A) (A) (A) (A) (A) (A) (A)
                 (A) (A) (A) (A) (A) (A) (A) (A) (A) (A) (A) (A)
                 (A) (A) (A) (A) (A) (A) (A) (A) (A) (A) (A) (A)
                 (A) (A) (A) (A) (A) (A) (A) (A) (A) (A) (A) (A)
                 (A) (A) (A) (A) (A) (A) (A) (A) (A) (A) (A) (A)
                 (A) (A) (A) (A) (A) (A) (A) (A) (A) (A) (A) (A)
                 (A) (A) (A) (A) (A) (A) (A) (A) (A) (A) (A) (A)
                 (A) (A) (A) (A) (A) (A) (A) (A) (A) (A) (A) (A)
                 (A) (A) (A) (A) (A) (A) (A) (A) (A) (A) (A) (A)
                 (A) (A) (A) (A) (A) (A) (A) (A) (A) (A) (A) (A)
                 (A) (A) (A) (A) (A) (A) (A) (A) (A) (A) (A) (A)
                 (A) (A) (A) (A) (A) (A) (A) (A) (A) (A) (A) (A)
                 (A) (A) (A) (A) (A) (A) (A) (A) (A) (A) (A) (A)
                 (A) (A) (A) (A) (A) (A) (A) (A) (A) (A) (A) (A)
                 (A) (A) (A) (A) (A) (A) (A) (A) (A) (A) (A) (A)
                 (A) (A) (A) (A) (A) (A) (A) (A) (A) (A) (A) (A)
                 (A) (A) (A) (A) (A) (A) (A) (A) (A) (A) (A) (A)
                 (A) (A) (A) (A) (A) (A) (A) (A) (A) (A) (A) (A)
                 (A) (A) (A) (A) (A) (A) (A) (A) (A) (A) (A) (A)
                 (A) (A) (A) (A) (A) (A) (A) (A) (A) (A) (A) (A)
                 (A) (A) (A) (A) (A) (A) (A) (A) (A) (A) (A) (A)
                 (A) (A) (A) (A) (A) (A) (A) (A) (A) (A) (A) (A)
                 (A) (A) (A) (A) (A) (A) (A) (A) (A) (A) (A) (A)
                 (A) (A) (A) (A) (A) (A) (A) (A) (A) (A) (A) (A)
                 (A) (A) (A) (A) (A) (A) (A) (A) (A) (A) (A) (A)
                 (A) (A) (A) (A) (A) (A) (A) (A) (A) (A) (A) (A)
                 (A) (A) (A) (A) (A) (A) (A) (A) (A) (A) (A) (A)
                 (A) (A) (A) (A) (A) (A) (A) (A) (A) (A) (A) (A)
                 (A)
 The electronic state is 1-A.
 Alpha  occ. eigenvalues --  -19.66952 -19.66299 -19.61137 -10.67672 -10.62456
 Alpha  occ. eigenvalues --  -10.59545 -10.56532 -10.56162 -10.56122 -10.55489
 Alpha  occ. eigenvalues --  -10.54814  -1.23403  -1.19479  -1.12854  -0.97261
 Alpha  occ. eigenvalues --   -0.87832  -0.85807  -0.80059  -0.75020  -0.69822
 Alpha  occ. eigenvalues --   -0.67000  -0.62019  -0.58454  -0.57555  -0.56483
 Alpha  occ. eigenvalues --   -0.55714  -0.53893  -0.53005  -0.51889  -0.49216
 Alpha  occ. eigenvalues --   -0.47820  -0.45890  -0.44737  -0.43082  -0.41311
 Alpha  occ. eigenvalues --   -0.39969  -0.39108  -0.34983  -0.32227  -0.29226
 Alpha virt. eigenvalues --   -0.01817   0.02100   0.06777   0.07640   0.08269
 Alpha virt. eigenvalues --    0.08697   0.10614   0.11560   0.13484   0.14309
 Alpha virt. eigenvalues --    0.14489   0.15693   0.16561   0.19042   0.19355
 Alpha virt. eigenvalues --    0.21395   0.22211   0.23600   0.24271   0.24675
 Alpha virt. eigenvalues --    0.25510   0.25541   0.27239   0.27493   0.29428
 Alpha virt. eigenvalues --    0.30348   0.31819   0.32346   0.32749   0.34305
 Alpha virt. eigenvalues --    0.35169   0.36016   0.37706   0.38620   0.38817
 Alpha virt. eigenvalues --    0.39875   0.40600   0.41438   0.41858   0.43345
 Alpha virt. eigenvalues --    0.43840   0.44477   0.45625   0.47368   0.48149
 Alpha virt. eigenvalues --    0.48539   0.49241   0.50398   0.50674   0.51115
 Alpha virt. eigenvalues --    0.51431   0.53124   0.53693   0.55326   0.55751
 Alpha virt. eigenvalues --    0.56555   0.58019   0.60362   0.61313   0.62380
 Alpha virt. eigenvalues --    0.64420   0.65377   0.67949   0.69042   0.69347
 Alpha virt. eigenvalues --    0.69891   0.71747   0.72862   0.73253   0.74548
 Alpha virt. eigenvalues --    0.75731   0.77074   0.78393   0.80382   0.81491
 Alpha virt. eigenvalues --    0.83558   0.84342   0.86874   0.87897   0.88842
 Alpha virt. eigenvalues --    0.90182   0.91678   0.92580   0.93912   0.96540
 Alpha virt. eigenvalues --    0.96784   0.99268   1.00357   1.01222   1.02923
 Alpha virt. eigenvalues --    1.04817   1.05485   1.08589   1.12909   1.13724
 Alpha virt. eigenvalues --    1.14113   1.14521   1.17637   1.19880   1.22928
 Alpha virt. eigenvalues --    1.23911   1.25656   1.28685   1.28788   1.30195
 Alpha virt. eigenvalues --    1.30916   1.33209   1.35847   1.37464   1.39366
 Alpha virt. eigenvalues --    1.42715   1.44447   1.47051   1.48747   1.49514
 Alpha virt. eigenvalues --    1.52740   1.53003   1.54491   1.55434   1.56029
 Alpha virt. eigenvalues --    1.56302   1.57609   1.58449   1.59541   1.61151
 Alpha virt. eigenvalues --    1.62493   1.64252   1.67943   1.69264   1.70326
 Alpha virt. eigenvalues --    1.71453   1.72911   1.73780   1.74600   1.75787
 Alpha virt. eigenvalues --    1.77916   1.83159   1.84961   1.85513   1.88687
 Alpha virt. eigenvalues --    1.89737   1.90535   1.91581   1.94617   1.96646
 Alpha virt. eigenvalues --    1.96755   1.98427   2.00210   2.02095   2.04117
 Alpha virt. eigenvalues --    2.04886   2.08281   2.09093   2.10523   2.12125
 Alpha virt. eigenvalues --    2.14178   2.15826   2.16540   2.19042   2.20216
 Alpha virt. eigenvalues --    2.23368   2.25312   2.25713   2.27778   2.28762
 Alpha virt. eigenvalues --    2.30907   2.34009   2.36089   2.36477   2.37720
 Alpha virt. eigenvalues --    2.38089   2.41904   2.44781   2.46220   2.48088
 Alpha virt. eigenvalues --    2.52433   2.53240   2.54830   2.55612   2.58273
 Alpha virt. eigenvalues --    2.59877   2.60859   2.64096   2.64566   2.66009
 Alpha virt. eigenvalues --    2.66644   2.67927   2.68411   2.70619   2.72335
 Alpha virt. eigenvalues --    2.74231   2.76699   2.76851   2.78886   2.81251
 Alpha virt. eigenvalues --    2.81389   2.82936   2.84390   2.84871   2.86317
 Alpha virt. eigenvalues --    2.87859   2.88561   2.89915   2.91035   2.91958
 Alpha virt. eigenvalues --    2.94918   2.96052   2.96478   2.98987   3.00891
 Alpha virt. eigenvalues --    3.02876   3.03671   3.04764   3.07527   3.08637
 Alpha virt. eigenvalues --    3.11981   3.13954   3.14423   3.14885   3.16472
 Alpha virt. eigenvalues --    3.18190   3.19501   3.19878   3.21766   3.22634
 Alpha virt. eigenvalues --    3.23505   3.24860   3.25437   3.28066   3.29271
 Alpha virt. eigenvalues --    3.30422   3.31001   3.31647   3.33630   3.34464
 Alpha virt. eigenvalues --    3.35012   3.36013   3.36607   3.39669   3.40972
 Alpha virt. eigenvalues --    3.41486   3.44989   3.46632   3.47762   3.48755
 Alpha virt. eigenvalues --    3.50558   3.51760   3.52511   3.54059   3.55722
 Alpha virt. eigenvalues --    3.56205   3.57810   3.61991   3.63382   3.65214
 Alpha virt. eigenvalues --    3.67629   3.70166   3.73631   3.77260   3.80961
 Alpha virt. eigenvalues --    3.83102   3.86499   3.86549   3.91761   3.94926
 Alpha virt. eigenvalues --    3.97887   4.04202   4.06550   4.08339   4.11432
 Alpha virt. eigenvalues --    4.13454   4.14414   4.14996   4.16541   4.18734
 Alpha virt. eigenvalues --    4.21035   4.21752   4.22881   4.25216   4.28469
 Alpha virt. eigenvalues --    4.36220   4.38978   4.41148   4.43559   4.49902
 Alpha virt. eigenvalues --    4.53908   4.54916   4.58545   4.58657   4.62913
 Alpha virt. eigenvalues --    4.67249   4.72876   4.81007   4.88190   4.88324
 Alpha virt. eigenvalues --    5.01597   5.08560   5.11552   5.18195   5.20927
 Alpha virt. eigenvalues --    5.22284   5.23367   5.27747   5.35995   5.36782
 Alpha virt. eigenvalues --    5.39625   5.46370   5.47505   5.54221   5.58054
 Alpha virt. eigenvalues --    5.64239   5.74234   5.80061   5.86413   5.89356
 Alpha virt. eigenvalues --    5.92510   5.97788   6.17771   6.22898   6.26680
 Alpha virt. eigenvalues --    6.33755   6.35817   6.45606   6.48461   6.53021
 Alpha virt. eigenvalues --    6.64727   6.70126   6.71713   6.78619   6.79974
 Alpha virt. eigenvalues --    6.83352   6.86141   6.91163   7.07627   7.14060
 Alpha virt. eigenvalues --    7.16136   7.30398   7.37102  22.19624  22.45993
 Alpha virt. eigenvalues --   22.67865  22.74647  22.89823  22.92624  23.33409
 Alpha virt. eigenvalues --   23.54565  43.92876  44.02377  44.36600
          Condensed to atoms (all electrons):
               1          2          3          4          5          6
     1  C    4.908241   0.234772  -0.085930   0.008263  -0.004466   0.001396
     2  O    0.234772   7.921186   0.409113  -0.072392   0.005708  -0.000399
     3  C   -0.085930   0.409113   4.777248   0.439493   0.015852  -0.062394
     4  C    0.008263  -0.072392   0.439493   5.176784   0.400593  -0.005820
     5  C   -0.004466   0.005708   0.015852   0.400593   4.967416   0.466429
     6  C    0.001396  -0.000399  -0.062394  -0.005820   0.466429   4.980148
     7  C   -0.001860   0.003257   0.020123  -0.119001   0.033678   0.426377
     8  C    0.006506  -0.132615   0.364709   0.000772  -0.097323   0.009438
     9  C   -0.000594   0.014715  -0.070623   0.009718  -0.001480   0.001712
    10  O    0.000910  -0.015668   0.000522   0.000562  -0.000030  -0.000017
    11  O    0.000008  -0.000433  -0.001571  -0.000139   0.000300  -0.001729
    12  H    0.417484  -0.041809  -0.005733   0.003042  -0.002034   0.000258
    13  H    0.417353  -0.034958  -0.021541   0.010058   0.000958  -0.000110
    14  H    0.399505  -0.029450   0.007666  -0.001463   0.000218  -0.000041
    15  H    0.003762  -0.003819  -0.032946   0.398159  -0.014356   0.000861
    16  H   -0.000058  -0.000119   0.000903  -0.022247   0.398677  -0.028381
    17  H    0.000000   0.000014  -0.001162   0.007770  -0.039914   0.418363
    18  H    0.000026  -0.000044   0.013084  -0.003147   0.007124  -0.041632
    19  H    0.000003   0.000108   0.000031   0.000033   0.000007  -0.000062
               7          8          9         10         11         12
     1  C   -0.001860   0.006506  -0.000594   0.000910   0.000008   0.417484
     2  O    0.003257  -0.132615   0.014715  -0.015668  -0.000433  -0.041809
     3  C    0.020123   0.364709  -0.070623   0.000522  -0.001571  -0.005733
     4  C   -0.119001   0.000772   0.009718   0.000562  -0.000139   0.003042
     5  C    0.033678  -0.097323  -0.001480  -0.000030   0.000300  -0.002034
     6  C    0.426377   0.009438   0.001712  -0.000017  -0.001729   0.000258
     7  C    5.085934   0.343162  -0.033862   0.000045   0.014784  -0.000708
     8  C    0.343162   5.531648   0.209339  -0.095829  -0.172154   0.001940
     9  C   -0.033862   0.209339   4.524352   0.698020   0.401672   0.000223
    10  O    0.000045  -0.095829   0.698020   7.824715  -0.097663  -0.000071
    11  O    0.014784  -0.172154   0.401672  -0.097663   7.974009  -0.000002
    12  H   -0.000708   0.001940   0.000223  -0.000071  -0.000002   0.548181
    13  H    0.000145  -0.003538   0.000012  -0.000049   0.000000  -0.055414
    14  H    0.000120   0.000729  -0.000308   0.000220   0.000001  -0.017819
    15  H    0.001540   0.003201  -0.000296  -0.000011   0.000005  -0.002275
    16  H    0.003368   0.000827   0.000066  -0.000001  -0.000000  -0.000021
    17  H   -0.041195   0.008637  -0.000011   0.000004  -0.000107   0.000003
    18  H    0.412682  -0.032719  -0.010740  -0.000082   0.009988  -0.000003
    19  H   -0.002051   0.027003  -0.035602   0.007922   0.290196  -0.000001
              13         14         15         16         17         18
     1  C    0.417353   0.399505   0.003762  -0.000058   0.000000   0.000026
     2  O   -0.034958  -0.029450  -0.003819  -0.000119   0.000014  -0.000044
     3  C   -0.021541   0.007666  -0.032946   0.000903  -0.001162   0.013084
     4  C    0.010058  -0.001463   0.398159  -0.022247   0.007770  -0.003147
     5  C    0.000958   0.000218  -0.014356   0.398677  -0.039914   0.007124
     6  C   -0.000110  -0.000041   0.000861  -0.028381   0.418363  -0.041632
     7  C    0.000145   0.000120   0.001540   0.003368  -0.041195   0.412682
     8  C   -0.003538   0.000729   0.003201   0.000827   0.008637  -0.032719
     9  C    0.000012  -0.000308  -0.000296   0.000066  -0.000011  -0.010740
    10  O   -0.000049   0.000220  -0.000011  -0.000001   0.000004  -0.000082
    11  O    0.000000   0.000001   0.000005  -0.000000  -0.000107   0.009988
    12  H   -0.055414  -0.017819  -0.002275  -0.000021   0.000003  -0.000003
    13  H    0.569026  -0.024372  -0.003056   0.000003   0.000000   0.000001
    14  H   -0.024372   0.503415   0.000045   0.000001  -0.000000   0.000000
    15  H   -0.003056   0.000045   0.488048  -0.002370  -0.000264   0.000031
    16  H    0.000003   0.000001  -0.002370   0.502685  -0.003755  -0.000222
    17  H    0.000000  -0.000000  -0.000264  -0.003755   0.510456  -0.004094
    18  H    0.000001   0.000000   0.000031  -0.000222  -0.004094   0.481315
    19  H    0.000001  -0.000001  -0.000001   0.000000  -0.000002  -0.000059
              19
     1  C    0.000003
     2  O    0.000108
     3  C    0.000031
     4  C    0.000033
     5  C    0.000007
     6  C   -0.000062
     7  C   -0.002051
     8  C    0.027003
     9  C   -0.035602
    10  O    0.007922
    11  O    0.290196
    12  H   -0.000001
    13  H    0.000001
    14  H   -0.000001
    15  H   -0.000001
    16  H    0.000000
    17  H   -0.000002
    18  H   -0.000059
    19  H    0.373004
 Mulliken charges:
               1
     1  C   -0.305323
     2  O   -0.257168
     3  C    0.233155
     4  C   -0.231039
     5  C   -0.137357
     6  C   -0.164397
     7  C   -0.146538
     8  C    0.026265
     9  C    0.293685
    10  O   -0.323499
    11  O   -0.417167
    12  H    0.154759
    13  H    0.145482
    14  H    0.161535
    15  H    0.163741
    16  H    0.150646
    17  H    0.145257
    18  H    0.168492
    19  H    0.339470
 Sum of Mulliken charges =  -0.00000
 Mulliken charges with hydrogens summed into heavy atoms:
               1
     1  C    0.156453
     2  O   -0.257168
     3  C    0.233155
     4  C   -0.067298
     5  C    0.013289
     6  C   -0.019140
     7  C    0.021954
     8  C    0.026265
     9  C    0.293685
    10  O   -0.323499
    11  O   -0.077697
 Electronic spatial extent (au):  <R**2>=           1720.7790
 Charge=             -0.0000 electrons
 Dipole moment (field-independent basis, Debye):
    X=             -2.2849    Y=              1.1333    Z=             -0.3825  Tot=              2.5790
 Quadrupole moment (field-independent basis, Debye-Ang):
   XX=            -52.2380   YY=            -59.8816   ZZ=            -67.2003
   XY=              5.2025   XZ=             -1.2853   YZ=              2.2950
 Traceless Quadrupole moment (field-independent basis, Debye-Ang):
   XX=              7.5353   YY=             -0.1083   ZZ=             -7.4270
   XY=              5.2025   XZ=             -1.2853   YZ=              2.2950
 Octapole moment (field-independent basis, Debye-Ang**2):
  XXX=             29.7749  YYY=             -5.5617  ZZZ=             -1.1460  XYY=            -18.4029
  XXY=             -6.4806  XXZ=             -6.3279  XZZ=              6.5624  YZZ=             -9.3095
  YYZ=             -0.2755  XYZ=              5.6661
 Hexadecapole moment (field-independent basis, Debye-Ang**3):
 XXXX=           -923.4631 YYYY=           -906.2546 ZZZZ=            -95.6107 XXXY=            -10.3443
 XXXZ=            -18.3542 YYYX=             37.5329 YYYZ=              6.2590 ZZZX=             -1.4401
 ZZZY=             -2.1041 XXYY=           -343.7072 XXZZ=           -212.4928 YYZZ=           -197.4561
 XXYZ=             13.5553 YYXZ=             -4.9073 ZZXY=              7.1439
 N-N= 5.931277486310D+02 E-N=-2.437303980671D+03  KE= 5.326030299348D+02
   1 Symmetry operations used in ECPInt.
 ECPInt:  NShTT=   11781 NPrTT=   36312 LenC2=   11249 LenP2D=   26592.
 LDataN:  DoStor=T MaxTD1= 7 Len=  274
 Calling FoFJK, ICntrl=      2127 FMM=F ISym2X=0 I1Cent= 0 IOpClX= 0 NMat=1 NMatS=1 NMatT=0.
 ***** Axes restored to original set *****
 -------------------------------------------------------------------
 Center     Atomic                   Forces (Hartrees/Bohr)
 Number     Number              X              Y              Z
 -------------------------------------------------------------------
      1        6           0.002932718    0.002028403    0.001279463
      2        8          -0.008495422   -0.012183695   -0.002178570
      3        6          -0.002537820    0.009270968    0.001573989
      4        6          -0.003119735   -0.004282738    0.000695197
      5        6           0.007560005    0.005787080   -0.002011338
      6        6           0.001855640    0.000463277   -0.001308242
      7        6          -0.007022978    0.005626473    0.003740304
      8        6          -0.000710494   -0.006864334   -0.003058208
      9        6           0.006442453    0.020440624   -0.008334819
     10        8          -0.009817746   -0.022208650    0.011855397
     11        8           0.009495489    0.008167424   -0.004621798
     12        1           0.000381173   -0.002514706    0.003161297
     13        1          -0.001829083   -0.001857995   -0.002299271
     14        1           0.003488975   -0.006249901    0.000198146
     15        1           0.004656844    0.001140244   -0.001862998
     16        1           0.002974758    0.002786121   -0.000842532
     17        1           0.000825625    0.003948305   -0.000447319
     18        1          -0.001402521    0.005875948    0.001153504
     19        1          -0.005677881   -0.009372848    0.003307800
 -------------------------------------------------------------------
 Cartesian Forces:  Max     0.022208650 RMS     0.006436270

 GradGradGradGradGradGradGradGradGradGradGradGradGradGradGradGradGradGrad
 Berny optimization.
 FormGI is forming the generalized inverse of G from B-inverse, IUseBI=4.
 Internal  Forces:  Max     0.026554092 RMS     0.005354554
 Search for a local minimum.
 Step number   1 out of a maximum of   93
 All quantities printed in internal units (Hartrees-Bohrs-Radians)
 Mixed Optimization -- RFO/linear search
 Second derivative matrix not updated -- first step.
 ITU=  0
     Eigenvalues ---    0.00941   0.01357   0.01414   0.01687   0.02018
     Eigenvalues ---    0.02052   0.02088   0.02089   0.02089   0.02104
     Eigenvalues ---    0.02156   0.02166   0.02190   0.02361   0.09988
     Eigenvalues ---    0.10547   0.15999   0.16000   0.16000   0.16000
     Eigenvalues ---    0.16000   0.16000   0.16000   0.16000   0.22000
     Eigenvalues ---    0.22487   0.24473   0.24978   0.24992   0.25000
     Eigenvalues ---    0.25000   0.25000   0.33808   0.34221   0.34288
     Eigenvalues ---    0.34319   0.35084   0.35091   0.35145   0.35342
     Eigenvalues ---    0.41287   0.41770   0.42306   0.44821   0.45470
     Eigenvalues ---    0.46114   0.46749   0.51197   0.51358   0.55154
     Eigenvalues ---    0.97355
 RFO step:  Lambda=-6.26521450D-03 EMin= 9.41219012D-03
 Linear search not attempted -- first point.
 Iteration  1 RMS(Cart)=  0.06028798 RMS(Int)=  0.00139340
 Iteration  2 RMS(Cart)=  0.00212410 RMS(Int)=  0.00035332
 Iteration  3 RMS(Cart)=  0.00000343 RMS(Int)=  0.00035330
 Iteration  4 RMS(Cart)=  0.00000000 RMS(Int)=  0.00035330
 Variable       Old X    -DE/DX   Delta X   Delta X   Delta X     New X
                                 (Linear)    (Quad)   (Total)
    R1        2.68535  -0.00904   0.00000  -0.02106  -0.02106   2.66429
    R2        2.06959  -0.00201   0.00000  -0.00576  -0.00576   2.06383
    R3        2.06846  -0.00126   0.00000  -0.00361  -0.00361   2.06485
    R4        2.06795  -0.00473   0.00000  -0.01353  -0.01353   2.05442
    R5        2.58676  -0.02107   0.00000  -0.04066  -0.04066   2.54610
    R6        2.64874  -0.01005   0.00000  -0.02167  -0.02167   2.62707
    R7        2.65790  -0.00407   0.00000  -0.00905  -0.00905   2.64885
    R8        2.64263  -0.01068   0.00000  -0.02275  -0.02274   2.61989
    R9        2.05123  -0.00350   0.00000  -0.00974  -0.00974   2.04149
   R10        2.62878  -0.00472   0.00000  -0.00984  -0.00984   2.61894
   R11        2.05527  -0.00394   0.00000  -0.01103  -0.01103   2.04424
   R12        2.63374  -0.00839   0.00000  -0.01790  -0.01790   2.61584
   R13        2.05440  -0.00402   0.00000  -0.01125  -0.01125   2.04315
   R14        2.65733  -0.01416   0.00000  -0.03153  -0.03154   2.62579
   R15        2.05539  -0.00491   0.00000  -0.01376  -0.01376   2.04163
   R16        2.80955  -0.00135   0.00000  -0.00392  -0.00392   2.80563
   R17        2.29717  -0.02655   0.00000  -0.02710  -0.02710   2.27007
   R18        2.54996   0.00332   0.00000   0.00595   0.00595   2.55590
   R19        1.85219  -0.01032   0.00000  -0.01985  -0.01985   1.83233
    A1        1.94459  -0.00113   0.00000  -0.00852  -0.00857   1.93602
    A2        1.93542   0.00190   0.00000   0.01049   0.01052   1.94594
    A3        1.88126  -0.00690   0.00000  -0.03893  -0.03895   1.84231
    A4        1.94098  -0.00221   0.00000  -0.01778  -0.01779   1.92320
    A5        1.87962   0.00458   0.00000   0.02924   0.02913   1.90875
    A6        1.87884   0.00386   0.00000   0.02666   0.02673   1.90557
    A7        2.05657  -0.00428   0.00000  -0.01670  -0.01670   2.03987
    A8        2.15848  -0.00376   0.00000  -0.01482  -0.01481   2.14367
    A9        2.04948   0.00050   0.00000   0.00179   0.00180   2.05128
   A10        2.07456   0.00326   0.00000   0.01303   0.01300   2.08756
   A11        2.10741  -0.00324   0.00000  -0.01338  -0.01341   2.09400
   A12        2.12341  -0.00222   0.00000  -0.01635  -0.01636   2.10705
   A13        2.05228   0.00546   0.00000   0.02985   0.02984   2.08212
   A14        2.09869   0.00194   0.00000   0.00920   0.00918   2.10787
   A15        2.09175  -0.00235   0.00000  -0.01289  -0.01289   2.07886
   A16        2.09273   0.00041   0.00000   0.00369   0.00370   2.09643
   A17        2.08914  -0.00166   0.00000  -0.00750  -0.00753   2.08161
   A18        2.09815   0.00130   0.00000   0.00657   0.00658   2.10473
   A19        2.09589   0.00036   0.00000   0.00093   0.00095   2.09684
   A20        2.10235   0.00194   0.00000   0.00783   0.00778   2.11013
   A21        2.07901   0.00278   0.00000   0.01865   0.01866   2.09767
   A22        2.10180  -0.00473   0.00000  -0.02653  -0.02652   2.07528
   A23        2.09421  -0.00225   0.00000  -0.00918  -0.00922   2.08499
   A24        2.11005   0.00221   0.00000   0.00888   0.00889   2.11894
   A25        2.07863   0.00004   0.00000   0.00037   0.00038   2.07902
   A26        2.23806  -0.00664   0.00000  -0.02592  -0.02739   2.21067
   A27        1.94582   0.00178   0.00000   0.00692   0.00539   1.95120
   A28        2.09931   0.00485   0.00000   0.01892   0.01731   2.11662
   A29        1.79767   0.00876   0.00000   0.05271   0.05271   1.85038
    D1       -0.94878   0.00105   0.00000   0.01223   0.01232  -0.93647
    D2        1.22328  -0.00124   0.00000  -0.00938  -0.00931   1.21397
    D3       -3.00742   0.00036   0.00000   0.00544   0.00529  -3.00213
    D4       -0.24347   0.00172   0.00000   0.06167   0.06166  -0.18182
    D5        2.93796   0.00164   0.00000   0.06139   0.06141   2.99936
    D6       -3.10753  -0.00005   0.00000  -0.00032  -0.00025  -3.10778
    D7        0.02010   0.00025   0.00000   0.00954   0.00945   0.02955
    D8       -0.00632  -0.00002   0.00000  -0.00029  -0.00025  -0.00657
    D9        3.12131   0.00028   0.00000   0.00957   0.00945   3.13076
   D10        3.10817  -0.00041   0.00000  -0.01402  -0.01402   3.09415
   D11       -0.05990  -0.00034   0.00000  -0.01111  -0.01111  -0.07100
   D12        0.00444  -0.00034   0.00000  -0.01365  -0.01361  -0.00918
   D13        3.11955  -0.00026   0.00000  -0.01073  -0.01070   3.10885
   D14        0.00474   0.00015   0.00000   0.00607   0.00605   0.01079
   D15        3.14031   0.00014   0.00000   0.00535   0.00533  -3.13754
   D16       -3.12344  -0.00008   0.00000  -0.00306  -0.00316  -3.12661
   D17        0.01213  -0.00009   0.00000  -0.00378  -0.00388   0.00825
   D18       -0.00118   0.00008   0.00000   0.00221   0.00214   0.00095
   D19        3.14000  -0.00002   0.00000  -0.00118  -0.00122   3.13878
   D20       -3.13675   0.00009   0.00000   0.00299   0.00292  -3.13383
   D21        0.00444  -0.00001   0.00000  -0.00040  -0.00044   0.00400
   D22       -0.00066  -0.00045   0.00000  -0.01632  -0.01639  -0.01705
   D23       -3.13509  -0.00022   0.00000  -0.00818  -0.00811   3.13998
   D24        3.14133  -0.00035   0.00000  -0.01294  -0.01305   3.12829
   D25        0.00690  -0.00013   0.00000  -0.00480  -0.00477   0.00213
   D26       -0.00100   0.00059   0.00000   0.02217   0.02215   0.02115
   D27       -3.11659   0.00048   0.00000   0.01918   0.01917  -3.09742
   D28        3.13334   0.00039   0.00000   0.01412   0.01416  -3.13568
   D29        0.01775   0.00029   0.00000   0.01112   0.01118   0.02893
   D30       -0.49506  -0.00041   0.00000  -0.01227  -0.01175  -0.50680
   D31        2.64743   0.00165   0.00000   0.09162   0.09108   2.73851
   D32        2.62029  -0.00037   0.00000  -0.00953  -0.00899   2.61130
   D33       -0.52041   0.00169   0.00000   0.09436   0.09384  -0.42657
   D34       -3.11574  -0.00226   0.00000  -0.09142  -0.09241   3.07504
   D35        0.02666  -0.00038   0.00000   0.00311   0.00410   0.03077
         Item               Value     Threshold  Converged?
 Maximum Force            0.026554     0.000450     NO 
 RMS     Force            0.005355     0.000300     NO 
 Maximum Displacement     0.200263     0.001800     NO 
 RMS     Displacement     0.059918     0.001200     NO 
 Predicted change in Energy=-3.299089D-03
 GradGradGradGradGradGradGradGradGradGradGradGradGradGradGradGradGradGrad

                          Input orientation:                          
 ---------------------------------------------------------------------
 Center     Atomic      Atomic             Coordinates (Angstroms)
 Number     Number       Type             X           Y           Z
 ---------------------------------------------------------------------
      1          6           0       -1.136235    2.588158    0.209434
      2          8           0       -0.007774    1.753103    0.078955
      3          6           0       -0.229225    0.424119    0.087774
      4          6           0       -1.457250   -0.132965    0.425747
      5          6           0       -1.608581   -1.510772    0.454203
      6          6           0       -0.543245   -2.347308    0.161045
      7          6           0        0.683407   -1.793119   -0.161944
      8          6           0        0.852081   -0.414903   -0.214906
      9          6           0        2.169413    0.136680   -0.620673
     10          8           0        2.367156    1.174584   -1.192252
     11          8           0        3.174016   -0.737834   -0.385469
     12          1           0       -1.892727    2.341320   -0.538592
     13          1           0       -1.564539    2.528523    1.212895
     14          1           0       -0.773308    3.598060    0.035413
     15          1           0       -2.299922    0.496598    0.671970
     16          1           0       -2.571356   -1.929175    0.715386
     17          1           0       -0.663845   -3.421444    0.186639
     18          1           0        1.524335   -2.431352   -0.391583
     19          1           0        3.977699   -0.322175   -0.734041
 ---------------------------------------------------------------------
                    Distance matrix (angstroms):
                    1          2          3          4          5
     1  C    0.000000
     2  O    1.409881   0.000000
     3  C    2.349581   1.347337   0.000000
     4  C    2.748518   2.403850   1.390185   0.000000
     5  C    4.133310   3.654624   2.404308   1.386385   0.000000
     6  C    4.971197   4.136042   2.790123   2.410143   1.385884
     7  C    4.758635   3.620974   2.410685   2.771986   2.390098
     8  C    3.626546   2.350735   1.401712   2.413075   2.775517
     9  C    4.198348   2.800436   2.517535   3.784228   4.259424
    10  O    4.029475   2.755167   2.990462   4.353583   5.072321
    11  O    5.476715   4.067463   3.627140   4.740524   4.916881
    12  H    1.092132   2.068915   2.614428   2.691036   3.988106
    13  H    1.092673   2.076201   2.734497   2.777522   4.110165
    14  H    1.087153   1.997950   3.220663   3.813225   5.193576
    15  H    2.437771   2.680375   2.152748   1.080311   2.134223
    16  H    4.766745   4.531685   3.378975   2.133424   1.081764
    17  H    6.028183   5.217084   3.871308   3.391277   2.148205
    18  H    5.712734   4.480896   3.385036   3.852331   3.373127
    19  H    5.959237   4.566371   4.350925   5.560538   5.833628
                    6          7          8          9         10
     6  C    0.000000
     7  C    1.384241   0.000000
     8  C    2.412978   1.389509   0.000000
     9  C    3.760292   2.478461   1.484673   0.000000
    10  O    4.765036   3.564240   2.403566   1.201270   0.000000
    11  O    4.087434   2.714171   2.350481   1.352526   2.226941
    12  H    4.928876   4.885889   3.903269   4.622570   4.464880
    13  H    5.091479   5.061624   4.067238   4.798466   4.803760
    14  H    5.951144   5.588003   4.336868   4.590338   4.152459
    15  H    3.381532   3.852073   3.398897   4.666413   5.071154
    16  H    2.143680   3.373678   3.857251   5.341133   6.136881
    17  H    1.081188   2.141972   3.390952   4.619454   5.675543
    18  H    2.141809   1.080386   2.132887   2.657705   3.788692
    19  H    5.034013   3.652853   3.169794   1.869038   2.245905
                   11         12         13         14         15
    11  O    0.000000
    12  H    5.930980   0.000000
    13  H    5.973087   1.791775   0.000000
    14  H    5.878647   1.778195   1.776631   0.000000
    15  H    5.710166   2.243716   2.227579   3.514942   0.000000
    16  H    5.969965   4.502235   4.596985   5.851980   2.441299
    17  H    4.717865   5.936797   6.104635   7.021987   4.273564
    18  H    2.364210   5.871654   6.059360   6.466475   4.932441
    19  H    0.969630   6.449365   6.529429   6.207445   6.485043
                   16         17         18         19
    16  H    0.000000
    17  H    2.478919   0.000000
    18  H    4.272264   2.470375   0.000000
    19  H    6.897349   5.656594   3.253445   0.000000
 Stoichiometry    C8H8O3
 Framework group  C1[X(C8H8O3)]
 Deg. of freedom    51
 Full point group                 C1      NOp   1
 Largest Abelian subgroup         C1      NOp   1
 Largest concise Abelian subgroup C1      NOp   1
                         Standard orientation:                         
 ---------------------------------------------------------------------
 Center     Atomic      Atomic             Coordinates (Angstroms)
 Number     Number       Type             X           Y           Z
 ---------------------------------------------------------------------
      1          6           0       -1.961109   -2.306861   -0.052165
      2          8           0       -0.717521   -1.652982   -0.169193
      3          6           0       -0.721697   -0.310768   -0.051891
      4          6           0       -1.891164    0.440725   -0.037097
      5          6           0       -1.825299    1.823051    0.045980
      6          6           0       -0.602318    2.472539    0.102178
      7          6           0        0.562648    1.725444    0.073413
      8          6           0        0.519276    0.338081    0.009575
      9          6           0        1.791571   -0.426590    0.037850
     10          8           0        1.955919   -1.529237    0.485295
     11          8           0        2.833908    0.316506   -0.398804
     12          1           0       -2.464151   -2.025187    0.875392
     13          1           0       -2.605669   -2.097650   -0.909315
     14          1           0       -1.730957   -3.369125   -0.029173
     15          1           0       -2.856944   -0.040039   -0.093713
     16          1           0       -2.744141    2.393785    0.060277
     17          1           0       -0.554309    3.550872    0.164317
     18          1           0        1.524094    2.216498    0.114911
     19          1           0        3.622186   -0.237166   -0.288136
 ---------------------------------------------------------------------
 Rotational constants (GHZ):           1.4289397           1.1474878           0.6508814
 Standard basis: def2TZVP (5D, 7F)
 There are   444 symmetry adapted cartesian basis functions of A   symmetry.
 There are   389 symmetry adapted basis functions of A   symmetry.
   389 basis functions,   625 primitive gaussians,   444 cartesian basis functions
    40 alpha electrons       40 beta electrons
       nuclear repulsion energy       597.4375920315 Hartrees.
 NAtoms=   19 NActive=   19 NUniq=   19 SFac= 1.00D+00 NAtFMM=   60 NAOKFM=F Big=F
 Integral buffers will be    131072 words long.
 Raffenetti 2 integral format.
 Two-electron integral symmetry is turned on.
 One-electron integrals computed using PRISM.
   1 Symmetry operations used in ECPInt.
 ECPInt:  NShTT=   11781 NPrTT=   36312 LenC2=   11264 LenP2D=   26678.
 LDataN:  DoStor=T MaxTD1= 6 Len=  172
 NBasis=   389 RedAO= T EigKep=  7.64D-06  NBF=   389
 NBsUse=   389 1.00D-06 EigRej= -1.00D+00 NBFU=   389
 Initial guess from the checkpoint file:  "/tmp/Gau-3516744.chk"
 B after Tr=    -0.000000   -0.000000    0.000000
         Rot=    0.999685   -0.000630    0.000699    0.025097 Ang=  -2.88 deg.
 ExpMin= 9.52D-02 ExpMax= 2.70D+04 ExpMxC= 9.22D+02 IAcc=3 IRadAn=         5 AccDes= 0.00D+00
 Harris functional with IExCor= 1009 and IRadAn=       5 diagonalized for initial guess.
 HarFok:  IExCor= 1009 AccDes= 0.00D+00 IRadAn=         5 IDoV= 1 UseB2=F ITyADJ=14
 ICtDFT=  3500011 ScaDFX=  1.000000  1.000000  1.000000  1.000000
 FoFCou: FMM=F IPFlag=           0 FMFlag=      100000 FMFlg1=           0
         NFxFlg=           0 DoJE=T BraDBF=F KetDBF=T FulRan=T
         wScrn=  0.000000 ICntrl=       500 IOpCl=  0 I1Cent=   200000004 NGrid=           0
         NMat0=    1 NMatS0=      1 NMatT0=    0 NMatD0=    1 NMtDS0=    0 NMtDT0=    0
 Petite list used in FoFCou.
 Requested convergence on RMS density matrix=1.00D-08 within 128 cycles.
 Requested convergence on MAX density matrix=1.00D-06.
 Requested convergence on             energy=1.00D-06.
 No special actions if energy rises.
 Integral accuracy reduced to 1.0D-05 until final iterations.
 Initial convergence to 1.0D-05 achieved.  Increase integral accuracy.
 SCF Done:  E(RM062X) =  -535.337647060     A.U. after   14 cycles
            NFock= 14  Conv=0.23D-08     -V/T= 2.0045
   1 Symmetry operations used in ECPInt.
 ECPInt:  NShTT=   11781 NPrTT=   36312 LenC2=   11264 LenP2D=   26678.
 LDataN:  DoStor=T MaxTD1= 7 Len=  274
 Calling FoFJK, ICntrl=      2127 FMM=F ISym2X=0 I1Cent= 0 IOpClX= 0 NMat=1 NMatS=1 NMatT=0.
 ***** Axes restored to original set *****
 -------------------------------------------------------------------
 Center     Atomic                   Forces (Hartrees/Bohr)
 Number     Number              X              Y              Z
 -------------------------------------------------------------------
      1        6           0.003125341    0.005319874   -0.000340426
      2        8          -0.002856938   -0.003404019   -0.001372606
      3        6           0.002407774    0.005199606    0.001052524
      4        6          -0.003431009   -0.002381664   -0.000016472
      5        6           0.001149632   -0.000790691   -0.000311613
      6        6          -0.001315232   -0.001564663    0.000222199
      7        6          -0.001502617   -0.000618867    0.000431763
      8        6           0.003057747   -0.001024833    0.003082349
      9        6           0.001023252    0.000573943   -0.012856314
     10        8          -0.001010817   -0.001452962    0.006349745
     11        8           0.002336552    0.002106727    0.002540038
     12        1          -0.000644233    0.000186952    0.000517138
     13        1          -0.000696828   -0.000582894   -0.000187064
     14        1          -0.000632528   -0.000005345    0.000303321
     15        1           0.000920579   -0.000602675   -0.000116534
     16        1          -0.000442714   -0.000256480    0.000118518
     17        1          -0.000176657    0.000085320   -0.000007708
     18        1           0.000538297    0.000379343    0.000191527
     19        1          -0.001849601   -0.001166670    0.000399615
 -------------------------------------------------------------------
 Cartesian Forces:  Max     0.012856314 RMS     0.002567294

 GradGradGradGradGradGradGradGradGradGradGradGradGradGradGradGradGradGrad
 Berny optimization.
 Using GEDIIS/GDIIS optimizer.
 FormGI is forming the generalized inverse of G from B-inverse, IUseBI=4.
 Internal  Forces:  Max     0.011077366 RMS     0.001830574
 Search for a local minimum.
 Step number   2 out of a maximum of   93
 All quantities printed in internal units (Hartrees-Bohrs-Radians)
 Mixed Optimization -- RFO/linear search
 Update second derivatives using D2CorX and points    1    2
 DE= -2.70D-03 DEPred=-3.30D-03 R= 8.17D-01
 TightC=F SS=  1.41D+00  RLast= 2.32D-01 DXNew= 5.0454D-01 6.9670D-01
 Trust test= 8.17D-01 RLast= 2.32D-01 DXMaxT set to 5.05D-01
 ITU=  1  0
 Use linear search instead of GDIIS.
     Eigenvalues ---    0.00927   0.01413   0.01668   0.01689   0.02022
     Eigenvalues ---    0.02050   0.02088   0.02090   0.02091   0.02149
     Eigenvalues ---    0.02158   0.02172   0.02191   0.02381   0.09923
     Eigenvalues ---    0.10718   0.14977   0.15999   0.16000   0.16000
     Eigenvalues ---    0.16000   0.16000   0.16000   0.16118   0.21666
     Eigenvalues ---    0.22528   0.23913   0.24602   0.24982   0.24994
     Eigenvalues ---    0.24998   0.27850   0.33807   0.34228   0.34288
     Eigenvalues ---    0.34322   0.35066   0.35122   0.35165   0.35318
     Eigenvalues ---    0.41238   0.41558   0.42722   0.45016   0.45574
     Eigenvalues ---    0.46722   0.48339   0.50270   0.52856   0.55122
     Eigenvalues ---    0.92960
 RFO step:  Lambda=-2.46381717D-03 EMin= 9.27389326D-03
 Quartic linear search produced a step of -0.13015.
 Iteration  1 RMS(Cart)=  0.04272862 RMS(Int)=  0.00260347
 Iteration  2 RMS(Cart)=  0.00301142 RMS(Int)=  0.00154886
 Iteration  3 RMS(Cart)=  0.00000648 RMS(Int)=  0.00154885
 Iteration  4 RMS(Cart)=  0.00000002 RMS(Int)=  0.00154885
 Variable       Old X    -DE/DX   Delta X   Delta X   Delta X     New X
                                 (Linear)    (Quad)   (Total)
    R1        2.66429   0.00202   0.00274  -0.00740  -0.00466   2.65963
    R2        2.06383   0.00005   0.00075  -0.00303  -0.00228   2.06155
    R3        2.06485   0.00013   0.00047  -0.00164  -0.00117   2.06368
    R4        2.05442  -0.00027   0.00176  -0.00810  -0.00634   2.04808
    R5        2.54610   0.00121   0.00529  -0.02026  -0.01497   2.53113
    R6        2.62707   0.00405   0.00282  -0.00392  -0.00111   2.62596
    R7        2.64885   0.00291   0.00118   0.00097   0.00215   2.65100
    R8        2.61989   0.00134   0.00296  -0.00999  -0.00703   2.61286
    R9        2.04149  -0.00110   0.00127  -0.00804  -0.00677   2.03472
   R10        2.61894  -0.00053   0.00128  -0.00663  -0.00535   2.61360
   R11        2.04424   0.00052   0.00144  -0.00477  -0.00333   2.04091
   R12        2.61584   0.00104   0.00233  -0.00810  -0.00577   2.61007
   R13        2.04315  -0.00006   0.00146  -0.00634  -0.00487   2.03828
   R14        2.62579   0.00164   0.00411  -0.01408  -0.00997   2.61582
   R15        2.04163   0.00016   0.00179  -0.00717  -0.00538   2.03626
   R16        2.80563   0.00145   0.00051   0.00155   0.00206   2.80769
   R17        2.27007  -0.00444   0.00353  -0.01884  -0.01531   2.25476
   R18        2.55590   0.00026  -0.00077   0.00368   0.00290   2.55881
   R19        1.83233  -0.00217   0.00258  -0.01458  -0.01199   1.82034
    A1        1.93602   0.00071   0.00112  -0.00141  -0.00029   1.93573
    A2        1.94594  -0.00033  -0.00137   0.00326   0.00188   1.94782
    A3        1.84231   0.00114   0.00507  -0.01410  -0.00903   1.83328
    A4        1.92320  -0.00113   0.00231  -0.01793  -0.01563   1.90757
    A5        1.90875  -0.00025  -0.00379   0.01617   0.01240   1.92115
    A6        1.90557  -0.00007  -0.00348   0.01524   0.01176   1.91733
    A7        2.03987   0.01108   0.00217   0.02913   0.03131   2.07117
    A8        2.14367   0.00440   0.00193   0.00679   0.00872   2.15239
    A9        2.05128  -0.00218  -0.00023  -0.00688  -0.00712   2.04416
   A10        2.08756  -0.00221  -0.00169   0.00029  -0.00141   2.08615
   A11        2.09400   0.00075   0.00175  -0.00419  -0.00245   2.09155
   A12        2.10705  -0.00042   0.00213  -0.01083  -0.00870   2.09836
   A13        2.08212  -0.00033  -0.00388   0.01503   0.01115   2.09327
   A14        2.10787   0.00078  -0.00120   0.00732   0.00612   2.11399
   A15        2.07886  -0.00032   0.00168  -0.00787  -0.00619   2.07267
   A16        2.09643  -0.00045  -0.00048   0.00055   0.00007   2.09650
   A17        2.08161  -0.00062   0.00098  -0.00771  -0.00673   2.07489
   A18        2.10473   0.00013  -0.00086   0.00445   0.00359   2.10832
   A19        2.09684   0.00049  -0.00012   0.00326   0.00313   2.09997
   A20        2.11013   0.00115  -0.00101   0.00825   0.00724   2.11737
   A21        2.09767   0.00002  -0.00243   0.01146   0.00904   2.10671
   A22        2.07528  -0.00117   0.00345  -0.01977  -0.01632   2.05896
   A23        2.08499   0.00015   0.00120  -0.00419  -0.00301   2.08197
   A24        2.11894  -0.00194  -0.00116  -0.00212  -0.00330   2.11564
   A25        2.07902   0.00178  -0.00005   0.00609   0.00602   2.08504
   A26        2.21067  -0.00088   0.00356  -0.01136  -0.01565   2.19502
   A27        1.95120   0.00038  -0.00070   0.01135   0.00266   1.95386
   A28        2.11662   0.00098  -0.00225   0.02029   0.00989   2.12651
   A29        1.85038   0.00009  -0.00686   0.02945   0.02259   1.87297
    D1       -0.93647   0.00024  -0.00160  -0.00850  -0.01013  -0.94660
    D2        1.21397  -0.00093   0.00121  -0.03033  -0.02912   1.18485
    D3       -3.00213  -0.00050  -0.00069  -0.01879  -0.01946  -3.02159
    D4       -0.18182   0.00070  -0.00802   0.06120   0.05318  -0.12864
    D5        2.99936   0.00061  -0.00799   0.05533   0.04734   3.04671
    D6       -3.10778   0.00001   0.00003  -0.00281  -0.00277  -3.11056
    D7        0.02955  -0.00010  -0.00123  -0.00046  -0.00169   0.02786
    D8       -0.00657   0.00010   0.00003   0.00302   0.00307  -0.00349
    D9        3.13076   0.00000  -0.00123   0.00538   0.00416   3.13493
   D10        3.09415   0.00010   0.00182  -0.00607  -0.00426   3.08989
   D11       -0.07100  -0.00017   0.00145  -0.01738  -0.01591  -0.08692
   D12       -0.00918  -0.00014   0.00177  -0.01190  -0.01011  -0.01929
   D13        3.10885  -0.00042   0.00139  -0.02321  -0.02176   3.08709
   D14        0.01079  -0.00000  -0.00079   0.00281   0.00200   0.01279
   D15       -3.13754  -0.00004  -0.00069   0.00180   0.00109  -3.13646
   D16       -3.12661   0.00010   0.00041   0.00055   0.00097  -3.12564
   D17        0.00825   0.00006   0.00050  -0.00046   0.00005   0.00830
   D18        0.00095  -0.00004  -0.00028   0.00036   0.00007   0.00102
   D19        3.13878  -0.00001   0.00016  -0.00076  -0.00061   3.13818
   D20       -3.13383  -0.00000  -0.00038   0.00142   0.00103  -3.13281
   D21        0.00400   0.00002   0.00006   0.00029   0.00035   0.00435
   D22       -0.01705  -0.00003   0.00213  -0.00967  -0.00753  -0.02458
   D23        3.13998  -0.00001   0.00106  -0.00538  -0.00431   3.13568
   D24        3.12829  -0.00005   0.00170  -0.00855  -0.00686   3.12143
   D25        0.00213  -0.00003   0.00062  -0.00427  -0.00363  -0.00150
   D26        0.02115   0.00012  -0.00288   0.01542   0.01255   0.03370
   D27       -3.09742   0.00044  -0.00250   0.02658   0.02412  -3.07330
   D28       -3.13568   0.00012  -0.00184   0.01146   0.00963  -3.12606
   D29        0.02893   0.00043  -0.00146   0.02262   0.02119   0.05012
   D30       -0.50680   0.00317   0.00153   0.16525   0.16575  -0.34105
   D31        2.73851  -0.00222  -0.01185  -0.05976  -0.07056   2.66794
   D32        2.61130   0.00287   0.00117   0.15384   0.15396   2.76527
   D33       -0.42657  -0.00251  -0.01221  -0.07116  -0.08235  -0.50892
   D34        3.07504   0.00207   0.01203   0.06696   0.08017  -3.12798
   D35        0.03077  -0.00286  -0.00053  -0.14205  -0.14377  -0.11300
         Item               Value     Threshold  Converged?
 Maximum Force            0.011077     0.000450     NO 
 RMS     Force            0.001831     0.000300     NO 
 Maximum Displacement     0.126888     0.001800     NO 
 RMS     Displacement     0.042775     0.001200     NO 
 Predicted change in Energy=-1.437304D-03
 GradGradGradGradGradGradGradGradGradGradGradGradGradGradGradGradGradGrad

                          Input orientation:                          
 ---------------------------------------------------------------------
 Center     Atomic      Atomic             Coordinates (Angstroms)
 Number     Number       Type             X           Y           Z
 ---------------------------------------------------------------------
      1          6           0       -1.107454    2.600683    0.210571
      2          8           0       -0.019978    1.726178    0.027679
      3          6           0       -0.244526    0.406101    0.059531
      4          6           0       -1.467907   -0.151904    0.410179
      5          6           0       -1.609541   -1.526578    0.454657
      6          6           0       -0.546627   -2.364337    0.169670
      7          6           0        0.672302   -1.806171   -0.162509
      8          6           0        0.837555   -0.434153   -0.242231
      9          6           0        2.142045    0.120149   -0.687819
     10          8           0        2.318474    1.209544   -1.141400
     11          8           0        3.173844   -0.698065   -0.372545
     12          1           0       -1.908359    2.379150   -0.496246
     13          1           0       -1.499469    2.547365    1.228443
     14          1           0       -0.707567    3.590105    0.021484
     15          1           0       -2.304231    0.482462    0.649947
     16          1           0       -2.569398   -1.941524    0.724649
     17          1           0       -0.662153   -3.436021    0.209009
     18          1           0        1.521447   -2.431228   -0.384658
     19          1           0        3.981644   -0.271656   -0.678409
 ---------------------------------------------------------------------
                    Distance matrix (angstroms):
                    1          2          3          4          5
     1  C    0.000000
     2  O    1.407413   0.000000
     3  C    2.362974   1.339417   0.000000
     4  C    2.783254   2.402081   1.389599   0.000000
     5  C    4.164847   3.645469   2.398883   1.382667   0.000000
     6  C    4.996761   4.126721   2.789036   2.408622   1.383056
     7  C    4.767293   3.604568   2.404999   2.764971   2.380310
     8  C    3.632949   2.339924   1.402849   2.412563   2.768993
     9  C    4.185618   2.786684   2.517145   3.783037   4.253394
    10  O    3.937014   2.664961   2.942231   4.312496   5.046094
    11  O    5.436109   4.029595   3.618166   4.738861   4.924578
    12  H    1.090924   2.065636   2.640104   2.724305   4.030908
    13  H    1.092053   2.074867   2.743401   2.820745   4.148238
    14  H    1.083799   1.986716   3.217722   3.838207   5.213602
    15  H    2.472283   2.674295   2.144017   1.076729   2.134707
    16  H    4.799291   4.520768   3.370276   2.124832   1.080001
    17  H    6.053105   5.205148   3.867642   3.387497   2.145660
    18  H    5.708375   4.453093   3.371409   3.842307   3.365401
    19  H    5.910967   4.528010   4.343319   5.558504   5.841234
                    6          7          8          9         10
     6  C    0.000000
     7  C    1.381188   0.000000
     8  C    2.410649   1.384231   0.000000
     9  C    3.759908   2.479274   1.485764   0.000000
    10  O    4.764486   3.572484   2.388172   1.193165   0.000000
    11  O    4.112464   2.744035   2.354757   1.354061   2.227502
    12  H    4.979802   4.928296   3.939447   4.641719   4.432868
    13  H    5.114071   5.060100   4.063744   4.777453   4.688561
    14  H    5.958459   5.572942   4.318750   4.545767   4.021977
    15  H    3.379956   3.841572   3.392194   4.657280   5.010686
    16  H    2.139714   3.363628   3.848941   5.333222   6.107590
    17  H    1.078610   2.138973   3.385845   4.616727   5.682342
    18  H    2.142121   1.077540   2.115727   2.643213   3.803043
    19  H    5.060018   3.684105   3.178357   1.880884   2.274741
                   11         12         13         14         15
    11  O    0.000000
    12  H    5.942503   0.000000
    13  H    5.910654   1.780460   0.000000
    14  H    5.797328   1.782234   1.780777   0.000000
    15  H    5.696353   2.251199   2.290442   3.549894   0.000000
    16  H    5.977864   4.538257   4.642056   5.878756   2.439590
    17  H    4.748629   5.988875   6.127091   7.028775   4.271458
    18  H    2.394665   5.908956   6.042716   6.433499   4.918923
    19  H    0.963284   6.461585   6.451787   6.114879   6.468805
                   16         17         18         19
    16  H    0.000000
    17  H    2.477295   0.000000
    18  H    4.266777   2.475915   0.000000
    19  H    6.904577   5.689074   3.286733   0.000000
 Stoichiometry    C8H8O3
 Framework group  C1[X(C8H8O3)]
 Deg. of freedom    51
 Full point group                 C1      NOp   1
 Largest Abelian subgroup         C1      NOp   1
 Largest concise Abelian subgroup C1      NOp   1
                         Standard orientation:                         
 ---------------------------------------------------------------------
 Center     Atomic      Atomic             Coordinates (Angstroms)
 Number     Number       Type             X           Y           Z
 ---------------------------------------------------------------------
      1          6           0       -1.834554   -2.401425   -0.080687
      2          8           0       -0.639758   -1.659164   -0.128883
      3          6           0       -0.707760   -0.324981   -0.032096
      4          6           0       -1.904922    0.380557   -0.034599
      5          6           0       -1.889706    1.761527    0.032176
      6          6           0       -0.698114    2.461502    0.086832
      7          6           0        0.490257    1.757762    0.072587
      8          6           0        0.506653    0.374163    0.034111
      9          6           0        1.805398   -0.343650    0.108281
     10          8           0        1.956705   -1.478667    0.443672
     11          8           0        2.818994    0.389085   -0.410568
     12          1           0       -2.407949   -2.158519    0.815042
     13          1           0       -2.452825   -2.225858   -0.963578
     14          1           0       -1.520491   -3.438311   -0.051506
     15          1           0       -2.843334   -0.144339   -0.091279
     16          1           0       -2.830448    2.292002    0.033929
     17          1           0       -0.692304    3.538991    0.135658
     18          1           0        1.435637    2.273572    0.108523
     19          1           0        3.620679   -0.140315   -0.340197
 ---------------------------------------------------------------------
 Rotational constants (GHZ):           1.4215364           1.1643010           0.6537963
 Standard basis: def2TZVP (5D, 7F)
 There are   444 symmetry adapted cartesian basis functions of A   symmetry.
 There are   389 symmetry adapted basis functions of A   symmetry.
   389 basis functions,   625 primitive gaussians,   444 cartesian basis functions
    40 alpha electrons       40 beta electrons
       nuclear repulsion energy       598.8085456111 Hartrees.
 NAtoms=   19 NActive=   19 NUniq=   19 SFac= 1.00D+00 NAtFMM=   60 NAOKFM=F Big=F
 Integral buffers will be    131072 words long.
 Raffenetti 2 integral format.
 Two-electron integral symmetry is turned on.
 One-electron integrals computed using PRISM.
   1 Symmetry operations used in ECPInt.
 ECPInt:  NShTT=   11781 NPrTT=   36312 LenC2=   11271 LenP2D=   26688.
 LDataN:  DoStor=T MaxTD1= 6 Len=  172
 NBasis=   389 RedAO= T EigKep=  7.44D-06  NBF=   389
 NBsUse=   389 1.00D-06 EigRej= -1.00D+00 NBFU=   389
 Initial guess from the checkpoint file:  "/tmp/Gau-3516744.chk"
 B after Tr=     0.000000   -0.000000   -0.000000
         Rot=    0.999832    0.000192    0.001360   -0.018299 Ang=   2.10 deg.
 ExpMin= 9.52D-02 ExpMax= 2.70D+04 ExpMxC= 9.22D+02 IAcc=3 IRadAn=         5 AccDes= 0.00D+00
 Harris functional with IExCor= 1009 and IRadAn=       5 diagonalized for initial guess.
 HarFok:  IExCor= 1009 AccDes= 0.00D+00 IRadAn=         5 IDoV= 1 UseB2=F ITyADJ=14
 ICtDFT=  3500011 ScaDFX=  1.000000  1.000000  1.000000  1.000000
 FoFCou: FMM=F IPFlag=           0 FMFlag=      100000 FMFlg1=           0
         NFxFlg=           0 DoJE=T BraDBF=F KetDBF=T FulRan=T
         wScrn=  0.000000 ICntrl=       500 IOpCl=  0 I1Cent=   200000004 NGrid=           0
         NMat0=    1 NMatS0=      1 NMatT0=    0 NMatD0=    1 NMtDS0=    0 NMtDT0=    0
 Petite list used in FoFCou.
 Requested convergence on RMS density matrix=1.00D-08 within 128 cycles.
 Requested convergence on MAX density matrix=1.00D-06.
 Requested convergence on             energy=1.00D-06.
 No special actions if energy rises.
 Integral accuracy reduced to 1.0D-05 until final iterations.
 Initial convergence to 1.0D-05 achieved.  Increase integral accuracy.
 SCF Done:  E(RM062X) =  -535.336605511     A.U. after   14 cycles
            NFock= 14  Conv=0.26D-08     -V/T= 2.0042
   1 Symmetry operations used in ECPInt.
 ECPInt:  NShTT=   11781 NPrTT=   36312 LenC2=   11271 LenP2D=   26688.
 LDataN:  DoStor=T MaxTD1= 7 Len=  274
 Calling FoFJK, ICntrl=      2127 FMM=F ISym2X=0 I1Cent= 0 IOpClX= 0 NMat=1 NMatS=1 NMatT=0.
 ***** Axes restored to original set *****
 -------------------------------------------------------------------
 Center     Atomic                   Forces (Hartrees/Bohr)
 Number     Number              X              Y              Z
 -------------------------------------------------------------------
      1        6           0.000677187   -0.000256299    0.000172348
      2        8          -0.000545011    0.001654940   -0.000774538
      3        6           0.002653808    0.003112196   -0.000240102
      4        6           0.000184582    0.000767042   -0.000080038
      5        6          -0.002363530   -0.002343647    0.000474300
      6        6          -0.000927942   -0.001727458    0.001265528
      7        6           0.000987824   -0.002050784   -0.001241504
      8        6           0.001890242   -0.002768037   -0.005672936
      9        6           0.000843598    0.005410983    0.022891462
     10        8           0.003156345    0.003783432   -0.011735510
     11        8          -0.004295071   -0.007233797   -0.004281985
     12        1          -0.000926324    0.000895575   -0.001117440
     13        1          -0.000013489   -0.000110933    0.000978747
     14        1          -0.001297937    0.002324166    0.000160045
     15        1          -0.001774563    0.000678432    0.000752127
     16        1          -0.001639756   -0.001166044    0.000298409
     17        1          -0.000452313   -0.001587378    0.000326816
     18        1           0.001707734   -0.002315955   -0.000566624
     19        1           0.002134615    0.002933567   -0.001609106
 -------------------------------------------------------------------
 Cartesian Forces:  Max     0.022891462 RMS     0.004061161

 GradGradGradGradGradGradGradGradGradGradGradGradGradGradGradGradGradGrad
 Berny optimization.
 Using GEDIIS/GDIIS optimizer.
 FormGI is forming the generalized inverse of G from B-inverse, IUseBI=4.
 Internal  Forces:  Max     0.008381836 RMS     0.002671943
 Search for a local minimum.
 Step number   3 out of a maximum of   93
 All quantities printed in internal units (Hartrees-Bohrs-Radians)
 Mixed Optimization -- RFO/linear search
 Update second derivatives using D2CorX and points    1    3    2
 DE=  1.04D-03 DEPred=-1.44D-03 R=-7.25D-01
 Trust test=-7.25D-01 RLast= 3.21D-01 DXMaxT set to 2.52D-01
 ITU= -1  1  0
 Use linear search instead of GDIIS.
     Eigenvalues ---    0.00911   0.01392   0.01681   0.01995   0.02032
     Eigenvalues ---    0.02054   0.02089   0.02091   0.02094   0.02156
     Eigenvalues ---    0.02167   0.02190   0.02345   0.06223   0.09891
     Eigenvalues ---    0.10732   0.15327   0.15999   0.16000   0.16000
     Eigenvalues ---    0.16000   0.16000   0.16013   0.16184   0.21432
     Eigenvalues ---    0.22415   0.23864   0.24517   0.24988   0.24990
     Eigenvalues ---    0.25403   0.27084   0.33769   0.34231   0.34287
     Eigenvalues ---    0.34313   0.35089   0.35123   0.35204   0.35313
     Eigenvalues ---    0.41251   0.41399   0.42486   0.44954   0.45640
     Eigenvalues ---    0.46740   0.47268   0.50529   0.51628   0.55123
     Eigenvalues ---    0.94135
 RFO step:  Lambda=-6.81222059D-04 EMin= 9.11405982D-03
 Quartic linear search produced a step of -0.64135.
 Iteration  1 RMS(Cart)=  0.03583985 RMS(Int)=  0.00117753
 Iteration  2 RMS(Cart)=  0.00177161 RMS(Int)=  0.00020902
 Iteration  3 RMS(Cart)=  0.00000168 RMS(Int)=  0.00020901
[...]
 ,-0.14924126,0.00521855,-0.04478852,0.72721849,-0.00014097,-0.00038525
 ,-0.00178972,0.00467593,0.00725976,0.01096784,0.05186951,0.02272499,-0
 .08609721,-0.13729200,-0.00950370,0.16029196,-0.00173196,0.00259771,0.
 00051554,-0.00765426,-0.00212475,0.00368328,0.03245198,-0.03609416,-0.
 00654542,-0.12830027,-0.05792987,0.01948673,0.71030478,0.00312212,-0.0
 0240479,-0.00070424,0.00601345,0.00924342,-0.00124614,-0.09660847,-0.0
 1708469,0.02481948,0.01618645,-0.34843398,0.00590322,0.01513569,0.6940
 5183,0.00050367,-0.00058184,0.00046188,0.00347738,0.00046958,0.0061280
 2,-0.00434414,0.00975431,0.00201451,0.01671932,0.02494954,-0.06497472,
 -0.14220814,-0.02415369,0.17875413,0.00223157,-0.00136706,-0.00049279,
 0.00529271,0.00311837,-0.00135309,-0.08263839,0.00646219,0.01900235,0.
 04829427,0.07528370,-0.01294699,-0.25793002,0.06446878,0.04578268,0.64
 582183,-0.00188546,0.00135676,0.00045811,-0.00105713,-0.00802106,0.000
 44251,0.00997095,0.00535459,-0.00295008,0.01977306,-0.03972275,-0.0030
 7284,0.13946871,-0.21197015,-0.02916666,0.00355252,0.76541198,-0.00046
 253,0.00030230,0.00024828,-0.00149760,-0.00055607,-0.00060045,0.018698
 27,-0.00209175,-0.01041002,-0.01065106,-0.01691511,0.01212703,0.043160
 85,-0.01042101,-0.07409068,-0.12894497,-0.02486341,0.16144631,-0.00112
 765,0.00214254,0.00061586,-0.00930726,-0.00015351,0.00331499,0.0576680
 7,0.02165794,-0.01443924,-0.02831443,-0.03732211,0.00724626,-0.0590925
 8,0.04510162,0.01503785,-0.29717141,-0.11591428,0.06218296,0.71549721,
 -0.00158837,0.00002391,0.00045271,-0.00241433,0.00083822,0.00049421,0.
 07703518,-0.03707421,-0.01773709,-0.03267104,-0.05063197,0.01001673,-0
 .01358325,0.07309556,0.00109108,-0.04058041,-0.16868309,0.01361678,-0.
 03211695,0.69236836,0.00073545,-0.00052858,0.00117352,0.00376919,0.000
 38209,0.00374890,-0.01652276,-0.00414372,0.00777383,0.00713518,0.01110
 003,-0.00808521,0.01735513,-0.01408801,0.00411250,0.05877894,0.0327926
 8,-0.08098622,-0.13997524,-0.01358282,0.18257920,0.00236795,-0.0057035
 3,0.00009745,0.01345893,0.02023769,-0.00252610,-0.23874119,0.09398410,
 0.04031263,-0.04038291,-0.01116021,0.01286070,-0.01289511,0.01902198,0
 .00110297,0.01592910,-0.03026253,-0.00047075,-0.12417420,-0.04581092,0
 .01541224,0.61966190,-0.00376310,-0.00120750,0.00120447,0.03936630,-0.
 04638767,-0.00821226,0.03897187,-0.17076005,-0.00614655,0.03205003,0.0
 6243765,-0.00960022,0.02872309,-0.06168933,-0.00523477,-0.08429014,-0.
 01396630,0.02280749,0.01488057,-0.32739049,0.00664887,-0.02200311,0.70
 464871,0.00034343,0.00160087,0.00339906,-0.00349423,-0.00343996,0.0059
 9744,0.04204266,-0.01908430,-0.08265590,0.01154973,0.00003865,0.008069
 65,0.00045801,-0.00215141,-0.00558953,0.00219335,0.00818879,0.00871995
 ,0.01345539,0.02257286,-0.06728904,-0.11922242,-0.02452746,0.17385956,
 -0.00387176,0.00339344,0.00093938,-0.00066442,-0.01772948,-0.00052740,
 -0.02387065,0.01245262,0.00553492,-0.00396331,0.00079110,0.00289755,-0
 .00110468,0.00784953,-0.00022789,0.01240228,0.00211998,-0.00101498,-0.
 00325463,-0.02582244,0.00322771,-0.18490827,-0.02930188,0.02831979,0.6
 0648199,-0.00067914,-0.00102665,0.00040507,-0.00482493,-0.01363686,0.0
 0129251,0.01444364,0.03750419,-0.00581327,0.00415420,-0.00364050,-0.00
 031174,0.00091470,0.00028058,-0.00027887,0.00386068,-0.00778832,-0.000
 18819,-0.03389702,-0.01260771,0.01003547,-0.01476105,-0.10595423,0.003
 58447,0.10281366,0.94795179,0.00088454,-0.00052323,-0.00055864,0.00032
 339,0.00595719,-0.00371719,0.00578823,-0.00646187,0.00094918,0.0023225
 6,0.00048408,0.00566385,0.00010258,-0.00212871,-0.00096522,-0.00125065
 ,0.00017758,0.00876163,0.00174112,0.00677270,-0.00152608,0.02714550,0.
 00670297,-0.08913977,-0.10451041,-0.16536862,0.27251474,0.00055495,-0.
 00231728,0.00031803,-0.00978129,0.00664169,0.00346966,0.00263402,-0.00
 251558,-0.00083281,0.00084279,0.00024503,-0.00055959,0.00028894,-0.001
 85666,0.00008591,-0.00224335,-0.00217713,-0.00009574,-0.00635347,0.004
 17482,0.00210347,-0.00136124,-0.04207722,0.01250217,-0.15147565,-0.140
 34945,0.04367984,0.13757923,0.00093536,0.00022918,-0.00028369,0.006209
 80,0.01130657,-0.00175461,0.00115512,-0.01808395,0.00043305,0.00113428
 ,0.00253057,-0.00084286,0.00091753,-0.00346436,-0.00007657,-0.00505358
 ,0.00035711,0.00063638,-0.00118015,0.00573261,-0.00005598,-0.02891142,
 -0.02974139,0.01626156,-0.14431287,-0.68694081,0.15474816,0.13374559,0
 .82190690,-0.00007969,0.00065190,0.00009267,0.00321577,-0.00304446,0.0
 0098300,-0.00166299,0.00221979,-0.00103241,-0.00031517,-0.00020939,-0.
 00078408,-0.00011454,0.00064513,0.00026705,0.00041253,0.00073877,-0.00
 180856,0.00333610,-0.00143330,0.00182245,0.00861391,0.01881522,0.01634
 607,0.04619079,0.15355939,-0.12116277,-0.05097042,-0.18920741,0.082213
 38,0.00153843,-0.00149538,-0.00049391,-0.00074912,0.00357492,0.0003267
 1,-0.00161401,-0.01007000,0.00088106,-0.00167412,0.00107605,0.00043217
 ,-0.00063898,-0.00054951,0.00021673,-0.00163676,0.00066320,0.00047730,
 -0.00547480,0.00166529,0.00055339,-0.04655309,0.02554936,0.00734395,-0
 .20219664,0.07955804,0.01222646,0.02354061,0.04249642,-0.00785134,0.60
 039449,-0.00066286,0.00101533,0.00014290,0.00194333,0.00092486,-0.0007
 9341,-0.00265142,-0.00333798,0.00091641,-0.00070353,0.00094996,0.00011
 858,-0.00047284,0.00071509,0.00010162,0.00117217,0.00173506,-0.0004160
 7,-0.00241439,-0.00609731,0.00081922,-0.00035825,0.01178285,0.00037386
 ,0.05123519,-0.17495141,0.01111161,0.05186156,-0.09975143,0.01656892,0
 .06548403,0.41944926,-0.00029020,0.00008636,-0.00016696,-0.00021562,-0
 .00094080,0.00041148,0.00131459,0.00261707,0.00115381,0.00008578,-0.00
 051284,-0.00084943,0.00005551,0.00017745,-0.00005761,0.00012554,-0.000
 23474,-0.00076151,0.00157354,0.00021532,0.00044187,0.01209513,-0.00484
 701,0.01087831,0.01781562,0.00495510,-0.07044716,-0.00866198,0.0179578
 4,0.02839593,-0.13450571,-0.09421832,0.08474707,-0.18148968,-0.0348419
 5,-0.12284665,-0.03174562,0.01120683,-0.01296603,-0.00076755,-0.006823
 90,0.00007165,0.00061039,0.00078544,0.00020193,0.00028433,-0.00034106,
 -0.00006925,-0.00011330,0.00034852,-0.00005258,0.00013641,-0.00008805,
 0.00011555,-0.00055100,0.00079513,0.00047423,0.00082410,-0.00029313,-0
 .00026693,-0.00039876,0.00007412,0.00027924,-0.00036981,0.00024637,-0.
 00000754,0.20998363,-0.03973877,-0.06146384,-0.03548400,0.02478241,-0.
 00272334,0.01458293,0.00170324,0.00567368,0.00149325,-0.00111937,0.000
 64170,0.00035618,0.00026866,-0.00110694,-0.00060173,-0.00109396,0.0001
 0523,0.00022542,0.00061477,0.00098875,-0.00039181,0.00044003,-0.001371
 15,-0.00074938,-0.00007045,0.00021578,0.00010398,0.00011852,-0.0001437
 6,-0.00007335,0.00008056,-0.00008654,0.00003578,0.03132941,0.06266324,
 -0.12608308,-0.03165840,-0.16925934,0.00702505,0.00321366,0.01017385,-
 0.00012208,-0.00036896,0.00080151,-0.00121091,0.00021689,0.00011715,0.
 00049169,-0.00028576,-0.00018585,-0.00014468,-0.00001276,-0.00001489,0
 .00010851,0.00000509,-0.00009182,0.00002318,0.00011633,-0.00032389,-0.
 00000388,-0.00016308,0.00003802,0.00007808,0.00007884,-0.00003467,0.00
 003238,0.00004961,0.00000555,0.13653804,0.03440754,0.17377955,-0.07400
 082,-0.01195773,0.07130615,-0.01989373,0.00972738,0.02891026,-0.000336
 92,-0.00589902,0.00091012,0.00095102,0.00055767,-0.00066827,-0.0000066
 1,-0.00015511,-0.00003428,-0.00000458,0.00031581,0.00002427,-0.0000241
 1,-0.00009867,-0.00016318,-0.00064850,0.00060784,-0.00032226,0.0007482
 1,-0.00033303,0.00003211,-0.00057609,0.00009087,0.00004211,-0.00032801
 ,0.00024518,0.00003737,0.00950062,0.00260587,-0.02176675,0.08697397,-0
 .01416846,-0.05774883,0.03960299,0.01492786,-0.00413855,-0.02402410,0.
 00078672,0.00569569,-0.00241511,-0.00115999,0.00065082,0.00017376,0.00
 051717,-0.00106378,0.00047373,-0.00107544,0.00010716,0.00031073,0.0007
 1563,0.00101108,-0.00003053,0.00069356,-0.00134342,0.00056397,-0.00010
 816,0.00028502,-0.00016543,0.00024949,-0.00016539,-0.00001002,0.000044
 06,-0.00009407,-0.00000940,0.00057064,0.00112551,-0.00652736,0.0067296
 6,0.05893330,0.07459739,0.03406212,-0.28056295,0.00860546,-0.00799056,
 -0.00016340,0.00065878,0.00333283,0.00037642,0.00084632,-0.00062237,-0
 .00016793,-0.00061932,0.00046495,0.00005898,0.00019797,-0.00017298,-0.
 00013085,-0.00018829,-0.00001039,0.00005876,0.00014230,-0.00042513,-0.
 00018188,-0.00039556,0.00034617,-0.00000656,0.00019141,-0.00014074,0.0
 0004590,0.00016305,-0.00019058,0.00000020,0.00650414,0.00454880,-0.018
 46397,-0.08935207,-0.03395609,0.30047317,-0.08942790,-0.10954642,0.012
 55130,0.00487452,0.03890079,-0.00209729,-0.00407225,0.00209758,0.00108
 869,-0.00127135,-0.00018679,0.00044130,0.00052753,0.00008063,-0.000090
 21,0.00013115,-0.00007873,-0.00004508,-0.00045883,-0.00010988,0.000113
 21,0.00037575,0.00135082,-0.00006121,0.00031738,0.00045987,-0.00015653
 ,-0.00003518,-0.00041352,0.00000303,-0.00000767,-0.00014289,0.00003793
 ,-0.00656952,-0.02020458,0.00445420,-0.00254679,-0.00801171,-0.0005378
 1,0.09739314,-0.09529306,-0.28203944,0.03064031,0.00048001,-0.02884070
 ,0.00067190,0.00325551,0.00141389,-0.00083066,0.00021531,0.00010755,-0
 .00004247,-0.00011230,0.00013784,0.00003165,0.00010577,-0.00009225,-0.
 00002648,0.00026741,-0.00013009,-0.00005261,-0.00017266,-0.00084123,0.
 00005855,-0.00062973,-0.00051728,0.00022245,0.00027753,0.00040719,-0.0
 0012168,0.00019373,0.00007557,-0.00005100,-0.00269997,-0.00253755,0.00
 068160,-0.00210492,-0.00117423,0.00071855,0.09625450,0.31404599,0.0121
 8243,0.03426411,-0.05626640,-0.00109139,-0.00909274,0.00121340,0.00106
 201,-0.00055349,0.00019590,0.00043495,0.00005955,0.00038061,-0.0000766
 3,-0.00002111,0.00021583,-0.00005720,0.00001690,-0.00005741,0.00011227
 ,0.00003441,-0.00003322,-0.00002765,-0.00031173,0.00028114,-0.00005745
 ,-0.00012945,0.00006121,-0.00002856,0.00010910,-0.00010543,-0.00001700
 ,0.00005794,-0.00001489,-0.00806254,-0.02045960,0.00377930,0.01133533,
 0.02781653,-0.00159216,-0.01540402,-0.03189008,0.05232988,-0.00056207,
 0.00095098,-0.00000188,0.00115453,0.00049281,-0.00104048,-0.01618832,0
 .01905184,0.00439110,-0.24345081,0.13293270,0.04843759,0.00652603,-0.0
 0331304,-0.00102852,0.00216675,-0.00126629,0.00129537,-0.00025996,-0.0
 0142498,-0.00001955,-0.00334212,-0.00320697,0.00233025,0.00023755,0.00
 164519,-0.00015884,-0.00014171,-0.00045938,0.00008380,-0.00072667,-0.0
 0015351,0.00015672,0.00054728,0.00025402,0.00052697,0.00009082,-0.0006
 3682,-0.00072905,0.00072297,0.00001743,-0.00029329,0.25267128,-0.00235
 278,-0.00379477,0.00063587,0.00219857,-0.00100732,-0.00061586,-0.00923
 650,0.01286013,0.00203515,0.13457436,-0.15342223,-0.02976812,0.0262819
 2,-0.01379849,-0.00606920,-0.00173963,-0.00513047,0.00087304,-0.001117
 03,-0.00080130,0.00029071,-0.00241830,-0.00056294,0.00086629,-0.000458
 14,0.00069099,0.00008476,0.00007785,-0.00009842,-0.00001753,-0.0002992
 9,-0.00009046,0.00006695,-0.00035056,-0.00196826,0.00025856,-0.0004090
 5,-0.00205624,0.00006070,-0.00062336,0.00014361,0.00014129,-0.14502054
 ,0.16854775,0.00008252,-0.00012203,-0.00042190,-0.00111512,-0.00027105
 ,-0.00270119,0.00562516,-0.00502510,0.00260491,0.04823648,-0.02952334,
 -0.04397991,-0.00211733,0.00156001,0.00247373,0.00140689,0.00076444,0.
 00671624,-0.00014961,0.00027256,-0.00051771,0.00224552,0.00103586,0.00
 442113,-0.00005400,-0.00042744,0.00018721,0.00005372,0.00015987,-0.000
 03696,0.00017363,0.00004916,-0.00011076,0.00012653,0.00180240,-0.00035
 725,-0.00031953,-0.00160163,0.00018852,-0.00027377,-0.00002257,-0.0003
 8244,-0.05265474,0.03155373,0.03607943,-0.00018218,0.00012790,0.000044
 14,-0.00008646,-0.00037053,-0.00011706,0.00237756,0.00045996,0.0014106
 7,0.00097590,0.00083067,0.00075250,-0.28459318,-0.09742213,0.06466046,
 -0.01592610,-0.01239628,0.00561584,-0.00242837,0.00411814,0.00229379,0
 .00058396,0.00077999,-0.00043795,-0.00023133,0.00007701,-0.00025970,-0
 .00002569,-0.00006350,0.00009068,-0.00009575,-0.00012639,0.00006858,0.
 00003350,0.00002211,-0.00000660,0.00002717,-0.00000944,-0.00000089,-0.
 00000112,-0.00001196,0.00001118,0.00048130,-0.00028862,-0.00115424,0.2
 9923440,-0.00038375,0.00042969,0.00008543,-0.00156602,-0.00107882,0.00
 041475,0.00064537,-0.00525534,0.00028696,-0.02853575,-0.00770290,0.007
 59159,-0.09703726,-0.10246082,0.02649951,0.01716377,0.01226098,-0.0045
 6673,0.00379303,-0.00151568,-0.00060770,0.00051070,-0.00119005,-0.0000
 9765,0.00020965,-0.00014069,-0.00005185,-0.00004555,0.00010566,-0.0000
 0337,-0.00006662,0.00015652,0.00000017,0.00005750,-0.00001492,0.000026
 54,0.00003746,-0.00002192,-0.00004889,0.00006108,-0.00003604,-0.000013
 35,0.00023856,0.00109376,-0.00024097,0.10480041,0.10422204,0.00006571,
 -0.00005190,-0.00000786,-0.00006469,0.00015414,-0.00057056,0.00146161,
 0.00041683,0.00775075,0.00184203,0.00016266,0.00363198,0.06465201,0.02
 661447,-0.05734208,0.00448593,0.00279860,0.00344181,0.00225005,-0.0006
 5076,0.00682659,-0.00032077,-0.00028073,-0.00092366,-0.00028515,-0.000
 12303,-0.00105492,0.00007712,0.00012329,0.00016673,0.00002352,0.000032
 51,0.00016640,0.00000892,0.00006038,0.00001126,-0.00001925,-0.00006498
 ,0.00002620,0.00000847,0.00000501,0.00004063,-0.00118592,-0.00010730,-
 0.00388049,-0.07197208,-0.02903017,0.04569303,-0.00006757,0.00005403,-
 0.00004719,0.00029587,-0.00003650,-0.00025400,-0.00179148,0.00029669,0
 .00031191,-0.00312224,0.00269246,0.00242293,0.00693813,0.02579289,-0.0
 0229265,-0.06017491,-0.02800795,0.00753748,0.00140551,-0.02919117,0.00
 113849,-0.00405953,-0.00125055,0.00278317,0.00113154,-0.00119838,-0.00
 008747,-0.00075895,-0.00044706,0.00023309,-0.00024476,0.00020965,0.000
 04159,0.00002439,0.00000367,0.00005124,0.00000419,-0.00005155,-0.00004
 342,0.00005119,-0.00000397,-0.00002004,0.00020975,0.00119420,0.0000286
 0,0.00062344,-0.00069492,-0.00110980,0.05881197,0.00002391,-0.00004558
 ,-0.00001479,-0.00000371,0.00017583,-0.00003451,0.00024608,0.00043753,
 -0.00009790,0.00346948,0.00011216,-0.00059674,-0.00442120,-0.01367301,
 0.00167186,-0.02815374,-0.34382005,0.01866278,0.00098969,-0.00806276,0
 .00012624,-0.00215347,0.00140496,0.00073176,0.00084685,-0.00025843,-0.
 00016812,-0.00039812,-0.00025063,0.00013431,-0.00029647,0.00010219,0.0
 0004328,-0.00001361,0.00000787,-0.00004012,0.00000835,0.00000191,0.000
 04286,-0.00003083,-0.00000827,0.00000682,-0.00025843,-0.00069678,0.000
 10600,0.00016576,0.00069716,-0.00021209,0.03017393,0.36323648,-0.00005
 859,-0.00001141,-0.00024180,-0.00028456,-0.00005898,-0.00065226,0.0003
 1252,-0.00003686,-0.00055888,0.00235790,-0.00043418,0.00648537,-0.0011
 6054,-0.00581022,0.00212688,0.00753821,0.01865081,-0.03676791,0.000065
 12,0.00764379,0.00130887,0.00299955,0.00052087,0.00641596,-0.00018787,
 0.00027324,0.00080113,0.00009735,0.00012406,-0.00038869,0.00003994,-0.
 00007951,-0.00004347,-0.00000595,0.00011399,0.00001552,0.00001552,-0.0
 0009949,0.00003576,-0.00001811,-0.00000073,-0.00002556,0.00008319,-0.0
 0024611,0.00045896,-0.00113815,-0.00000459,-0.00361646,-0.00947978,-0.
 02023248,0.02844647,0.00000521,-0.00012034,-0.00004684,0.00033605,-0.0
 0032457,-0.00001218,0.00136186,-0.00153429,0.00138694,0.00002598,-0.00
 121474,-0.00014203,-0.00348790,-0.00272778,0.00274696,-0.01480764,0.01
 706785,0.00431048,-0.23812051,0.13791678,0.04402891,0.00605524,-0.0023
 4392,-0.00043257,0.00093218,-0.00032127,-0.00109084,0.00001002,0.00064
 519,-0.00004869,-0.00542932,-0.00340366,0.00123846,-0.00000902,0.00002
 441,0.00000623,0.00000511,0.00000148,0.00000119,0.00002110,-0.00002658
 ,-0.00001398,-0.00007431,0.00005726,-0.00016577,-0.00080186,0.00082531
 ,0.00009777,0.00070553,-0.00022657,-0.00117231,0.25321560,-0.00038708,
 -0.00014411,0.00008506,0.00172595,-0.00130232,-0.00038596,-0.00258743,
 -0.00405987,0.00111869,-0.00065267,-0.00062466,0.00012301,-0.00298320,
 -0.00019580,0.00106382,-0.01154932,0.01221694,0.00259341,0.13430287,-0
 .16028385,-0.02867677,0.02500439,-0.01400637,-0.00547261,0.00370928,-0
 .00194073,-0.00061111,-0.00058347,0.00110259,-0.00011801,-0.00184431,0
 .00058313,0.00020999,0.00005160,-0.00000312,0.00000890,0.00004568,-0.0
 0001070,-0.00003197,0.00012201,-0.00009935,-0.00003091,0.00007002,0.00
 004801,-0.00004241,-0.00066113,0.00042909,0.00014217,0.00048738,0.0006
 5474,-0.00031639,-0.14402377,0.16702004,-0.00001530,0.00002924,-0.0001
 5670,-0.00009566,0.00012964,0.00031282,0.00141958,0.00083212,0.0063029
 5,-0.00011785,0.00030090,-0.00069178,0.00281440,0.00093100,0.00653399,
 0.00540625,-0.00459653,0.00400316,0.04389163,-0.02956763,-0.05114842,-
 0.00107818,0.00126475,0.00413290,-0.00162965,-0.00013848,-0.00403696,0
 .00033698,0.00033363,0.00063421,0.00094535,0.00052677,0.00022693,-0.00
 002584,0.00003724,0.00001604,0.00002890,-0.00004501,0.00001138,-0.0000
 2057,0.00000878,-0.00003179,-0.00017277,-0.00004069,-0.00070781,0.0001
 5933,-0.00023952,-0.00032516,-0.00121633,-0.00012780,-0.00383063,-0.05
 060188,0.03025372,0.03898364,-0.00024988,0.00033078,0.00007461,0.00045
 333,-0.00042219,-0.00014793,-0.00105861,-0.00079017,0.00027385,-0.0002
 2057,0.00043397,0.00002476,0.00011384,0.00020062,-0.00003885,0.0003768
 2,-0.00023482,-0.00006754,0.00085503,0.00059024,-0.00007992,-0.0008156
 7,0.00516189,0.00017449,-0.04753388,-0.01126959,0.01353505,0.00770085,
 -0.00656279,-0.00145823,-0.35773403,-0.16130773,0.10903468,0.00006962,
 -0.00002054,0.00000240,0.00006506,-0.00001470,-0.00004160,-0.00002413,
 -0.00001204,0.00001159,-0.00006226,-0.00007036,0.00002506,0.00003479,-
 0.00001297,-0.00001550,0.00001793,0.00003211,-0.00000342,0.00005672,-0
 .00024680,-0.00002839,0.39795504,0.00002773,-0.00004872,0.00001109,-0.
 00019629,-0.00006745,0.00007488,0.00070794,0.00100706,-0.00009640,0.00
 019334,-0.00019491,-0.00014390,-0.00006632,-0.00017819,0.00005662,-0.0
 0028464,0.00028862,0.00001649,-0.00035064,-0.00078003,-0.00003680,0.00
 382298,-0.00386206,0.00068113,0.03301185,0.02247527,-0.01088655,-0.005
 07164,-0.00503823,0.00090509,-0.20576407,-0.15308061,0.07444880,-0.000
 01334,-0.00000236,-0.00000712,-0.00001425,0.00000663,0.00001273,0.0000
 2144,-0.00001521,-0.00000421,0.00008643,0.00004344,-0.00002750,-0.0000
 3198,0.00002228,0.00001090,-0.00002283,-0.00001532,0.00000419,-0.00027
 080,0.00061635,0.00010788,0.17421510,0.13882344,0.00003137,-0.00002912
 ,0.00000205,-0.00002879,-0.00013760,0.00005919,-0.00003711,0.00019255,
 0.00077741,-0.00005284,0.00010521,-0.00031544,0.00006618,-0.00010541,0
 .00005818,-0.00014027,0.00004081,0.00016407,-0.00017926,-0.00020625,-0
 .00016878,0.00059478,0.00046903,0.00358252,0.00396846,-0.00150925,0.00
 363832,-0.00184463,0.00139607,-0.00561382,0.11903233,0.06482877,-0.053
 97577,-0.00001692,-0.00000803,-0.00000605,0.00000347,0.00000742,-0.000
 00559,0.00000647,-0.00000051,0.00001141,-0.00001995,-0.00000222,-0.000
 03369,-0.00002050,-0.00000015,-0.00003418,0.00000218,-0.00000137,0.000
 03074,-0.00008983,0.00008736,-0.00022878,-0.12127512,-0.06512733,0.052
 05822\\0.00000499,-0.00000214,0.00000257,-0.00000378,-0.00000228,0.000
 00080,0.00000483,0.00000649,-0.00000325,-0.00000834,-0.00000254,0.0000
 0112,-0.00000325,0.00000723,0.00000241,0.00000454,-0.00000252,-0.00000
 070,-0.00001295,-0.00001410,0.00000650,0.00000902,0.00000871,-0.000002
 69,-0.00001381,0.00001325,-0.00000615,0.00001138,-0.00001718,0.0000022
 7,0.00001295,0.00000443,-0.00000215,-0.00000087,-0.00000260,0.00000010
 ,-0.00000051,0.00000486,0.00000154,0.00000466,-0.00000256,-0.00000072,
 0.00000027,0.00000519,-0.00000058,-0.00000349,0.00000054,0.00000129,-0
 .00000433,-0.00000020,-0.00000055,-0.00000360,-0.00000069,-0.00000015,
 0.00000232,-0.00000389,-0.00000167\\\@
 The archive entry for this job was punched.


 KNOWLEDGE IS CHIMERA - FOR BEYOND IT LIES OTHER KNOWLEDGE,
 AND THE INCOMPLETENESS OF WHAT IS KNOWN RENDERS THE KNOWING FALSE.
     -- THE THOMAS COVENANT CHRONICLES
 Job cpu time:       0 days  2 hours 15 minutes 45.1 seconds.
 Elapsed time:       0 days  0 hours 17 minutes  9.3 seconds.
 File lengths (MBytes):  RWF=    247 Int=      0 D2E=      0 Chk=     13 Scr=      1
 Normal termination of Gaussian 16 at Mon Jan 29 10:19:33 2024.
