Job Start Time: Mon Jan 29 09:34:00 MST 2024
SLURM Job ID: 229520
SLURM Job Name: Ac5_rdkit_conf_3
 Entering Gaussian System, Link 0=/opt/apps/Gaussian/G16C/g16/g16
 Initial command:
 /opt/apps/Gaussian/G16C/g16/l1.exe "/tmp/Gau-1609806.inp" -scrdir="/tmp/"
 Entering Link 1 = /opt/apps/Gaussian/G16C/g16/l1.exe PID=   1609808.
  
 Copyright (c) 1988-2019, Gaussian, Inc.  All Rights Reserved.
  
 This is part of the Gaussian(R) 16 program.  It is based on
 the Gaussian(R) 09 system (copyright 2009, Gaussian, Inc.),
 the Gaussian(R) 03 system (copyright 2003, Gaussian, Inc.),
 the Gaussian(R) 98 system (copyright 1998, Gaussian, Inc.),
 the Gaussian(R) 94 system (copyright 1995, Gaussian, Inc.),
 the Gaussian 92(TM) system (copyright 1992, Gaussian, Inc.),
 the Gaussian 90(TM) system (copyright 1990, Gaussian, Inc.),
 the Gaussian 88(TM) system (copyright 1988, Gaussian, Inc.),
 the Gaussian 86(TM) system (copyright 1986, Carnegie Mellon
 University), and the Gaussian 82(TM) system (copyright 1983,
 Carnegie Mellon University). Gaussian is a federally registered
 trademark of Gaussian, Inc.
  
 This software contains proprietary and confidential information,
 including trade secrets, belonging to Gaussian, Inc.
  
 This software is provided under written license and may be
 used, copied, transmitted, or stored only in accord with that
 written license.
  
 The following legend is applicable only to US Government
 contracts under FAR:
  
                    RESTRICTED RIGHTS LEGEND
  
 Use, reproduction and disclosure by the US Government is
 subject to restrictions as set forth in subparagraphs (a)
 and (c) of the Commercial Computer Software - Restricted
 Rights clause in FAR 52.227-19.
  
 Gaussian, Inc.
 340 Quinnipiac St., Bldg. 40, Wallingford CT 06492
  
  
 ---------------------------------------------------------------
 Warning -- This program may not be used in any manner that
 competes with the business of Gaussian, Inc. or will provide
 assistance to any competitor of Gaussian, Inc.  The licensee
 of this program is prohibited from giving any competitor of
 Gaussian, Inc. access to this program.  By using this program,
 the user acknowledges that Gaussian, Inc. is engaged in the
 business of creating and licensing software in the field of
 computational chemistry and represents and warrants to the
 licensee that it is not a competitor of Gaussian, Inc. and that
 it will not use this program in any manner prohibited above.
 ---------------------------------------------------------------
  

 Cite this work as:
 Gaussian 16, Revision C.01,
 M. J. Frisch, G. W. Trucks, H. B. Schlegel, G. E. Scuseria, 
 M. A. Robb, J. R. Cheeseman, G. Scalmani, V. Barone, 
 G. A. Petersson, H. Nakatsuji, X. Li, M. Caricato, A. V. Marenich, 
 J. Bloino, B. G. Janesko, R. Gomperts, B. Mennucci, H. P. Hratchian, 
 J. V. Ortiz, A. F. Izmaylov, J. L. Sonnenberg, D. Williams-Young, 
 F. Ding, F. Lipparini, F. Egidi, J. Goings, B. Peng, A. Petrone, 
 T. Henderson, D. Ranasinghe, V. G. Zakrzewski, J. Gao, N. Rega, 
 G. Zheng, W. Liang, M. Hada, M. Ehara, K. Toyota, R. Fukuda, 
 J. Hasegawa, M. Ishida, T. Nakajima, Y. Honda, O. Kitao, H. Nakai, 
 T. Vreven, K. Throssell, J. A. Montgomery, Jr., J. E. Peralta, 
 F. Ogliaro, M. J. Bearpark, J. J. Heyd, E. N. Brothers, K. N. Kudin, 
 V. N. Staroverov, T. A. Keith, R. Kobayashi, J. Normand, 
 K. Raghavachari, A. P. Rendell, J. C. Burant, S. S. Iyengar, 
 J. Tomasi, M. Cossi, J. M. Millam, M. Klene, C. Adamo, R. Cammi, 
 J. W. Ochterski, R. L. Martin, K. Morokuma, O. Farkas, 
 J. B. Foresman, and D. J. Fox, Gaussian, Inc., Wallingford CT, 2019.
 
 ******************************************
 Gaussian 16:  AS64L-G16RevC.01  3-Jul-2019
                29-Jan-2024 
 ******************************************
 %nprocshared=8
 Will use up to    8 processors via shared memory.
 %mem=16GB
 ---------------------------------
 # m062x/def2tzvp opt freq=noraman
 ---------------------------------
 1/18=20,19=15,26=3,38=1/1,3;
 2/9=110,12=2,17=6,18=5,40=1/2;
 3/5=44,7=101,11=2,25=1,30=1,71=1,74=-55/1,2,3;
 4//1;
 5/5=2,38=5/2;
 6/7=2,8=2,9=2,10=2,28=1/1;
 7//1,2,3,16;
 1/18=20,19=15,26=3/3(2);
 2/9=110/2;
 99//99;
 2/9=110/2;
 3/5=44,7=101,11=2,25=1,30=1,71=1,74=-55/1,2,3;
 4/5=5,16=3,69=1/1;
 5/5=2,38=5/2;
 7//1,2,3,16;
 1/18=20,19=15,26=3/3(-5);
 2/9=110/2;
 6/7=2,8=2,9=2,10=2,19=2,28=1/1;
 99/9=1/99;
 ----------------
 Ac5_rdkit_conf_3
 ----------------
 Symbolic Z-matrix:
 Charge =  0 Multiplicity = 1
 C                    -1.7959   -1.4315    0.0101 
 C                    -1.104    -0.0495   -0.0304 
 C                    -1.5738    0.6391   -1.3311 
 C                    -1.6008    0.6946    1.2195 
 O                    -1.6437    0.2507    2.358 
 O                    -1.9962    1.9655    0.9995 
 C                     0.4331   -0.1132   -0.0215 
 C                     1.1796    1.0817    0.0263 
 C                     2.5765    1.0671    0.0316 
 C                     3.2599   -0.143    -0.0116 
 C                     2.5458   -1.336    -0.0603 
 C                     1.1471   -1.3222   -0.0659 
 H                    -1.5018   -2.0089    0.8948 
 H                    -1.5598   -2.03     -0.8774 
 H                    -2.8869   -1.3233    0.0514 
 H                    -1.1819    1.6576   -1.432 
 H                    -1.2472    0.0782   -2.215 
 H                    -2.6673    0.7137   -1.3666 
 H                    -2.2492    2.2825    1.8923 
 H                     0.6768    2.047     0.0606 
 H                     3.1287    2.0024    0.0704 
 H                     4.3462   -0.1571   -0.0061 
 H                     3.0768   -2.2841   -0.0926 
 H                     0.638    -2.2814   -0.1039 
 

 GradGradGradGradGradGradGradGradGradGradGradGradGradGradGradGradGradGrad
 Berny optimization.
 Initialization pass.
                           ----------------------------
                           !    Initial Parameters    !
                           ! (Angstroms and Degrees)  !
 --------------------------                            --------------------------
 ! Name  Definition              Value          Derivative Info.                !
 --------------------------------------------------------------------------------
 ! R1    R(1,2)                  1.5461         estimate D2E/DX2                !
 ! R2    R(1,13)                 1.0966         estimate D2E/DX2                !
 ! R3    R(1,14)                 1.0962         estimate D2E/DX2                !
 ! R4    R(1,15)                 1.0971         estimate D2E/DX2                !
 ! R5    R(2,3)                  1.5449         estimate D2E/DX2                !
 ! R6    R(2,4)                  1.5371         estimate D2E/DX2                !
 ! R7    R(2,7)                  1.5384         estimate D2E/DX2                !
 ! R8    R(3,16)                 1.096          estimate D2E/DX2                !
 ! R9    R(3,17)                 1.0966         estimate D2E/DX2                !
 ! R10   R(3,18)                 1.0966         estimate D2E/DX2                !
 ! R11   R(4,5)                  1.2227         estimate D2E/DX2                !
 ! R12   R(4,6)                  1.349          estimate D2E/DX2                !
 ! R13   R(6,19)                 0.9806         estimate D2E/DX2                !
 ! R14   R(7,8)                  1.4097         estimate D2E/DX2                !
 ! R15   R(7,12)                 1.4048         estimate D2E/DX2                !
 ! R16   R(8,9)                  1.397          estimate D2E/DX2                !
 ! R17   R(8,20)                 1.0889         estimate D2E/DX2                !
 ! R18   R(9,10)                 1.3904         estimate D2E/DX2                !
 ! R19   R(9,21)                 1.0868         estimate D2E/DX2                !
 ! R20   R(10,11)                1.3912         estimate D2E/DX2                !
 ! R21   R(10,22)                1.0864         estimate D2E/DX2                !
 ! R22   R(11,12)                1.3988         estimate D2E/DX2                !
 ! R23   R(11,23)                1.0872         estimate D2E/DX2                !
 ! R24   R(12,24)                1.0866         estimate D2E/DX2                !
 ! A1    A(2,1,13)             111.8247         estimate D2E/DX2                !
 ! A2    A(2,1,14)             111.7436         estimate D2E/DX2                !
 ! A3    A(2,1,15)             110.9685         estimate D2E/DX2                !
 ! A4    A(13,1,14)            107.9346         estimate D2E/DX2                !
 ! A5    A(13,1,15)            106.753          estimate D2E/DX2                !
 ! A6    A(14,1,15)            107.3678         estimate D2E/DX2                !
 ! A7    A(1,2,3)              106.5225         estimate D2E/DX2                !
 ! A8    A(1,2,4)              105.4726         estimate D2E/DX2                !
 ! A9    A(1,2,7)              114.203          estimate D2E/DX2                !
 ! A10   A(3,2,4)              111.75           estimate D2E/DX2                !
 ! A11   A(3,2,7)              109.0964         estimate D2E/DX2                !
 ! A12   A(4,2,7)              109.7708         estimate D2E/DX2                !
 ! A13   A(2,3,16)             112.5195         estimate D2E/DX2                !
 ! A14   A(2,3,17)             111.1046         estimate D2E/DX2                !
 ! A15   A(2,3,18)             111.15           estimate D2E/DX2                !
 ! A16   A(16,3,17)            107.1354         estimate D2E/DX2                !
 ! A17   A(16,3,18)            106.8803         estimate D2E/DX2                !
 ! A18   A(17,3,18)            107.7992         estimate D2E/DX2                !
 ! A19   A(2,4,5)              126.3506         estimate D2E/DX2                !
 ! A20   A(2,4,6)              114.719          estimate D2E/DX2                !
 ! A21   A(5,4,6)              118.9189         estimate D2E/DX2                !
 ! A22   A(4,6,19)             103.3964         estimate D2E/DX2                !
 ! A23   A(2,7,8)              119.6152         estimate D2E/DX2                !
 ! A24   A(2,7,12)             122.9063         estimate D2E/DX2                !
 ! A25   A(8,7,12)             117.4778         estimate D2E/DX2                !
 ! A26   A(7,8,9)              121.3841         estimate D2E/DX2                !
 ! A27   A(7,8,20)             120.5264         estimate D2E/DX2                !
 ! A28   A(9,8,20)             118.0895         estimate D2E/DX2                !
 ! A29   A(8,9,10)             120.0302         estimate D2E/DX2                !
 ! A30   A(8,9,21)             119.9464         estimate D2E/DX2                !
 ! A31   A(10,9,21)            120.0234         estimate D2E/DX2                !
 ! A32   A(9,10,11)            119.6769         estimate D2E/DX2                !
 ! A33   A(9,10,22)            120.1721         estimate D2E/DX2                !
 ! A34   A(11,10,22)           120.151          estimate D2E/DX2                !
 ! A35   A(10,11,12)           120.3269         estimate D2E/DX2                !
 ! A36   A(10,11,23)           119.8786         estimate D2E/DX2                !
 ! A37   A(12,11,23)           119.7944         estimate D2E/DX2                !
 ! A38   A(7,12,11)            121.1041         estimate D2E/DX2                !
 ! A39   A(7,12,24)            121.5131         estimate D2E/DX2                !
 ! A40   A(11,12,24)           117.3827         estimate D2E/DX2                !
 ! D1    D(13,1,2,3)           178.6439         estimate D2E/DX2                !
 ! D2    D(13,1,2,4)           -62.4638         estimate D2E/DX2                !
 ! D3    D(13,1,2,7)            58.1484         estimate D2E/DX2                !
 ! D4    D(14,1,2,3)            57.5238         estimate D2E/DX2                !
 ! D5    D(14,1,2,4)           176.4162         estimate D2E/DX2                !
 ! D6    D(14,1,2,7)           -62.9717         estimate D2E/DX2                !
 ! D7    D(15,1,2,3)           -62.2784         estimate D2E/DX2                !
 ! D8    D(15,1,2,4)            56.614          estimate D2E/DX2                !
 ! D9    D(15,1,2,7)           177.2261         estimate D2E/DX2                !
 ! D10   D(1,2,3,16)           176.8135         estimate D2E/DX2                !
 ! D11   D(1,2,3,17)           -63.0602         estimate D2E/DX2                !
 ! D12   D(1,2,3,18)            56.9823         estimate D2E/DX2                !
 ! D13   D(4,2,3,16)            62.1087         estimate D2E/DX2                !
 ! D14   D(4,2,3,17)          -177.765          estimate D2E/DX2                !
 ! D15   D(4,2,3,18)           -57.7225         estimate D2E/DX2                !
 ! D16   D(7,2,3,16)           -59.4598         estimate D2E/DX2                !
 ! D17   D(7,2,3,17)            60.6665         estimate D2E/DX2                !
 ! D18   D(7,2,3,18)          -179.291          estimate D2E/DX2                !
 ! D19   D(1,2,4,5)             47.6669         estimate D2E/DX2                !
 ! D20   D(1,2,4,6)           -133.5933         estimate D2E/DX2                !
 ! D21   D(3,2,4,5)            163.0164         estimate D2E/DX2                !
 ! D22   D(3,2,4,6)            -18.2438         estimate D2E/DX2                !
 ! D23   D(7,2,4,5)            -75.8053         estimate D2E/DX2                !
 ! D24   D(7,2,4,6)            102.9345         estimate D2E/DX2                !
 ! D25   D(1,2,7,8)           -176.1584         estimate D2E/DX2                !
 ! D26   D(1,2,7,12)             4.167          estimate D2E/DX2                !
 ! D27   D(3,2,7,8)             64.7916         estimate D2E/DX2                !
 ! D28   D(3,2,7,12)          -114.883          estimate D2E/DX2                !
 ! D29   D(4,2,7,8)            -57.97           estimate D2E/DX2                !
 ! D30   D(4,2,7,12)           122.3554         estimate D2E/DX2                !
 ! D31   D(2,4,6,19)          -178.4365         estimate D2E/DX2                !
 ! D32   D(5,4,6,19)             0.4039         estimate D2E/DX2                !
 ! D33   D(2,7,8,9)           -179.7924         estimate D2E/DX2                !
 ! D34   D(2,7,8,20)             0.2267         estimate D2E/DX2                !
 ! D35   D(12,7,8,9)            -0.1004         estimate D2E/DX2                !
 ! D36   D(12,7,8,20)          179.9187         estimate D2E/DX2                !
 ! D37   D(2,7,12,11)          179.7937         estimate D2E/DX2                !
 ! D38   D(2,7,12,24)           -0.3268         estimate D2E/DX2                !
 ! D39   D(8,7,12,11)            0.1126         estimate D2E/DX2                !
 ! D40   D(8,7,12,24)          179.9921         estimate D2E/DX2                !
 ! D41   D(7,8,9,10)             0.0388         estimate D2E/DX2                !
 ! D42   D(7,8,9,21)          -179.9076         estimate D2E/DX2                !
 ! D43   D(20,8,9,10)         -179.9798         estimate D2E/DX2                !
 ! D44   D(20,8,9,21)            0.0737         estimate D2E/DX2                !
 ! D45   D(8,9,10,11)            0.0139         estimate D2E/DX2                !
 ! D46   D(8,9,10,22)         -179.9096         estimate D2E/DX2                !
 ! D47   D(21,9,10,11)         179.9602         estimate D2E/DX2                !
 ! D48   D(21,9,10,22)           0.0368         estimate D2E/DX2                !
 ! D49   D(9,10,11,12)          -0.0015         estimate D2E/DX2                !
 ! D50   D(9,10,11,23)        -179.9049         estimate D2E/DX2                !
 ! D51   D(22,10,11,12)        179.922          estimate D2E/DX2                !
 ! D52   D(22,10,11,23)          0.0186         estimate D2E/DX2                !
 ! D53   D(10,11,12,7)          -0.064          estimate D2E/DX2                !
 ! D54   D(10,11,12,24)       -179.9483         estimate D2E/DX2                !
 ! D55   D(23,11,12,7)         179.8395         estimate D2E/DX2                !
 ! D56   D(23,11,12,24)         -0.0448         estimate D2E/DX2                !
 --------------------------------------------------------------------------------
 Trust Radius=3.00D-01 FncErr=1.00D-07 GrdErr=1.00D-06 EigMax=2.50D+02 EigMin=1.00D-04
 Number of steps in this run=    130 maximum allowed number of steps=    144.
 GradGradGradGradGradGradGradGradGradGradGradGradGradGradGradGradGradGrad

                          Input orientation:                          
 ---------------------------------------------------------------------
 Center     Atomic      Atomic             Coordinates (Angstroms)
 Number     Number       Type             X           Y           Z
 ---------------------------------------------------------------------
      1          6           0       -1.795900   -1.431500    0.010100
      2          6           0       -1.104000   -0.049500   -0.030400
      3          6           0       -1.573800    0.639100   -1.331100
      4          6           0       -1.600800    0.694600    1.219500
      5          8           0       -1.643700    0.250700    2.358000
      6          8           0       -1.996200    1.965500    0.999500
      7          6           0        0.433100   -0.113200   -0.021500
      8          6           0        1.179600    1.081700    0.026300
      9          6           0        2.576500    1.067100    0.031600
     10          6           0        3.259900   -0.143000   -0.011600
     11          6           0        2.545800   -1.336000   -0.060300
     12          6           0        1.147100   -1.322200   -0.065900
     13          1           0       -1.501800   -2.008900    0.894800
     14          1           0       -1.559800   -2.030000   -0.877400
     15          1           0       -2.886900   -1.323300    0.051400
     16          1           0       -1.181900    1.657600   -1.432000
     17          1           0       -1.247200    0.078200   -2.215000
     18          1           0       -2.667300    0.713700   -1.366600
     19          1           0       -2.249200    2.282500    1.892300
     20          1           0        0.676800    2.047000    0.060600
     21          1           0        3.128700    2.002400    0.070400
     22          1           0        4.346200   -0.157100   -0.006100
     23          1           0        3.076800   -2.284100   -0.092600
     24          1           0        0.638000   -2.281400   -0.103900
 ---------------------------------------------------------------------
                    Distance matrix (angstroms):
                    1          2          3          4          5
     1  C    0.000000
     2  C    1.546056   0.000000
     3  C    2.477000   1.544896   0.000000
     4  C    2.453775   1.537122   2.551347   0.000000
     5  O    2.892334   2.466952   3.710148   1.222730   0.000000
     6  O    3.543817   2.432476   2.714674   1.349047   2.215924
     7  C    2.589856   1.538445   2.511704   2.515824   3.179236
     8  C    3.894873   2.549050   3.101555   3.050278   3.754785
     9  C    5.036005   3.846650   4.389206   4.358864   4.887610
    10  C    5.217453   4.364942   5.071234   5.083659   5.460339
    11  C    4.343321   3.870015   4.742052   4.791191   5.090943
    12  C    2.946009   2.586209   3.584791   3.642896   4.017197
    13  H    1.096622   2.203063   3.460017   2.724728   2.695715
    14  H    1.096176   2.201714   2.707422   3.438330   3.959349
    15  H    1.097130   2.192713   2.736156   2.662786   3.056702
    16  H    3.463984   2.210145   1.095951   2.851894   4.068996
    17  H    2.744328   2.193010   1.096611   3.507246   4.593397
    18  H    2.693794   2.193584   1.096616   2.797445   3.890343
    19  H    4.188312   3.232102   3.680657   1.842419   2.170649
    20  H    4.268109   2.752243   2.997367   2.891279   3.726857
    21  H    6.003915   4.704913   5.092769   5.039736   5.574708
    22  H    6.272938   5.451316   6.118493   6.131419   6.452455
    23  H    4.947795   4.740928   5.630902   5.698614   5.891839
    24  H    2.580542   2.832198   3.863599   3.952238   4.204597
                    6          7          8          9         10
     6  O    0.000000
     7  C    3.356327   0.000000
     8  C    3.437139   1.409728   0.000000
     9  C    4.759573   2.447466   1.396986   0.000000
    10  C    5.752798   2.826974   2.414327   1.390411   0.000000
    11  C    5.714267   2.441362   2.778358   2.405053   1.391244
    12  C    4.671657   1.404795   2.405887   2.785937   2.420203
    13  H    4.006401   2.859567   4.182823   5.180678   5.193932
    14  H    4.435901   2.894536   4.243072   5.246645   5.247846
    15  H    3.536728   3.534410   4.724519   5.963484   6.259411
    16  H    2.582650   2.780911   2.834604   4.076320   4.998928
    17  H    3.802093   2.769744   3.452506   4.543767   5.021738
    18  H    2.759675   3.479301   4.107826   5.438501   6.140168
    19  H    0.980607   4.073910   4.084182   5.312888   6.313325
    20  H    2.834273   2.175453   1.088939   2.137734   3.387288
    21  H    5.208569   3.427896   2.156067   1.086838   2.150972
    22  H    6.763335   3.913377   3.400446   2.152191   1.086405
    23  H    6.707243   3.421551   3.865503   3.390615   2.150441
    24  H    5.117877   2.179419   3.408918   3.871511   3.384617
                   11         12         13         14         15
    11  C    0.000000
    12  C    1.398779   0.000000
    13  H    4.212847   2.900202   0.000000
    14  H    4.243258   2.913215   1.773274   0.000000
    15  H    5.433863   4.035705   1.760646   1.767283   0.000000
    16  H    4.973826   4.021154   4.354257   3.748171   3.740757
    17  H    4.585798   3.508906   3.753886   2.516227   3.128800
    18  H    5.751878   4.515125   3.726241   2.998960   2.491649
    19  H    6.316503   5.325717   4.468750   5.171476   4.098459
    20  H    3.866842   3.404217   4.678944   4.743854   4.904994
    21  H    3.391426   3.872761   6.181561   6.256245   6.873724
    22  H    2.152715   3.405184   6.199991   6.256817   7.326736
    23  H    1.087151   2.156318   4.691937   4.709409   6.042317
    24  H    2.129644   1.086596   2.377057   2.343465   3.656090
                   16         17         18         19         20
    16  H    0.000000
    17  H    1.764046   0.000000
    18  H    1.761147   1.772097   0.000000
    19  H    3.546914   4.767898   3.640930   0.000000
    20  H    2.415420   3.571597   3.872673   3.460067   0.000000
    21  H    4.577921   5.298500   6.108955   5.685032   2.452325
    22  H    5.990511   6.018366   7.197113   7.283878   4.281005
    23  H    5.955461   5.364888   6.603375   7.291086   4.953978
    24  H    4.537798   3.684893   4.635735   5.757597   4.331699
                   21         22         23         24
    21  H    0.000000
    22  H    2.480242   0.000000
    23  H    4.289912   2.478505   0.000000
    24  H    4.958317   4.274689   2.438828   0.000000
 Stoichiometry    C10H12O2
 Framework group  C1[X(C10H12O2)]
 Deg. of freedom    66
 Full point group                 C1      NOp   1
 Largest Abelian subgroup         C1      NOp   1
 Largest concise Abelian subgroup C1      NOp   1
                         Standard orientation:                         
 ---------------------------------------------------------------------
 Center     Atomic      Atomic             Coordinates (Angstroms)
 Number     Number       Type             X           Y           Z
 ---------------------------------------------------------------------
      1          6           0       -1.410389    1.926042   -0.030318
      2          6           0       -0.987837    0.485408    0.338890
      3          6           0       -1.350945    0.288926    1.827597
      4          6           0       -1.815947   -0.431837   -0.575243
      5          8           0       -1.967134   -0.307049   -1.782156
      6          8           0       -2.395778   -1.477069    0.050229
      7          6           0        0.510992    0.198276    0.144259
      8          6           0        1.006013   -1.102462    0.368685
      9          6           0        2.360635   -1.403271    0.207176
     10          6           0        3.252422   -0.409990   -0.181866
     11          6           0        2.788580    0.881942   -0.408408
     12          6           0        1.432413    1.183984   -0.246653
     13          1           0       -1.167990    2.167656   -1.072165
     14          1           0       -0.922450    2.669280    0.610864
     15          1           0       -2.493818    2.058165    0.081119
     16          1           0       -1.141884   -0.727537    2.180024
     17          1           0       -0.782886    0.975661    2.466550
     18          1           0       -2.417706    0.473443    2.002363
     19          1           0       -2.849170   -1.953885   -0.676869
     20          1           0        0.335673   -1.904254    0.674563
     21          1           0        2.716772   -2.414583    0.385027
     22          1           0        4.306118   -0.641704   -0.309580
     23          1           0        3.482729    1.660751   -0.714203
     24          1           0        1.122279    2.207841   -0.436984
 ---------------------------------------------------------------------
 Rotational constants (GHZ):           1.6154936           0.6631116           0.6050023
 Standard basis: def2TZVP (5D, 7F)
 There are   504 symmetry adapted cartesian basis functions of A   symmetry.
 There are   444 symmetry adapted basis functions of A   symmetry.
   444 basis functions,   708 primitive gaussians,   504 cartesian basis functions
    44 alpha electrons       44 beta electrons
       nuclear repulsion energy       693.7068391194 Hartrees.
 NAtoms=   24 NActive=   24 NUniq=   24 SFac= 1.00D+00 NAtFMM=   60 NAOKFM=F Big=F
 Integral buffers will be    131072 words long.
 Raffenetti 2 integral format.
 Two-electron integral symmetry is turned on.
 One-electron integrals computed using PRISM.
   1 Symmetry operations used in ECPInt.
 ECPInt:  NShTT=   16290 NPrTT=   49128 LenC2=   15613 LenP2D=   36157.
 LDataN:  DoStor=T MaxTD1= 6 Len=  172
 NBasis=   444 RedAO= T EigKep=  8.16D-06  NBF=   444
 NBsUse=   444 1.00D-06 EigRej= -1.00D+00 NBFU=   444
 ExpMin= 9.52D-02 ExpMax= 2.70D+04 ExpMxC= 9.22D+02 IAcc=3 IRadAn=         5 AccDes= 0.00D+00
 Harris functional with IExCor= 1009 and IRadAn=       5 diagonalized for initial guess.
 HarFok:  IExCor= 1009 AccDes= 0.00D+00 IRadAn=         5 IDoV= 1 UseB2=F ITyADJ=14
 ICtDFT=  3500011 ScaDFX=  1.000000  1.000000  1.000000  1.000000
 FoFCou: FMM=F IPFlag=           0 FMFlag=      100000 FMFlg1=           0
         NFxFlg=           0 DoJE=T BraDBF=F KetDBF=T FulRan=T
         wScrn=  0.000000 ICntrl=       500 IOpCl=  0 I1Cent=   200000004 NGrid=           0
         NMat0=    1 NMatS0=      1 NMatT0=    0 NMatD0=    1 NMtDS0=    0 NMtDT0=    0
 Petite list used in FoFCou.
 Requested convergence on RMS density matrix=1.00D-08 within 128 cycles.
 Requested convergence on MAX density matrix=1.00D-06.
 Requested convergence on             energy=1.00D-06.
 No special actions if energy rises.
 Integral accuracy reduced to 1.0D-05 until final iterations.
 Initial convergence to 1.0D-05 achieved.  Increase integral accuracy.
 SCF Done:  E(RM062X) =  -538.733304017     A.U. after   15 cycles
            NFock= 15  Conv=0.86D-08     -V/T= 2.0056

 **********************************************************************

            Population analysis using the SCF Density.

 **********************************************************************

 Orbital symmetries:
       Occupied  (A) (A) (A) (A) (A) (A) (A) (A) (A) (A) (A) (A)
                 (A) (A) (A) (A) (A) (A) (A) (A) (A) (A) (A) (A)
                 (A) (A) (A) (A) (A) (A) (A) (A) (A) (A) (A) (A)
                 (A) (A) (A) (A) (A) (A) (A) (A)
       Virtual   (A) (A) (A) (A) (A) (A) (A) (A) (A) (A) (A) (A)
                 (A) (A) (A) (A) (A) (A) (A) (A) (A) (A) (A) (A)
                 (A) (A) (A) (A) (A) (A) (A) (A) (A) (A) (A) (A)
                 (A) (A) (A) (A) (A) (A) (A) (A) (A) (A) (A) (A)
                 (A) (A) (A) (A) (A) (A) (A) (A) (A) (A) (A) (A)
                 (A) (A) (A) (A) (A) (A) (A) (A) (A) (A) (A) (A)
                 (A) (A) (A) (A) (A) (A) (A) (A) (A) (A) (A) (A)
                 (A) (A) (A) (A) (A) (A) (A) (A) (A) (A) (A) (A)
                 (A) (A) (A) (A) (A) (A) (A) (A) (A) (A) (A) (A)
                 (A) (A) (A) (A) (A) (A) (A) (A) (A) (A) (A) (A)
                 (A) (A) (A) (A) (A) (A) (A) (A) (A) (A) (A) (A)
                 (A) (A) (A) (A) (A) (A) (A) (A) (A) (A) (A) (A)
                 (A) (A) (A) (A) (A) (A) (A) (A) (A) (A) (A) (A)
                 (A) (A) (A) (A) (A) (A) (A) (A) (A) (A) (A) (A)
                 (A) (A) (A) (A) (A) (A) (A) (A) (A) (A) (A) (A)
                 (A) (A) (A) (A) (A) (A) (A) (A) (A) (A) (A) (A)
                 (A) (A) (A) (A) (A) (A) (A) (A) (A) (A) (A) (A)
                 (A) (A) (A) (A) (A) (A) (A) (A) (A) (A) (A) (A)
                 (A) (A) (A) (A) (A) (A) (A) (A) (A) (A) (A) (A)
                 (A) (A) (A) (A) (A) (A) (A) (A) (A) (A) (A) (A)
                 (A) (A) (A) (A) (A) (A) (A) (A) (A) (A) (A) (A)
                 (A) (A) (A) (A) (A) (A) (A) (A) (A) (A) (A) (A)
                 (A) (A) (A) (A) (A) (A) (A) (A) (A) (A) (A) (A)
                 (A) (A) (A) (A) (A) (A) (A) (A) (A) (A) (A) (A)
                 (A) (A) (A) (A) (A) (A) (A) (A) (A) (A) (A) (A)
                 (A) (A) (A) (A) (A) (A) (A) (A) (A) (A) (A) (A)
                 (A) (A) (A) (A) (A) (A) (A) (A) (A) (A) (A) (A)
                 (A) (A) (A) (A) (A) (A) (A) (A) (A) (A) (A) (A)
                 (A) (A) (A) (A) (A) (A) (A) (A) (A) (A) (A) (A)
                 (A) (A) (A) (A) (A) (A) (A) (A) (A) (A) (A) (A)
                 (A) (A) (A) (A) (A) (A) (A) (A) (A) (A) (A) (A)
                 (A) (A) (A) (A) (A) (A) (A) (A) (A) (A) (A) (A)
                 (A) (A) (A) (A) (A) (A) (A) (A) (A) (A) (A) (A)
                 (A) (A) (A) (A)
 The electronic state is 1-A.
 Alpha  occ. eigenvalues --  -19.67974 -19.61932 -10.68199 -10.58279 -10.56465
 Alpha  occ. eigenvalues --  -10.54868 -10.54862 -10.54702 -10.54677 -10.54467
 Alpha  occ. eigenvalues --  -10.53778 -10.53650  -1.24074  -1.13302  -0.97141
 Alpha  occ. eigenvalues --   -0.92340  -0.84597  -0.83555  -0.78597  -0.75327
 Alpha  occ. eigenvalues --   -0.70178  -0.68864  -0.64506  -0.60243  -0.58457
 Alpha  occ. eigenvalues --   -0.56502  -0.54658  -0.52702  -0.52328  -0.50552
 Alpha  occ. eigenvalues --   -0.49455  -0.49028  -0.46938  -0.45942  -0.44312
 Alpha  occ. eigenvalues --   -0.44279  -0.43345  -0.41682  -0.40457  -0.39345
 Alpha  occ. eigenvalues --   -0.38755  -0.35717  -0.31150  -0.30511
 Alpha virt. eigenvalues --    0.01075   0.01406   0.04594   0.05995   0.07807
 Alpha virt. eigenvalues --    0.08873   0.10289   0.11332   0.11518   0.12232
 Alpha virt. eigenvalues --    0.13824   0.14244   0.14661   0.16045   0.17164
 Alpha virt. eigenvalues --    0.17747   0.18467   0.19042   0.20573   0.21490
 Alpha virt. eigenvalues --    0.22099   0.23113   0.23878   0.24563   0.24847
 Alpha virt. eigenvalues --    0.25728   0.27003   0.27429   0.27610   0.29629
 Alpha virt. eigenvalues --    0.29963   0.30667   0.31874   0.32947   0.33783
 Alpha virt. eigenvalues --    0.34561   0.35863   0.36635   0.37277   0.37701
 Alpha virt. eigenvalues --    0.37945   0.39119   0.40471   0.40895   0.41637
 Alpha virt. eigenvalues --    0.42251   0.43042   0.43433   0.43859   0.44201
 Alpha virt. eigenvalues --    0.45524   0.46062   0.46852   0.47176   0.47546
 Alpha virt. eigenvalues --    0.48941   0.49026   0.49797   0.50653   0.51179
 Alpha virt. eigenvalues --    0.52173   0.52371   0.52928   0.54311   0.54726
 Alpha virt. eigenvalues --    0.55038   0.56638   0.57355   0.59747   0.61237
 Alpha virt. eigenvalues --    0.61685   0.62677   0.65172   0.65263   0.68350
 Alpha virt. eigenvalues --    0.68776   0.68898   0.70011   0.71044   0.72994
 Alpha virt. eigenvalues --    0.73843   0.74338   0.75851   0.76905   0.77949
 Alpha virt. eigenvalues --    0.78552   0.79679   0.82205   0.83032   0.84419
 Alpha virt. eigenvalues --    0.85995   0.87196   0.89456   0.90711   0.91448
 Alpha virt. eigenvalues --    0.92996   0.93367   0.94958   0.95581   0.96507
 Alpha virt. eigenvalues --    0.97037   0.99914   1.01673   1.03508   1.04068
 Alpha virt. eigenvalues --    1.05511   1.06439   1.07023   1.08541   1.10406
 Alpha virt. eigenvalues --    1.11602   1.12790   1.14794   1.15324   1.16137
 Alpha virt. eigenvalues --    1.18779   1.20208   1.22431   1.23743   1.25207
 Alpha virt. eigenvalues --    1.25528   1.27206   1.28775   1.28921   1.29925
 Alpha virt. eigenvalues --    1.31646   1.32560   1.34236   1.35934   1.40529
 Alpha virt. eigenvalues --    1.41315   1.43252   1.44763   1.46454   1.47771
 Alpha virt. eigenvalues --    1.49152   1.50294   1.52033   1.52189   1.53874
 Alpha virt. eigenvalues --    1.55521   1.57737   1.58733   1.59122   1.59890
 Alpha virt. eigenvalues --    1.60807   1.61878   1.63240   1.63752   1.64595
 Alpha virt. eigenvalues --    1.66183   1.67276   1.67677   1.68580   1.69235
 Alpha virt. eigenvalues --    1.70758   1.72163   1.72658   1.73663   1.74459
 Alpha virt. eigenvalues --    1.74705   1.76913   1.77990   1.80136   1.81229
 Alpha virt. eigenvalues --    1.84694   1.87568   1.89778   1.91476   1.93374
 Alpha virt. eigenvalues --    1.93788   1.95342   1.96999   1.98462   1.99744
 Alpha virt. eigenvalues --    2.02513   2.02654   2.05341   2.07836   2.08608
 Alpha virt. eigenvalues --    2.09156   2.11644   2.12715   2.14793   2.15207
 Alpha virt. eigenvalues --    2.16890   2.18252   2.19288   2.20259   2.22408
 Alpha virt. eigenvalues --    2.23179   2.25316   2.26221   2.26472   2.29715
 Alpha virt. eigenvalues --    2.31637   2.34252   2.34951   2.35696   2.36721
 Alpha virt. eigenvalues --    2.37797   2.39012   2.42517   2.44270   2.45030
 Alpha virt. eigenvalues --    2.46595   2.47907   2.49574   2.50720   2.51851
 Alpha virt. eigenvalues --    2.54002   2.54612   2.55680   2.57368   2.58269
 Alpha virt. eigenvalues --    2.61004   2.61574   2.61762   2.63779   2.64225
 Alpha virt. eigenvalues --    2.65562   2.66940   2.67776   2.68656   2.69139
 Alpha virt. eigenvalues --    2.70399   2.72485   2.72858   2.74567   2.75486
 Alpha virt. eigenvalues --    2.76256   2.77415   2.79560   2.79801   2.80464
 Alpha virt. eigenvalues --    2.82534   2.83624   2.84328   2.85302   2.85979
 Alpha virt. eigenvalues --    2.88084   2.88394   2.90226   2.91147   2.92424
 Alpha virt. eigenvalues --    2.95184   2.98121   2.98679   3.01130   3.01411
 Alpha virt. eigenvalues --    3.03579   3.04268   3.07043   3.07589   3.09364
 Alpha virt. eigenvalues --    3.10360   3.12626   3.13650   3.14529   3.15386
 Alpha virt. eigenvalues --    3.16455   3.17326   3.17742   3.18918   3.19685
 Alpha virt. eigenvalues --    3.21062   3.22484   3.23099   3.25228   3.25971
 Alpha virt. eigenvalues --    3.26412   3.26992   3.28340   3.28861   3.30365
 Alpha virt. eigenvalues --    3.31205   3.32361   3.33437   3.35282   3.35669
 Alpha virt. eigenvalues --    3.36728   3.37411   3.39096   3.40400   3.42046
 Alpha virt. eigenvalues --    3.42965   3.43758   3.46229   3.46635   3.47463
 Alpha virt. eigenvalues --    3.48121   3.49632   3.51744   3.52692   3.52931
 Alpha virt. eigenvalues --    3.53773   3.55012   3.57586   3.58803   3.61747
 Alpha virt. eigenvalues --    3.63306   3.64307   3.67113   3.68214   3.69808
 Alpha virt. eigenvalues --    3.70400   3.76528   3.78080   3.78888   3.81237
 Alpha virt. eigenvalues --    3.87721   3.89943   3.90439   3.92317   3.95154
 Alpha virt. eigenvalues --    3.98650   4.01717   4.02053   4.03839   4.05631
 Alpha virt. eigenvalues --    4.07388   4.09305   4.10868   4.11605   4.14103
 Alpha virt. eigenvalues --    4.16231   4.16642   4.17383   4.19280   4.19359
 Alpha virt. eigenvalues --    4.21155   4.24817   4.26924   4.28119   4.30208
 Alpha virt. eigenvalues --    4.32909   4.34377   4.37278   4.38164   4.40845
 Alpha virt. eigenvalues --    4.45830   4.47323   4.49197   4.53128   4.54945
 Alpha virt. eigenvalues --    4.57678   4.61246   4.62572   4.66162   4.68241
 Alpha virt. eigenvalues --    4.72397   4.82478   4.83268   4.85652   4.88217
 Alpha virt. eigenvalues --    4.90534   4.99658   5.06503   5.15530   5.16163
 Alpha virt. eigenvalues --    5.18013   5.21239   5.21914   5.31019   5.33043
 Alpha virt. eigenvalues --    5.38260   5.42302   5.43733   5.54587   5.59243
 Alpha virt. eigenvalues --    5.59717   5.74951   5.85451   5.87481   6.14290
 Alpha virt. eigenvalues --    6.19697   6.31623   6.34804   6.46806   6.50801
 Alpha virt. eigenvalues --    6.67629   6.71211   6.74201   6.82563   6.90348
 Alpha virt. eigenvalues --    7.06395   7.11692   7.26067  22.20962  22.50828
 Alpha virt. eigenvalues --   22.55953  22.65595  22.71037  22.82442  22.89191
 Alpha virt. eigenvalues --   22.89582  23.26205  23.37684  44.02346  44.09010
          Condensed to atoms (all electrons):
               1          2          3          4          5          6
     1  C    5.261712   0.232052  -0.077594  -0.060033   0.002299   0.002721
     2  C    0.232052   5.611339   0.263555   0.177822  -0.084772  -0.100228
     3  C   -0.077594   0.263555   5.208607  -0.056132   0.007781   0.004492
     4  C   -0.060033   0.177822  -0.056132   4.697021   0.665155   0.347595
     5  O    0.002299  -0.084772   0.007781   0.665155   7.848292  -0.105291
     6  O    0.002721  -0.100228   0.004492   0.347595  -0.105291   7.967227
     7  C   -0.062215   0.187990  -0.102127  -0.038557   0.000876  -0.013613
     8  C    0.016183  -0.045596  -0.007563  -0.017678  -0.001427   0.001032
     9  C   -0.001242   0.008167   0.001196  -0.000983  -0.000199  -0.000699
    10  C    0.000635  -0.003784   0.000456   0.000438   0.000055   0.000077
    11  C   -0.002566   0.013322  -0.001271  -0.001869  -0.000148  -0.000055
    12  C   -0.015702  -0.053296  -0.006019   0.003967  -0.001457   0.000186
    13  H    0.427777  -0.046124   0.013098  -0.018754   0.006538   0.000471
    14  H    0.419371  -0.034032  -0.014036   0.017446   0.000319  -0.000168
    15  H    0.408081  -0.023667  -0.012651  -0.017117  -0.000236   0.000563
    16  H    0.010846   0.008031   0.398191  -0.017412  -0.000000  -0.000623
    17  H   -0.014712  -0.023825   0.405997   0.013157  -0.000290   0.000405
    18  H   -0.012421  -0.031139   0.402501  -0.012782  -0.000125   0.001431
    19  H   -0.001428   0.018765  -0.003119  -0.026409   0.009570   0.288467
    20  H    0.000650   0.020076  -0.006150  -0.002530  -0.000443   0.008871
    21  H    0.000004  -0.000181  -0.000022  -0.000016   0.000005  -0.000027
    22  H   -0.000007   0.000064   0.000001   0.000001  -0.000000   0.000000
    23  H    0.000100  -0.000369  -0.000002  -0.000005  -0.000002  -0.000000
    24  H    0.001864  -0.011381  -0.000479  -0.000433  -0.000217  -0.000008
               7          8          9         10         11         12
     1  C   -0.062215   0.016183  -0.001242   0.000635  -0.002566  -0.015702
     2  C    0.187990  -0.045596   0.008167  -0.003784   0.013322  -0.053296
     3  C   -0.102127  -0.007563   0.001196   0.000456  -0.001271  -0.006019
     4  C   -0.038557  -0.017678  -0.000983   0.000438  -0.001869   0.003967
     5  O    0.000876  -0.001427  -0.000199   0.000055  -0.000148  -0.001457
     6  O   -0.013613   0.001032  -0.000699   0.000077  -0.000055   0.000186
     7  C    5.227719   0.419926  -0.029957  -0.056903  -0.045326   0.457898
     8  C    0.419926   5.075491   0.497450  -0.026614  -0.067398  -0.017264
     9  C   -0.029957   0.497450   4.898965   0.509781  -0.029256  -0.061090
    10  C   -0.056903  -0.026614   0.509781   4.890619   0.519790  -0.032927
    11  C   -0.045326  -0.067398  -0.029256   0.519790   4.885334   0.517124
    12  C    0.457898  -0.017264  -0.061090  -0.032927   0.517124   5.015807
    13  H    0.008654  -0.000420  -0.000067  -0.000027  -0.000309  -0.006787
    14  H   -0.015831   0.000210  -0.000017  -0.000002  -0.000049  -0.001137
    15  H    0.016483  -0.000662   0.000035  -0.000007   0.000047   0.000272
    16  H   -0.032648   0.007846   0.000503   0.000117  -0.000058   0.000810
    17  H   -0.010372  -0.005948   0.000184  -0.000197   0.000042   0.004146
    18  H    0.023245   0.000498  -0.000006  -0.000007   0.000025  -0.000650
    19  H    0.000156  -0.000399   0.000021  -0.000004   0.000003   0.000087
    20  H   -0.058689   0.400056  -0.018940   0.003987  -0.000670   0.003582
    21  H    0.006625  -0.030733   0.406705  -0.034132   0.004010  -0.000021
    22  H    0.000754   0.004456  -0.033531   0.407746  -0.033190   0.004164
    23  H    0.005900   0.000424   0.003498  -0.032653   0.404461  -0.029782
    24  H   -0.020120   0.003203   0.000420   0.001806  -0.016537   0.389716
              13         14         15         16         17         18
     1  C    0.427777   0.419371   0.408081   0.010846  -0.014712  -0.012421
     2  C   -0.046124  -0.034032  -0.023667   0.008031  -0.023825  -0.031139
     3  C    0.013098  -0.014036  -0.012651   0.398191   0.405997   0.402501
     4  C   -0.018754   0.017446  -0.017117  -0.017412   0.013157  -0.012782
     5  O    0.006538   0.000319  -0.000236  -0.000000  -0.000290  -0.000125
     6  O    0.000471  -0.000168   0.000563  -0.000623   0.000405   0.001431
     7  C    0.008654  -0.015831   0.016483  -0.032648  -0.010372   0.023245
     8  C   -0.000420   0.000210  -0.000662   0.007846  -0.005948   0.000498
     9  C   -0.000067  -0.000017   0.000035   0.000503   0.000184  -0.000006
    10  C   -0.000027  -0.000002  -0.000007   0.000117  -0.000197  -0.000007
    11  C   -0.000309  -0.000049   0.000047  -0.000058   0.000042   0.000025
    12  C   -0.006787  -0.001137   0.000272   0.000810   0.004146  -0.000650
    13  H    0.469946  -0.028636  -0.015259  -0.000325  -0.000248  -0.000085
    14  H   -0.028636   0.510382  -0.020738  -0.000042   0.001343   0.000270
    15  H   -0.015259  -0.020738   0.495372   0.000005   0.000178   0.002767
    16  H   -0.000325  -0.000042   0.000005   0.502869  -0.020599  -0.021378
    17  H   -0.000248   0.001343   0.000178  -0.020599   0.512857  -0.024103
    18  H   -0.000085   0.000270   0.002767  -0.021378  -0.024103   0.514611
    19  H   -0.000104   0.000048  -0.000107   0.000044   0.000082  -0.000041
    20  H   -0.000027  -0.000011  -0.000022  -0.000618   0.000153  -0.000036
    21  H   -0.000000  -0.000001  -0.000000  -0.000007   0.000008  -0.000001
    22  H    0.000001   0.000001   0.000000  -0.000000  -0.000002   0.000000
    23  H    0.000010  -0.000006  -0.000001  -0.000001   0.000005  -0.000000
    24  H   -0.003944  -0.004063   0.000636  -0.000001   0.000288  -0.000048
              19         20         21         22         23         24
     1  C   -0.001428   0.000650   0.000004  -0.000007   0.000100   0.001864
     2  C    0.018765   0.020076  -0.000181   0.000064  -0.000369  -0.011381
     3  C   -0.003119  -0.006150  -0.000022   0.000001  -0.000002  -0.000479
     4  C   -0.026409  -0.002530  -0.000016   0.000001  -0.000005  -0.000433
     5  O    0.009570  -0.000443   0.000005  -0.000000  -0.000002  -0.000217
     6  O    0.288467   0.008871  -0.000027   0.000000  -0.000000  -0.000008
     7  C    0.000156  -0.058689   0.006625   0.000754   0.005900  -0.020120
     8  C   -0.000399   0.400056  -0.030733   0.004456   0.000424   0.003203
     9  C    0.000021  -0.018940   0.406705  -0.033531   0.003498   0.000420
    10  C   -0.000004   0.003987  -0.034132   0.407746  -0.032653   0.001806
    11  C    0.000003  -0.000670   0.004010  -0.033190   0.404461  -0.016537
    12  C    0.000087   0.003582  -0.000021   0.004164  -0.029782   0.389716
    13  H   -0.000104  -0.000027  -0.000000   0.000001   0.000010  -0.003944
    14  H    0.000048  -0.000011  -0.000001   0.000001  -0.000006  -0.004063
    15  H   -0.000107  -0.000022  -0.000000   0.000000  -0.000001   0.000636
    16  H    0.000044  -0.000618  -0.000007  -0.000000  -0.000001  -0.000001
    17  H    0.000082   0.000153   0.000008  -0.000002   0.000005   0.000288
    18  H   -0.000041  -0.000036  -0.000001   0.000000  -0.000000  -0.000048
    19  H    0.374789  -0.000177   0.000001  -0.000000   0.000000   0.000001
    20  H   -0.000177   0.477097  -0.003815  -0.000264   0.000058  -0.000188
    21  H    0.000001  -0.003815   0.510746  -0.003935  -0.000284   0.000072
    22  H   -0.000000  -0.000264  -0.003935   0.514366  -0.003811  -0.000297
    23  H    0.000000   0.000058  -0.000284  -0.003811   0.512178  -0.003212
    24  H    0.000001  -0.000188   0.000072  -0.000297  -0.003212   0.496028
 Mulliken charges:
               1
     1  C   -0.536375
     2  C   -0.082789
     3  C   -0.418711
     4  C    0.348110
     5  O   -0.346280
     6  O   -0.402823
     7  C    0.130131
     8  C   -0.205075
     9  C   -0.150937
    10  C   -0.148249
    11  C   -0.145454
    12  C   -0.171627
    13  H    0.194621
    14  H    0.169378
    15  H    0.166028
    16  H    0.164451
    17  H    0.161453
    18  H    0.157475
    19  H    0.339754
    20  H    0.178050
    21  H    0.144999
    22  H    0.143482
    23  H    0.143495
    24  H    0.166892
 Sum of Mulliken charges =  -0.00000
 Mulliken charges with hydrogens summed into heavy atoms:
               1
     1  C   -0.006347
     2  C   -0.082789
     3  C    0.064668
     4  C    0.348110
     5  O   -0.346280
     6  O   -0.063068
     7  C    0.130131
     8  C   -0.027025
     9  C   -0.005938
    10  C   -0.004767
    11  C   -0.001959
    12  C   -0.004735
 Electronic spatial extent (au):  <R**2>=           2076.1698
 Charge=             -0.0000 electrons
 Dipole moment (field-independent basis, Debye):
    X=              0.3394    Y=             -0.0854    Z=              1.6575  Tot=              1.6941
 Quadrupole moment (field-independent basis, Debye-Ang):
   XX=            -65.4491   YY=            -64.1865   ZZ=            -79.6691
   XY=              1.5489   XZ=             -3.5279   YZ=              0.3414
 Traceless Quadrupole moment (field-independent basis, Debye-Ang):
   XX=              4.3192   YY=              5.5817   ZZ=             -9.9009
   XY=              1.5489   XZ=             -3.5279   YZ=              0.3414
 Octapole moment (field-independent basis, Debye-Ang**2):
  XXX=             -9.7443  YYY=            -14.7195  ZZZ=              7.5715  XYY=             -9.3772
  XXY=            -13.2146  XXZ=             -6.8489  XZZ=             -3.4548  YZZ=             -0.7374
  YYZ=             -6.8174  XYZ=             -9.8411
 Hexadecapole moment (field-independent basis, Debye-Ang**3):
 XXXX=          -1596.6727 YYYY=           -578.6385 ZZZZ=           -429.3063 XXXY=             44.3024
 XXXZ=             -5.8776 YYYX=             39.8434 YYYZ=              3.0924 ZZZX=            -10.3533
 ZZZY=              1.1209 XXYY=           -340.9241 XXZZ=           -398.3083 YYZZ=           -168.3077
 XXYZ=             11.1445 YYXZ=             18.8177 ZZXY=             10.0529
 N-N= 6.937068391194D+02 E-N=-2.642246275282D+03  KE= 5.357472928679D+02
   1 Symmetry operations used in ECPInt.
 ECPInt:  NShTT=   16290 NPrTT=   49128 LenC2=   15613 LenP2D=   36157.
 LDataN:  DoStor=T MaxTD1= 7 Len=  274
 Calling FoFJK, ICntrl=      2127 FMM=F ISym2X=0 I1Cent= 0 IOpClX= 0 NMat=1 NMatS=1 NMatT=0.
 ***** Axes restored to original set *****
 -------------------------------------------------------------------
 Center     Atomic                   Forces (Hartrees/Bohr)
 Number     Number              X              Y              Z
 -------------------------------------------------------------------
      1        6           0.004200566   -0.006806319    0.006170520
      2        6          -0.009911196   -0.007092634   -0.008934998
      3        6          -0.001038877    0.009491341   -0.001837801
      4        6           0.004079260   -0.002564788    0.032239761
      5        8           0.003483038    0.003667893   -0.037122286
      6        8          -0.000175271   -0.002372968    0.006560285
      7        6           0.008717995    0.000316287    0.005156182
      8        6           0.001477760   -0.004520335   -0.000415470
      9        6          -0.007531207   -0.002344158   -0.000304162
     10        6          -0.000467096   -0.002379769   -0.000050882
     11        6          -0.003990106    0.004948411   -0.000597592
     12        6           0.000493223    0.003731206    0.000425060
     13        1          -0.000107452    0.003938238   -0.002643192
     14        1           0.000986527    0.004830758    0.001644213
     15        1           0.004786770    0.002883004   -0.000892569
     16        1          -0.000381449   -0.004139438    0.002228900
     17        1           0.000572661   -0.001021441    0.006266967
     18        1           0.003466033   -0.001276238    0.001739877
     19        1           0.001644390   -0.000006780   -0.010734236
     20        1          -0.001170801   -0.004054277    0.000316733
     21        1          -0.002366212   -0.002461079   -0.000027267
     22        1          -0.002854581   -0.000007261    0.000049926
     23        1          -0.002427987    0.002683146    0.000035852
     24        1          -0.001485988    0.004557199    0.000726180
 -------------------------------------------------------------------
 Cartesian Forces:  Max     0.037122286 RMS     0.007013933

 GradGradGradGradGradGradGradGradGradGradGradGradGradGradGradGradGradGrad
 Berny optimization.
 FormGI is forming the generalized inverse of G from B-inverse, IUseBI=4.
 Internal  Forces:  Max     0.036019574 RMS     0.005260463
 Search for a local minimum.
 Step number   1 out of a maximum of  130
 All quantities printed in internal units (Hartrees-Bohrs-Radians)
 Mixed Optimization -- RFO/linear search
 Second derivative matrix not updated -- first step.
 ITU=  0
     Eigenvalues ---    0.00230   0.00230   0.00257   0.00275   0.00737
     Eigenvalues ---    0.01280   0.02007   0.02046   0.02064   0.02111
     Eigenvalues ---    0.02152   0.02171   0.02187   0.02210   0.02366
     Eigenvalues ---    0.04980   0.05262   0.05265   0.05383   0.05408
     Eigenvalues ---    0.05484   0.05915   0.14803   0.16000   0.16000
     Eigenvalues ---    0.16000   0.16000   0.16000   0.16000   0.16000
     Eigenvalues ---    0.16000   0.16000   0.16000   0.16000   0.16000
     Eigenvalues ---    0.16281   0.22000   0.22000   0.23463   0.24997
     Eigenvalues ---    0.25000   0.25000   0.27989   0.28090   0.28657
     Eigenvalues ---    0.28775   0.34002   0.34058   0.34059   0.34060
     Eigenvalues ---    0.34109   0.34134   0.34936   0.35144   0.35181
     Eigenvalues ---    0.35209   0.35231   0.41279   0.41675   0.44825
     Eigenvalues ---    0.45978   0.46174   0.46999   0.51267   0.55225
     Eigenvalues ---    0.94184
 RFO step:  Lambda=-9.44325829D-03 EMin= 2.30000000D-03
 Linear search not attempted -- first point.
 Iteration  1 RMS(Cart)=  0.05037976 RMS(Int)=  0.00070710
 Iteration  2 RMS(Cart)=  0.00106750 RMS(Int)=  0.00027650
 Iteration  3 RMS(Cart)=  0.00000095 RMS(Int)=  0.00027650
 Variable       Old X    -DE/DX   Delta X   Delta X   Delta X     New X
                                 (Linear)    (Quad)   (Total)
    R1        2.92162  -0.00864   0.00000  -0.02985  -0.02985   2.89178
    R2        2.07232  -0.00423   0.00000  -0.01210  -0.01210   2.06022
    R3        2.07147  -0.00376   0.00000  -0.01072  -0.01072   2.06075
    R4        2.07327  -0.00451   0.00000  -0.01290  -0.01290   2.06037
    R5        2.91943  -0.00651   0.00000  -0.02241  -0.02241   2.89702
    R6        2.90474  -0.01090   0.00000  -0.03668  -0.03668   2.86806
    R7        2.90724  -0.01158   0.00000  -0.03913  -0.03913   2.86811
    R8        2.07105  -0.00419   0.00000  -0.01194  -0.01194   2.05910
    R9        2.07229  -0.00436   0.00000  -0.01245  -0.01245   2.05984
   R10        2.07230  -0.00360   0.00000  -0.01028  -0.01028   2.06202
   R11        2.31063  -0.03602   0.00000  -0.03786  -0.03786   2.27276
   R12        2.54933  -0.00199   0.00000  -0.00354  -0.00354   2.54579
   R13        1.85308  -0.01020   0.00000  -0.01954  -0.01954   1.83354
   R14        2.66400  -0.01458   0.00000  -0.03325  -0.03321   2.63079
   R15        2.65468  -0.01436   0.00000  -0.03215  -0.03212   2.62255
   R16        2.63992  -0.01071   0.00000  -0.02279  -0.02279   2.61713
   R17        2.05780  -0.00304   0.00000  -0.00848  -0.00848   2.04931
   R18        2.62750  -0.00277   0.00000  -0.00499  -0.00502   2.62247
   R19        2.05383  -0.00332   0.00000  -0.00919  -0.00919   2.04463
   R20        2.62907  -0.00565   0.00000  -0.01096  -0.01100   2.61807
   R21        2.05301  -0.00285   0.00000  -0.00789  -0.00789   2.04512
   R22        2.64331  -0.00893   0.00000  -0.01906  -0.01906   2.62425
   R23        2.05442  -0.00353   0.00000  -0.00977  -0.00977   2.04465
   R24        2.05337  -0.00335   0.00000  -0.00927  -0.00927   2.04410
    A1        1.95171  -0.00118   0.00000  -0.00426  -0.00429   1.94742
    A2        1.95029  -0.00392   0.00000  -0.02447  -0.02470   1.92560
    A3        1.93677  -0.00362   0.00000  -0.02275  -0.02298   1.91379
    A4        1.88381   0.00312   0.00000   0.02088   0.02086   1.90467
    A5        1.86319   0.00287   0.00000   0.01951   0.01949   1.88268
    A6        1.87392   0.00336   0.00000   0.01476   0.01432   1.88824
    A7        1.85917   0.00410   0.00000   0.05285   0.05285   1.91202
    A8        1.84084   0.00226   0.00000   0.01793   0.01714   1.85798
    A9        1.99322  -0.00353   0.00000  -0.02447  -0.02491   1.96830
   A10        1.95041  -0.00207   0.00000  -0.00860  -0.00953   1.94088
   A11        1.90409   0.00149   0.00000   0.00828   0.00818   1.91227
   A12        1.91586  -0.00221   0.00000  -0.04383  -0.04391   1.87195
   A13        1.96384  -0.00142   0.00000  -0.00674  -0.00685   1.95699
   A14        1.93914  -0.00588   0.00000  -0.03777  -0.03802   1.90113
   A15        1.93993  -0.00109   0.00000  -0.00501  -0.00511   1.93482
   A16        1.86987   0.00366   0.00000   0.01899   0.01874   1.88861
   A17        1.86541   0.00208   0.00000   0.01790   0.01793   1.88334
   A18        1.88145   0.00330   0.00000   0.01637   0.01614   1.89759
   A19        2.20523  -0.00943   0.00000  -0.03608  -0.03644   2.16880
   A20        2.00222  -0.00461   0.00000  -0.01748  -0.01786   1.98437
   A21        2.07553   0.01406   0.00000   0.05451   0.05412   2.12964
   A22        1.80461   0.00691   0.00000   0.04078   0.04078   1.84539
   A23        2.08768  -0.00302   0.00000  -0.01036  -0.01040   2.07728
   A24        2.14512  -0.00296   0.00000  -0.01011  -0.01015   2.13497
   A25        2.05037   0.00598   0.00000   0.02043   0.02047   2.07085
   A26        2.11855  -0.00166   0.00000  -0.00853  -0.00850   2.11005
   A27        2.10358  -0.00215   0.00000  -0.01336  -0.01337   2.09021
   A28        2.06105   0.00382   0.00000   0.02188   0.02187   2.08292
   A29        2.09492  -0.00029   0.00000   0.00077   0.00073   2.09566
   A30        2.09346  -0.00066   0.00000  -0.00515  -0.00513   2.08832
   A31        2.09480   0.00095   0.00000   0.00438   0.00440   2.09920
   A32        2.08876  -0.00185   0.00000  -0.00429  -0.00436   2.08439
   A33        2.09740   0.00097   0.00000   0.00241   0.00244   2.09984
   A34        2.09703   0.00088   0.00000   0.00188   0.00192   2.09895
   A35        2.10010  -0.00042   0.00000   0.00040   0.00035   2.10045
   A36        2.09228   0.00104   0.00000   0.00471   0.00472   2.09700
   A37        2.09081  -0.00062   0.00000  -0.00511  -0.00509   2.08571
   A38        2.11367  -0.00175   0.00000  -0.00876  -0.00874   2.10493
   A39        2.12080  -0.00267   0.00000  -0.01657  -0.01659   2.10422
   A40        2.04871   0.00443   0.00000   0.02534   0.02532   2.07404
    D1        3.11792   0.00077   0.00000   0.01493   0.01442   3.13235
    D2       -1.09020   0.00146   0.00000   0.03923   0.03964  -1.05056
    D3        1.01488  -0.00181   0.00000  -0.01736  -0.01726   0.99762
    D4        1.00398   0.00036   0.00000   0.00837   0.00798   1.01196
    D5        3.07904   0.00106   0.00000   0.03268   0.03320   3.11224
    D6       -1.09906  -0.00222   0.00000  -0.02392  -0.02371  -1.12277
    D7       -1.08696   0.00119   0.00000   0.02150   0.02088  -1.06608
    D8        0.98810   0.00188   0.00000   0.04581   0.04610   1.03420
    D9        3.09318  -0.00139   0.00000  -0.01079  -0.01080   3.08238
   D10        3.08598   0.00210   0.00000   0.02280   0.02238   3.10835
   D11       -1.10061   0.00168   0.00000   0.01595   0.01560  -1.08501
   D12        0.99453   0.00117   0.00000   0.00799   0.00771   1.00224
   D13        1.08400  -0.00189   0.00000  -0.02460  -0.02464   1.05936
   D14       -3.10259  -0.00231   0.00000  -0.03144  -0.03141  -3.13400
   D15       -1.00745  -0.00282   0.00000  -0.03941  -0.03931  -1.04675
   D16       -1.03777   0.00122   0.00000   0.03052   0.03076  -1.00701
   D17        1.05883   0.00080   0.00000   0.02367   0.02399   1.08282
   D18       -3.12922   0.00030   0.00000   0.01571   0.01609  -3.11313
   D19        0.83194  -0.00401   0.00000  -0.10078  -0.10048   0.73147
   D20       -2.33164  -0.00308   0.00000  -0.04902  -0.04940  -2.38105
   D21        2.84517   0.00112   0.00000  -0.03214  -0.03214   2.81303
   D22       -0.31841   0.00205   0.00000   0.01962   0.01893  -0.29948
   D23       -1.32305   0.00012   0.00000  -0.05733  -0.05660  -1.37965
   D24        1.79655   0.00105   0.00000  -0.00557  -0.00553   1.79102
   D25       -3.07454   0.00160   0.00000   0.02534   0.02490  -3.04964
   D26        0.07273   0.00178   0.00000   0.03413   0.03358   0.10630
   D27        1.13083  -0.00240   0.00000  -0.03196  -0.03187   1.09896
   D28       -2.00509  -0.00222   0.00000  -0.02317  -0.02319  -2.02828
   D29       -1.01177   0.00063   0.00000   0.00151   0.00203  -1.00974
   D30        2.13551   0.00081   0.00000   0.01030   0.01071   2.14621
   D31       -3.11430  -0.00037   0.00000  -0.02591  -0.02696  -3.14126
   D32        0.00705   0.00019   0.00000   0.02057   0.02163   0.02868
   D33       -3.13797   0.00040   0.00000   0.01458   0.01461  -3.12336
   D34        0.00396   0.00048   0.00000   0.01734   0.01736   0.02132
   D35       -0.00175   0.00020   0.00000   0.00618   0.00616   0.00441
   D36        3.14017   0.00028   0.00000   0.00893   0.00891  -3.13410
   D37        3.13799  -0.00058   0.00000  -0.02071  -0.02074   3.11725
   D38       -0.00570  -0.00047   0.00000  -0.01693  -0.01702  -0.02272
   D39        0.00197  -0.00038   0.00000  -0.01201  -0.01200  -0.01003
   D40        3.14145  -0.00026   0.00000  -0.00823  -0.00828   3.13317
   D41        0.00068   0.00004   0.00000   0.00151   0.00158   0.00225
   D42       -3.13998   0.00004   0.00000   0.00143   0.00147  -3.13851
   D43       -3.14124  -0.00004   0.00000  -0.00118  -0.00117   3.14078
   D44        0.00129  -0.00004   0.00000  -0.00126  -0.00127   0.00002
   D45        0.00024  -0.00012   0.00000  -0.00361  -0.00359  -0.00335
   D46       -3.14001  -0.00002   0.00000  -0.00067  -0.00069  -3.14071
   D47        3.14090  -0.00012   0.00000  -0.00353  -0.00349   3.13741
   D48        0.00064  -0.00002   0.00000  -0.00059  -0.00059   0.00005
   D49       -0.00003  -0.00006   0.00000  -0.00218  -0.00223  -0.00226
   D50       -3.13993   0.00011   0.00000   0.00314   0.00307  -3.13686
   D51        3.14023  -0.00016   0.00000  -0.00512  -0.00513   3.13510
   D52        0.00032   0.00001   0.00000   0.00019   0.00017   0.00050
   D53       -0.00112   0.00032   0.00000   0.01026   0.01019   0.00907
   D54       -3.14069   0.00022   0.00000   0.00668   0.00658  -3.13411
   D55        3.13879   0.00016   0.00000   0.00496   0.00493  -3.13946
   D56       -0.00078   0.00005   0.00000   0.00138   0.00133   0.00054
         Item               Value     Threshold  Converged?
 Maximum Force            0.036020     0.000450     NO 
 RMS     Force            0.005260     0.000300     NO 
 Maximum Displacement     0.157866     0.001800     NO 
 RMS     Displacement     0.050394     0.001200     NO 
 Predicted change in Energy=-5.025371D-03
 GradGradGradGradGradGradGradGradGradGradGradGradGradGradGradGradGradGrad

                          Input orientation:                          
 ---------------------------------------------------------------------
 Center     Atomic      Atomic             Coordinates (Angstroms)
 Number     Number       Type             X           Y           Z
 ---------------------------------------------------------------------
      1          6           0       -1.749791   -1.445901    0.021305
      2          6           0       -1.102221   -0.061126   -0.047646
      3          6           0       -1.564062    0.658397   -1.320121
      4          6           0       -1.547915    0.684331    1.196985
      5          8           0       -1.608237    0.195152    2.294043
      6          8           0       -1.912661    1.959835    0.962618
      7          6           0        0.414116   -0.119499   -0.018671
      8          6           0        1.134825    1.070285    0.036844
      9          6           0        2.519718    1.063210    0.043209
     10          6           0        3.209220   -0.140012   -0.008807
     11          6           0        2.500209   -1.329036   -0.062883
     12          6           0        1.111557   -1.318517   -0.062379
     13          1           0       -1.435778   -1.991520    0.911405
     14          1           0       -1.493291   -2.028581   -0.864069
     15          1           0       -2.834518   -1.342025    0.057869
     16          1           0       -1.152737    1.664636   -1.394894
     17          1           0       -1.231957    0.089267   -2.188422
     18          1           0       -2.651983    0.737686   -1.348480
     19          1           0       -2.172134    2.321897    1.824596
     20          1           0        0.608049    2.017276    0.078631
     21          1           0        3.059590    1.999716    0.089678
     22          1           0        4.291389   -0.150101   -0.003213
     23          1           0        3.025889   -2.274030   -0.099336
     24          1           0        0.582722   -2.261442   -0.098162
 ---------------------------------------------------------------------
                    Distance matrix (angstroms):
                    1          2          3          4          5
     1  C    0.000000
     2  C    1.530262   0.000000
     3  C    2.502396   1.533037   0.000000
     4  C    2.441488   1.517714   2.517291   0.000000
     5  O    2.806854   2.409406   3.643999   1.202694   0.000000
     6  O    3.537178   2.400360   2.650690   1.347174   2.231473
     7  C    2.538392   1.517737   2.492405   2.444080   3.088294
     8  C    3.827851   2.508307   3.048770   2.948217   3.658578
     9  C    4.952254   3.793525   4.324327   4.245043   4.781191
    10  C    5.128161   4.312337   5.014102   4.976324   5.350078
    11  C    4.252440   3.819074   4.695618   4.693423   4.975698
    12  C    2.865404   2.545989   3.556549   3.559521   3.903997
    13  H    1.090221   2.181159   3.466730   2.693382   2.592868
    14  H    1.090502   2.165724   2.726323   3.407465   3.864178
    15  H    1.090302   2.157009   2.741277   2.656888   2.977777
    16  H    3.469514   2.189951   1.089631   2.799107   3.996889
    17  H    2.740034   2.149971   1.090023   3.451798   4.499477
    18  H    2.730991   2.175324   1.091175   2.775104   3.827757
    19  H    4.198396   3.213845   3.609186   1.861496   2.249756
    20  H    4.190023   2.694573   2.919097   2.770494   3.624928
    21  H    5.916679   4.646138   5.016455   4.917872   5.468480
    22  H    6.178637   5.394527   6.055924   6.019487   6.340518
    23  H    4.848450   4.684112   5.581853   5.599288   5.770636
    24  H    2.473862   2.771817   3.824568   3.859352   4.069127
                    6          7          8          9         10
     6  O    0.000000
     7  C    3.271154   0.000000
     8  C    3.306891   1.392153   0.000000
     9  C    4.614676   2.415820   1.384926   0.000000
    10  C    5.620203   2.795196   2.402086   1.387754   0.000000
    11  C    5.598370   2.411787   2.762419   2.394677   1.385424
    12  C    4.576473   1.387796   2.390975   2.768879   2.406644
    13  H    3.980357   2.791346   4.092372   5.072582   5.084375
    14  H    4.406826   2.827984   4.161924   5.146510   5.139239
    15  H    3.545514   3.471895   4.644929   5.869686   6.162471
    16  H    2.494492   2.744478   2.763343   3.989584   4.919823
    17  H    3.727122   2.731476   3.393503   4.472561   4.952508
    18  H    2.716876   3.450236   4.045944   5.365562   6.076082
    19  H    0.970269   4.005838   3.962142   5.174081   6.195267
    20  H    2.671836   2.147763   1.084450   2.136815   3.380477
    21  H    5.048455   3.391363   2.138072   1.081972   2.147212
    22  H    6.623813   3.877424   3.384500   2.147812   1.082231
    23  H    6.591102   3.386719   3.844361   3.378416   2.143791
    24  H    5.017107   2.150039   3.379860   3.850357   3.377417
                   11         12         13         14         15
    11  C    0.000000
    12  C    1.388692   0.000000
    13  H    4.108541   2.808932   0.000000
    14  H    4.132711   2.816404   1.776792   0.000000
    15  H    5.336109   3.947977   1.762623   1.766414   0.000000
    16  H    4.907172   3.975151   4.332043   3.746678   3.738839
    17  H    4.523114   3.463232   3.739003   2.511471   3.108476
    18  H    5.698173   4.477305   3.746305   3.038001   2.517208
    19  H    6.222755   5.253181   4.470090   5.159108   4.121214
    20  H    3.846830   3.376525   4.576154   4.655456   4.810052
    21  H    3.378871   3.850795   6.067415   6.153497   6.775600
    22  H    2.145175   3.388219   6.085046   6.142661   7.225162
    23  H    1.081980   2.139868   4.583435   4.589994   5.936136
    24  H    2.132459   1.081691   2.272976   2.225009   3.542202
                   16         17         18         19         20
    16  H    0.000000
    17  H    1.765715   0.000000
    18  H    1.763272   1.772689   0.000000
    19  H    3.440389   4.687524   3.578881   0.000000
    20  H    2.322929   3.498910   3.781773   3.297060   0.000000
    21  H    4.478832   5.220817   6.023544   5.521293   2.451629
    22  H    5.904960   5.944727   7.127996   7.157429   4.274484
    23  H    5.886635   5.298934   6.547444   7.200243   4.928786
    24  H    4.484129   3.631539   4.584908   5.682712   4.282444
                   21         22         23         24
    21  H    0.000000
    22  H    2.479449   0.000000
    23  H    4.278055   2.474228   0.000000
    24  H    4.932304   4.268605   2.443200   0.000000
 Stoichiometry    C10H12O2
 Framework group  C1[X(C10H12O2)]
 Deg. of freedom    66
 Full point group                 C1      NOp   1
 Largest Abelian subgroup         C1      NOp   1
 Largest concise Abelian subgroup C1      NOp   1
                         Standard orientation:                         
 ---------------------------------------------------------------------
 Center     Atomic      Atomic             Coordinates (Angstroms)
 Number     Number       Type             X           Y           Z
 ---------------------------------------------------------------------
      1          6           0       -1.367873    1.920107    0.006346
      2          6           0       -0.986998    0.480328    0.358014
      3          6           0       -1.362636    0.191835    1.816051
      4          6           0       -1.759116   -0.413607   -0.594964
      5          8           0       -1.904008   -0.188151   -1.767418
      6          8           0       -2.312161   -1.488691   -0.000647
      7          6           0        0.488659    0.194750    0.147285
      8          6           0        0.956579   -1.104838    0.321102
      9          6           0        2.298962   -1.404887    0.159857
     10          6           0        3.199607   -0.404240   -0.176898
     11          6           0        2.742649    0.891718   -0.353194
     12          6           0        1.394872    1.187756   -0.197238
     13          1           0       -1.106001    2.164015   -1.023467
     14          1           0       -0.867542    2.619032    0.677440
     15          1           0       -2.444335    2.052368    0.118126
     16          1           0       -1.139281   -0.835658    2.101826
     17          1           0       -0.794323    0.857332    2.465885
     18          1           0       -2.427111    0.362999    1.984158
     19          1           0       -2.770509   -1.972438   -0.705861
     20          1           0        0.262994   -1.896092    0.583570
     21          1           0        2.640256   -2.422414    0.297045
     22          1           0        4.249307   -0.634520   -0.304668
     23          1           0        3.433936    1.680097   -0.620145
     24          1           0        1.063738    2.206485   -0.347560
 ---------------------------------------------------------------------
 Rotational constants (GHZ):           1.6389961           0.6925467           0.6280815
 Standard basis: def2TZVP (5D, 7F)
 There are   504 symmetry adapted cartesian basis functions of A   symmetry.
 There are   444 symmetry adapted basis functions of A   symmetry.
   444 basis functions,   708 primitive gaussians,   504 cartesian basis functions
    44 alpha electrons       44 beta electrons
       nuclear repulsion energy       702.9649570391 Hartrees.
 NAtoms=   24 NActive=   24 NUniq=   24 SFac= 1.00D+00 NAtFMM=   60 NAOKFM=F Big=F
 Integral buffers will be    131072 words long.
 Raffenetti 2 integral format.
 Two-electron integral symmetry is turned on.
 One-electron integrals computed using PRISM.
   1 Symmetry operations used in ECPInt.
 ECPInt:  NShTT=   16290 NPrTT=   49128 LenC2=   15655 LenP2D=   36396.
 LDataN:  DoStor=T MaxTD1= 6 Len=  172
 NBasis=   444 RedAO= T EigKep=  7.51D-06  NBF=   444
 NBsUse=   444 1.00D-06 EigRej= -1.00D+00 NBFU=   444
 Initial guess from the checkpoint file:  "/tmp/Gau-1609808.chk"
 B after Tr=     0.000000   -0.000000    0.000000
         Rot=    0.999799   -0.019822    0.003163    0.000026 Ang=  -2.30 deg.
 ExpMin= 9.52D-02 ExpMax= 2.70D+04 ExpMxC= 9.22D+02 IAcc=3 IRadAn=         5 AccDes= 0.00D+00
 Harris functional with IExCor= 1009 and IRadAn=       5 diagonalized for initial guess.
 HarFok:  IExCor= 1009 AccDes= 0.00D+00 IRadAn=         5 IDoV= 1 UseB2=F ITyADJ=14
 ICtDFT=  3500011 ScaDFX=  1.000000  1.000000  1.000000  1.000000
 FoFCou: FMM=F IPFlag=           0 FMFlag=      100000 FMFlg1=           0
         NFxFlg=           0 DoJE=T BraDBF=F KetDBF=T FulRan=T
         wScrn=  0.000000 ICntrl=       500 IOpCl=  0 I1Cent=   200000004 NGrid=           0
         NMat0=    1 NMatS0=      1 NMatT0=    0 NMatD0=    1 NMtDS0=    0 NMtDT0=    0
 Petite list used in FoFCou.
 Requested convergence on RMS density matrix=1.00D-08 within 128 cycles.
 Requested convergence on MAX density matrix=1.00D-06.
 Requested convergence on             energy=1.00D-06.
 No special actions if energy rises.
 Integral accuracy reduced to 1.0D-05 until final iterations.
 Problem detected with inexpensive integrals.
 Switching to full accuracy and repeating last cycle.
 SCF Done:  E(RM062X) =  -538.737699811     A.U. after   15 cycles
            NFock= 15  Conv=0.95D-08     -V/T= 2.0047
   1 Symmetry operations used in ECPInt.
 ECPInt:  NShTT=   16290 NPrTT=   49128 LenC2=   15655 LenP2D=   36396.
 LDataN:  DoStor=T MaxTD1= 7 Len=  274
 Calling FoFJK, ICntrl=      2127 FMM=F ISym2X=0 I1Cent= 0 IOpClX= 0 NMat=1 NMatS=1 NMatT=0.
 ***** Axes restored to original set *****
 -------------------------------------------------------------------
 Center     Atomic                   Forces (Hartrees/Bohr)
 Number     Number              X              Y              Z
 -------------------------------------------------------------------
      1        6          -0.000609244   -0.001589743    0.000499920
      2        6          -0.005081170   -0.001871283   -0.003806879
      3        6          -0.000317595    0.000774192   -0.002501265
      4        6          -0.004530964   -0.003914785    0.007920439
      5        8           0.001219020    0.004814269   -0.005183509
      6        8           0.001296691    0.000397556    0.004895321
      7        6           0.002399581   -0.000023673    0.000667245
      8        6           0.002373849    0.002170431   -0.000163307
      9        6          -0.000318749    0.000704917    0.000158025
     10        6           0.000941431   -0.000829920   -0.000065921
     11        6           0.000907801    0.000427701    0.000228740
     12        6           0.001084853   -0.002067180   -0.000479066
     13        1          -0.000204299    0.001428196   -0.000666729
     14        1          -0.000206487    0.000606047   -0.000231960
     15        1          -0.000107895   -0.000055296   -0.000466304
     16        1          -0.000080248   -0.001423640    0.000564599
     17        1          -0.000050483   -0.000449351   -0.000210507
     18        1           0.000294733   -0.000380290    0.000195093
     19        1           0.000200675    0.000873735   -0.001591106
     20        1          -0.000196362   -0.000364319    0.000067812
     21        1           0.000395979    0.000114240    0.000066902
     22        1          -0.000062149    0.000068138   -0.000085292
     23        1           0.000283774   -0.000183903   -0.000046698
     24        1           0.000367257    0.000773964    0.000234447
 -------------------------------------------------------------------
 Cartesian Forces:  Max     0.007920439 RMS     0.001922305

 GradGradGradGradGradGradGradGradGradGradGradGradGradGradGradGradGradGrad
 Berny optimization.
 Using GEDIIS/GDIIS optimizer.
 FormGI is forming the generalized inverse of G from B-inverse, IUseBI=4.
 Internal  Forces:  Max     0.008150050 RMS     0.001454607
 Search for a local minimum.
 Step number   2 out of a maximum of  130
 All quantities printed in internal units (Hartrees-Bohrs-Radians)
 Mixed Optimization -- RFO/linear search
 Update second derivatives using D2CorX and points    1    2
 DE= -4.40D-03 DEPred=-5.03D-03 R= 8.75D-01
 TightC=F SS=  1.41D+00  RLast= 2.56D-01 DXNew= 5.0454D-01 7.6733D-01
 Trust test= 8.75D-01 RLast= 2.56D-01 DXMaxT set to 5.05D-01
 ITU=  1  0
 Use linear search instead of GDIIS.
     Eigenvalues ---    0.00230   0.00230   0.00257   0.00274   0.00815
     Eigenvalues ---    0.01294   0.02010   0.02048   0.02065   0.02112
     Eigenvalues ---    0.02153   0.02171   0.02187   0.02210   0.02366
     Eigenvalues ---    0.04743   0.05352   0.05397   0.05449   0.05632
     Eigenvalues ---    0.05638   0.06195   0.14979   0.15514   0.16000
     Eigenvalues ---    0.16000   0.16000   0.16000   0.16000   0.16000
     Eigenvalues ---    0.16000   0.16000   0.16000   0.16000   0.16094
     Eigenvalues ---    0.16346   0.21986   0.22002   0.23586   0.24838
     Eigenvalues ---    0.24998   0.25471   0.27768   0.28076   0.28724
     Eigenvalues ---    0.32584   0.33806   0.34020   0.34059   0.34096
     Eigenvalues ---    0.34103   0.34334   0.34934   0.35157   0.35162
     Eigenvalues ---    0.35219   0.35341   0.41406   0.42785   0.44827
     Eigenvalues ---    0.46027   0.46912   0.47960   0.50934   0.55235
     Eigenvalues ---    0.88417
 RFO step:  Lambda=-1.71668676D-03 EMin= 2.29961415D-03
 Quartic linear search produced a step of -0.07928.
 Iteration  1 RMS(Cart)=  0.07043975 RMS(Int)=  0.00415544
 Iteration  2 RMS(Cart)=  0.00611779 RMS(Int)=  0.00094589
 Iteration  3 RMS(Cart)=  0.00002172 RMS(Int)=  0.00094579
 Iteration  4 RMS(Cart)=  0.00000004 RMS(Int)=  0.00094579
 Variable       Old X    -DE/DX   Delta X   Delta X   Delta X     New X
                                 (Linear)    (Quad)   (Total)
    R1        2.89178   0.00008   0.00237  -0.00734  -0.00497   2.88680
    R2        2.06022  -0.00132   0.00096  -0.00662  -0.00566   2.05456
    R3        2.06075  -0.00018   0.00085  -0.00322  -0.00237   2.05838
    R4        2.06037   0.00009   0.00102  -0.00305  -0.00202   2.05835
    R5        2.89702   0.00097   0.00178  -0.00255  -0.00077   2.89625
    R6        2.86806   0.00655   0.00291   0.01145   0.01436   2.88242
    R7        2.86811   0.00815   0.00310   0.01599   0.01910   2.88720
    R8        2.05910  -0.00138   0.00095  -0.00674  -0.00579   2.05331
    R9        2.05984   0.00039   0.00099  -0.00213  -0.00114   2.05870
   R10        2.06202  -0.00033   0.00082  -0.00349  -0.00268   2.05935
   R11        2.27276  -0.00675   0.00300  -0.01613  -0.01312   2.25964
   R12        2.54579   0.00023   0.00028  -0.00052  -0.00024   2.54555
   R13        1.83354  -0.00114   0.00155  -0.00699  -0.00544   1.82810
   R14        2.63079   0.00327   0.00263  -0.00143   0.00120   2.63199
   R15        2.62255   0.00263   0.00255  -0.00259  -0.00004   2.62251
   R16        2.61713   0.00064   0.00181  -0.00451  -0.00271   2.61442
   R17        2.04931  -0.00022   0.00067  -0.00274  -0.00206   2.04725
   R18        2.62247   0.00072   0.00040  -0.00007   0.00033   2.62280
   R19        2.04463   0.00030   0.00073  -0.00156  -0.00083   2.04380
   R20        2.61807  -0.00007   0.00087  -0.00310  -0.00223   2.61584
   R21        2.04512  -0.00006   0.00063  -0.00217  -0.00154   2.04357
   R22        2.62425   0.00150   0.00151  -0.00182  -0.00031   2.62394
   R23        2.04465   0.00030   0.00077  -0.00170  -0.00093   2.04372
   R24        2.04410  -0.00086   0.00073  -0.00459  -0.00386   2.04024
    A1        1.94742  -0.00098   0.00034  -0.00592  -0.00559   1.94183
    A2        1.92560  -0.00045   0.00196  -0.00916  -0.00721   1.91839
    A3        1.91379   0.00026   0.00182  -0.00505  -0.00323   1.91057
    A4        1.90467   0.00090  -0.00165   0.01155   0.00989   1.91456
    A5        1.88268   0.00041  -0.00155   0.00770   0.00615   1.88883
    A6        1.88824  -0.00009  -0.00114   0.00154   0.00041   1.88865
    A7        1.91202  -0.00180  -0.00419   0.00501   0.00076   1.91278
    A8        1.85798  -0.00003  -0.00136   0.00573   0.00439   1.86237
    A9        1.96830   0.00182   0.00198   0.00248   0.00449   1.97280
   A10        1.94088   0.00211   0.00076   0.01232   0.01310   1.95398
   A11        1.91227  -0.00031  -0.00065  -0.00185  -0.00244   1.90983
   A12        1.87195  -0.00168   0.00348  -0.02363  -0.02011   1.85185
   A13        1.95699  -0.00077   0.00054  -0.00580  -0.00526   1.95172
   A14        1.90113  -0.00004   0.00301  -0.01036  -0.00735   1.89378
   A15        1.93482  -0.00030   0.00041  -0.00311  -0.00271   1.93211
   A16        1.88861   0.00043  -0.00149   0.00735   0.00586   1.89447
   A17        1.88334   0.00063  -0.00142   0.00866   0.00724   1.89058
   A18        1.89759   0.00009  -0.00128   0.00396   0.00269   1.90027
   A19        2.16880   0.00112   0.00289  -0.00369  -0.00674   2.16205
   A20        1.98437   0.00207   0.00142   0.00463   0.00010   1.98447
   A21        2.12964  -0.00313  -0.00429   0.00418  -0.00613   2.12351
   A22        1.84539   0.00259  -0.00323   0.02523   0.02200   1.86739
   A23        2.07728  -0.00014   0.00082  -0.00349  -0.00266   2.07462
   A24        2.13497   0.00216   0.00080   0.00499   0.00579   2.14076
   A25        2.07085  -0.00201  -0.00162  -0.00155  -0.00318   2.06767
   A26        2.11005   0.00083   0.00067   0.00147   0.00214   2.11220
[...]
 ,0.00048241,-0.00039428,0.00096231,0.00020236,0.00081256,-0.00104304,0
 .00035799,-0.00060689,-0.00020082,-0.00004247,-0.00000386,0.00003174,-
 0.00015229,0.00007829,0.00018576,0.00002355,-0.00006885,-0.00015696,0.
 00002946,0.00004274,0.00076014,0.00049553,-0.00019830,-0.00008606,-0.0
 0023887,-0.00013743,0.00048575,0.00021728,-0.00010473,0.09136259,0.001
 77548,-0.00063331,0.00349149,-0.00516642,-0.01394023,-0.00051340,-0.09
 562412,-0.28908780,0.00617929,0.00032548,-0.00183501,-0.00032014,-0.00
 003358,0.00062592,0.00002371,0.00028846,0.00031720,-0.00223364,-0.0014
 0514,0.00012715,-0.00011992,-0.00059626,-0.00047759,-0.00073343,0.0004
 3335,0.00021705,-0.00025158,-0.00002438,0.00036833,0.00007897,-0.00039
 695,-0.00003461,0.00000579,0.00040736,-0.00028485,-0.00007055,-0.00054
 422,-0.00085719,-0.00002357,0.00001686,0.00035135,-0.00005155,-0.00001
 786,0.00016402,-0.00011659,0.10549166,0.31269854,-0.00213422,0.0019439
 1,-0.00478446,0.01075929,0.02428201,-0.00047548,0.00046694,0.00214907,
 -0.04596221,0.00065106,0.00280057,0.00134200,-0.00020549,-0.00093833,0
 .00033678,0.00011486,-0.00157322,-0.00180216,0.00127974,-0.00082801,0.
 00077474,-0.00009768,0.00052593,-0.00020955,-0.00023437,-0.00023342,0.
 00002291,0.00009432,-0.00027930,0.00004697,0.00028984,0.00007441,-0.00
 001532,-0.00030339,0.00023483,0.00011634,0.00043016,0.00179599,0.00029
 550,-0.00016308,0.00024279,0.00019766,-0.00011394,-0.00021886,-0.00009
 768,0.00114413,-0.00545849,0.05043237,-0.00005597,-0.00034349,0.000225
 76,0.00187099,-0.00536424,-0.00986099,-0.07202220,0.03982995,0.0681633
 8,-0.00103432,0.00185105,-0.00148481,0.00075351,-0.00027674,-0.0009826
 9,0.00051255,-0.00053416,-0.00019848,0.00116615,-0.00083645,-0.0005867
 6,0.00005550,-0.00027740,0.00022311,-0.00014764,0.00007618,0.00013898,
 0.00000773,-0.00005185,-0.00002167,-0.00001046,0.00000055,0.00005835,0
 .00015787,0.00023671,0.00016302,-0.00011706,-0.00013539,-0.00012089,0.
 00025222,-0.00013646,0.00022512,-0.00007188,0.00013671,0.00015066,0.00
 328873,-0.00529112,-0.01104893,0.07315891,-0.00012977,0.00115295,0.000
 66192,-0.00413828,0.00668860,0.01579835,0.03939888,-0.11212745,-0.1110
 3183,0.00218648,-0.00437281,0.00183421,-0.00110597,0.00104413,0.001127
 44,-0.00019485,0.00089871,-0.00096562,-0.00085643,0.00066932,-0.000285
 28,-0.00001320,-0.00039671,-0.00004083,-0.00017344,0.00021625,0.000072
 60,-0.00008655,-0.00011174,0.00001905,0.00011519,0.00002858,0.00000214
 ,-0.00020905,-0.00002552,-0.00017816,-0.00002237,0.00018452,-0.0001339
 6,0.00020135,-0.00031823,0.00019914,-0.00013062,-0.00003413,-0.0000838
 8,0.01040554,-0.01249581,-0.02416883,-0.04494386,0.11985512,0.00024082
 ,-0.00168759,0.00083155,0.00643812,-0.01233531,-0.02492468,0.06680733,
 -0.10934650,-0.22735007,-0.00336868,0.00446795,-0.00033979,0.00159641,
 -0.00032783,-0.00242343,0.00035929,-0.00065823,-0.00005176,0.00165560,
 -0.00040142,0.00110749,-0.00035399,-0.00024532,0.00024847,-0.00003652,
 -0.00002850,-0.00014042,-0.00001803,-0.00001712,-0.00000016,-0.0000035
 8,0.00011398,-0.00012210,-0.00040393,0.00015706,0.00019944,-0.00024666
 ,0.00002042,0.00035344,0.00004575,0.00095220,0.00032911,-0.00002729,0.
 00014097,-0.00007698,-0.00089804,0.00087388,0.00138062,-0.07139258,0.1
 1697863,0.24982666,0.00028972,-0.00078666,0.00077879,-0.00931539,-0.00
 033691,0.00027586,-0.31544649,0.01319998,0.00195393,-0.00063885,0.0011
 6124,0.00031887,0.00018449,-0.00019149,-0.00044368,0.00057244,-0.00057
 182,0.00010684,-0.00001687,0.00101306,-0.00197729,-0.00010467,0.000312
 05,-0.00018257,0.00028427,0.00000500,-0.00005390,-0.00010143,0.0002958
 5,-0.00003051,-0.00033557,-0.00005132,0.00012321,0.00018045,-0.0006227
 0,-0.00026725,0.00041127,-0.00005225,-0.00004660,-0.00003914,-0.000006
 83,-0.00013392,0.00071694,0.00042484,0.00001610,-0.01057059,0.00126145
 ,0.00049790,-0.00784559,-0.00030161,-0.00034609,0.34190010,0.00121972,
 0.00071830,-0.00043541,0.01589925,-0.00234049,0.00027966,0.01196279,-0
 .04804338,-0.00093335,-0.00019966,0.00104195,-0.00089153,-0.00012159,-
 0.00038212,0.00031242,0.00023686,-0.00035334,0.00027192,-0.00022607,-0
 .00131569,0.00289287,-0.00018056,-0.00024393,-0.00030180,0.00013469,0.
 00004234,-0.00028981,0.00010780,0.00011787,0.00005650,-0.00010976,-0.0
 0005976,-0.00029753,0.00063805,0.00017036,-0.00001730,-0.00026528,0.00
 016117,-0.00012478,0.00005745,-0.00009958,-0.00003505,-0.00033214,-0.0
 0045087,0.00050937,-0.03005222,0.00320037,0.00030714,0.01590287,-0.001
 15096,0.00103318,-0.01492738,0.04854363,-0.00062248,-0.00126387,0.0007
 0517,-0.02713550,0.00150224,-0.00170357,0.00391301,-0.00067469,-0.0473
 7659,-0.00148836,0.00015437,0.00119784,0.00027752,0.00006724,0.0000190
 5,0.00026101,-0.00021357,0.00006507,-0.00050639,0.00330940,-0.00367137
 ,-0.00034452,0.00016963,0.00018804,0.00012934,-0.00006550,0.00010608,-
 0.00016391,0.00014411,-0.00005646,-0.00018767,0.00021932,0.00032945,-0
 .00113950,-0.00033908,-0.00005006,0.00011216,-0.00025660,-0.00002299,0
 .00016510,0.00009038,-0.00001947,0.00045377,0.00031925,0.00013358,0.00
 033265,-0.00038875,-0.00108815,0.02661030,0.00033175,0.00104956,-0.000
 67211,-0.00287167,0.05045266,-0.00018333,0.00000043,0.00054805,0.00472
 570,0.00028840,0.00028273,0.00027079,-0.00029448,-0.00000727,0.0045536
 4,0.00416787,-0.00026490,-0.00604470,-0.00170207,-0.00008296,-0.052859
 93,0.04462196,0.12122887,0.00066600,-0.00079327,-0.00082796,-0.0002201
 9,-0.00024140,-0.00001393,-0.00016476,0.00007695,-0.00004520,-0.000064
 48,-0.00006507,-0.00004737,0.00006894,-0.00000506,0.00006638,0.0000321
 2,0.00014669,-0.00005544,0.00000840,0.00002139,-0.00001920,0.00009697,
 0.00014318,-0.00005154,-0.00003969,-0.00004573,-0.00002231,-0.00005735
 ,-0.00010511,-0.00001357,-0.00006652,-0.00012219,-0.00003750,-0.000059
 63,0.00006882,0.00007551,0.04936569,0.00076820,-0.00035922,-0.00131004
 ,-0.00169023,-0.00562166,0.00261516,-0.00033806,0.00016934,0.00130598,
 0.01715627,-0.02848523,-0.05511315,-0.00114271,0.00811015,0.00459030,0
 .03161267,-0.09216664,-0.10935289,-0.00000467,-0.00000164,0.00008653,-
 0.00023588,-0.00009677,0.00011269,0.00014596,0.00013458,0.00000496,-0.
 00007896,0.00010468,-0.00002213,-0.00009960,-0.00005496,0.00001556,0.0
 0011668,-0.00014144,0.00009631,0.00007604,-0.00016167,0.00000939,-0.00
 024778,-0.00046903,0.00014129,-0.00009316,-0.00001672,-0.00006733,0.00
 009048,0.00041433,-0.00021680,0.00012435,0.00023607,0.00016737,-0.0000
 4596,0.00003270,-0.00014845,-0.04635741,0.11815899,0.00018271,0.000130
 14,0.00025522,0.00040699,0.00127873,0.00178176,0.00024294,0.00017048,0
 .00039561,0.00030396,-0.01169400,0.00278336,-0.00031580,0.00620295,-0.
 00495426,0.12026892,-0.15292346,-0.41781224,0.00014442,-0.00013902,-0.
 00032587,-0.00013114,0.00015949,0.00005668,0.00012442,-0.00002882,0.00
 006854,-0.00003163,0.00013837,-0.00003003,-0.00012396,-0.00004454,0.00
 002344,0.00015634,-0.00004935,0.00007919,-0.00001828,-0.00011363,-0.00
 002235,0.00000379,0.00003954,0.00016478,-0.00003230,-0.00002328,-0.000
 01244,-0.00000677,-0.00018772,0.00003240,-0.00007100,-0.00003935,0.000
 10885,-0.00014721,-0.00001628,-0.00004431,-0.12109749,0.15720656,0.417
 68032,0.00004351,0.00002224,-0.00001671,0.00033901,0.00030585,-0.00004
 899,-0.00087600,-0.00027230,-0.00023199,-0.00032820,-0.00185655,0.0003
 9794,0.00013708,0.00059326,-0.00036266,-0.00228793,0.00081172,0.001154
 37,0.01246199,-0.01338762,0.00084165,-0.12556348,0.12090761,-0.0084663
 3,-0.01067417,0.02867975,-0.00185895,-0.00555560,-0.00100187,-0.000040
 15,-0.00088770,-0.00093835,0.00002683,-0.00113179,-0.00358788,0.000239
 60,0.00005251,0.00006105,-0.00004054,0.00003601,0.00004234,0.00003793,
 0.00000671,0.00003108,0.00000145,-0.00181269,-0.00069064,-0.00150340,0
 .00010000,0.00009844,0.00004076,0.00002687,0.00008527,0.00007580,-0.00
 002021,0.00032467,0.00015634,0.13487540,-0.00013800,0.00008706,-0.0000
 6310,0.00129449,-0.00005629,0.00026870,0.00023365,-0.00037948,0.000139
 33,-0.00073865,-0.00133980,0.00043608,0.00003668,0.00038078,-0.0002861
 0,0.00161089,0.00022504,-0.00073172,0.01486633,-0.01891078,0.00158525,
 0.11951408,-0.27710808,0.01548560,-0.00214739,0.00423558,-0.00009156,-
 0.00056755,0.00177979,0.00025834,-0.00092483,0.00024945,-0.00008025,-0
 .00396754,-0.00329169,0.00052029,0.00005832,0.00007100,-0.00007951,0.0
 0005784,0.00003007,0.00006739,-0.00009470,0.00000930,-0.00000488,-0.00
 017758,0.00101753,-0.00034816,0.00003782,0.00009795,0.00009299,0.00011
 864,0.00038458,-0.00008916,0.00023834,0.00021528,-0.00006470,-0.130407
 35,0.29245329,-0.00004874,0.00001703,-0.00028961,0.00051900,-0.0003811
 4,-0.00325282,-0.00031753,-0.00026138,-0.00000253,0.00066998,0.0025115
 4,0.00057361,-0.00008686,-0.00069267,-0.00017458,0.00024066,-0.0014724
 8,-0.00083964,-0.00103751,0.00162312,0.00366056,-0.00814541,0.01419347
 ,-0.03946174,-0.00014749,0.00072584,0.00390232,-0.00029650,0.00044151,
 0.00777049,-0.00004160,-0.00015216,-0.00076039,0.00035973,0.00059234,0
 .00642428,0.00003525,0.00007521,0.00001788,-0.00003850,-0.00006435,-0.
 00001302,-0.00000068,-0.00003284,0.00004746,-0.00165382,-0.00019119,-0
 .00049855,-0.00011041,-0.00009838,-0.00000712,0.00020888,0.00035829,-0
 .00003538,0.00031947,-0.00008669,-0.00022579,0.00955954,-0.01682364,0.
 02829951,-0.00047289,0.00020885,0.00000723,-0.00019777,-0.00140553,0.0
 0019696,0.00005818,-0.00006506,0.00007989,0.00013871,-0.00049716,-0.00
 043468,-0.00003490,0.00011339,0.00018353,0.00003605,0.00033020,0.00011
 019,-0.00537617,0.00111164,-0.00025761,-0.01078568,-0.02873465,0.00171
 620,-0.12901061,-0.12141272,0.00662296,0.01209882,0.01481297,-0.000839
 82,-0.00070991,0.00338240,-0.00036468,-0.00102213,0.00101342,-0.000065
 45,0.00001533,-0.00000693,0.00000996,0.00002254,-0.00000029,-0.0000171
 7,-0.00008288,-0.00016747,-0.00000534,-0.00000017,0.00001857,-0.000018
 61,0.00000189,0.00000347,-0.00001410,-0.00002992,0.00002471,-0.0000363
 1,-0.00003865,-0.00004347,-0.00000349,0.00105478,0.00032269,0.00006382
 ,0.13315776,-0.00001687,0.00004193,-0.00000395,0.00019483,0.00005517,0
 .00000784,-0.00006533,0.00000057,0.00002167,0.00001972,-0.00007453,-0.
 00015442,-0.00002138,0.00001020,0.00009645,-0.00001566,0.00005789,0.00
 004609,0.00059792,0.00191032,0.00039520,0.00210268,0.00371212,0.000007
 75,-0.12164038,-0.27307740,0.01372767,-0.01607435,-0.01797859,0.001170
 50,0.00398125,-0.00333541,0.00075767,0.00099125,0.00024679,-0.00004388
 ,0.00000683,-0.00000159,-0.00001019,0.00000798,-0.00000691,0.00000642,
 -0.00000627,-0.00000044,-0.00000560,0.00000372,-0.00000967,0.00001703,
 0.00000059,-0.00001292,0.00000057,-0.00002070,0.00000484,-0.00002062,-
 0.00000596,-0.00001413,-0.00001206,-0.00033875,0.00073617,-0.00033914,
 0.13093414,0.28783577,0.00001926,0.00004439,-0.00010673,0.00002139,-0.
 00009695,0.00020012,-0.00010033,0.00010151,-0.00005885,0.00006432,-0.0
 0000807,0.00005817,-0.00000831,0.00000091,-0.00005642,0.00006038,-0.00
 005853,-0.00008941,-0.00029105,0.00057744,0.00782007,-0.00048694,-0.00
 055490,0.00342752,0.00677232,0.01365210,-0.03897837,0.00116001,0.00169
 964,0.00317051,-0.00040423,0.00073047,0.00723223,0.00002247,-0.0001019
 2,-0.00066051,0.00001280,0.00002646,0.00000088,-0.00000777,-0.00004151
 ,-0.00001099,0.00000380,0.00000531,-0.00005907,-0.00004834,-0.00003110
 ,0.00000049,-0.00001372,-0.00001508,-0.00001405,0.00000092,-0.00002151
 ,-0.00001483,0.00005346,0.00001882,0.00002034,0.00005661,-0.00023861,-
 0.00430018,-0.00700905,-0.01535383,0.02731981,-0.00006674,-0.00000158,
 0.00001099,-0.00003250,-0.00004767,0.00002740,0.00000410,0.00004693,0.
 00000328,0.00009137,0.00005173,-0.00014696,-0.00003282,-0.00001842,0.0
 0009989,-0.00007332,0.00000962,0.00005145,0.00072833,0.00001368,0.0000
 2929,0.00057990,0.00314450,-0.00029264,-0.01101968,-0.00284562,0.00000
 386,-0.34421558,0.00047671,-0.00407094,-0.01123481,0.00286067,-0.00039
 363,0.00058588,-0.00316454,0.00012311,0.00001472,0.00000749,-0.0000374
 5,0.00001383,0.00000415,0.00002984,-0.00002678,0.00001676,-0.00000527,
 0.00001616,-0.00002395,0.00001542,0.00000051,-0.00001102,-0.00000029,-
 0.00001603,-0.00001684,-0.00000284,0.00000111,-0.00002578,-0.00001539,
 -0.00060120,-0.00021494,-0.00001465,0.00070919,0.00026163,0.00004535,0
 .36446527,-0.00003731,-0.00001656,0.00000778,0.00000383,0.00006443,-0.
 00005634,-0.00000500,-0.00001753,0.00001672,-0.00006176,-0.00021992,0.
 00005022,0.00001432,0.00009067,-0.00005465,0.00008413,0.00010863,-0.00
 002362,-0.00004057,-0.00162139,0.00006182,0.00252600,-0.00442463,0.000
 82385,0.02809997,0.00516992,0.00022790,0.00051243,-0.05987724,0.001558
 88,-0.02810346,0.00528234,-0.00053660,-0.00253486,-0.00436131,0.000825
 32,0.00001635,0.00002423,-0.00006012,0.00001713,0.00001261,0.00004503,
 -0.00002039,0.00005371,-0.00000684,-0.00002465,0.00005313,-0.00004019,
 0.00000457,0.00000564,0.00000980,0.00001573,0.00002943,-0.00000782,0.0
 0000357,0.00001906,0.00000620,0.00132783,0.00008763,0.00004686,-0.0006
 4626,0.00091311,-0.00032623,-0.00047282,0.05765000,-0.00000585,-0.0000
 0009,-0.00000575,0.00020866,-0.00016995,-0.00102314,-0.00010201,0.0000
 4105,0.00001687,0.00014469,0.00012553,0.00015812,-0.00002162,-0.000014
 42,-0.00012397,-0.00008435,-0.00008052,0.00000609,-0.00008769,-0.00000
 705,-0.00080124,-0.00027259,0.00085303,0.00737787,-0.00208761,-0.00016
 912,0.00292202,-0.00411245,0.00155140,-0.03775102,0.00173817,-0.000135
 01,0.00310979,0.00012581,0.00082149,0.00770390,-0.00000616,0.00000849,
 -0.00001169,0.00000069,-0.00001640,-0.00001545,0.00000451,-0.00001142,
 -0.00002072,0.00000019,0.00003369,-0.00000738,-0.00001893,-0.00001401,
 0.00002795,0.00001064,0.00006084,-0.00002616,0.00000886,-0.00000642,-0
 .00001222,-0.00012746,-0.00001385,0.00002879,0.00010718,-0.00030726,-0
 .00384281,0.00447839,-0.00220897,0.02624356,0.00009749,0.00011434,0.00
 001003,-0.00028366,0.00136373,0.00006757,-0.00030849,-0.00003913,0.000
 11516,-0.00008629,-0.00023392,-0.00064866,-0.00003656,-0.00002456,0.00
 031781,0.00002280,0.00016115,0.00010391,-0.00540603,-0.00092888,-0.000
 01730,-0.00098890,-0.00102094,0.00008618,-0.00074266,-0.00339348,0.000
 10427,0.01212684,-0.01503494,0.00118763,-0.12753655,0.12055385,-0.0097
 9989,-0.01061400,0.02870983,-0.00224003,-0.00000852,-0.00001584,0.0000
 2086,0.00000383,-0.00001704,-0.00003119,-0.00002538,-0.00004493,-0.000
 00531,0.00001094,0.00000703,0.00000298,0.00001866,-0.00000501,-0.00001
 753,-0.00005277,0.00005484,-0.00011254,0.00001480,-0.00001142,-0.00000
 450,0.00006465,0.00010844,0.00001018,0.00041723,-0.00081992,0.00005224
 ,0.00072076,0.00063996,0.00002896,0.13155658,0.00005218,-0.00003687,-0
 .00001664,-0.00023744,0.00005237,0.00001733,0.00004240,0.00000418,-0.0
 0002848,-0.00002377,0.00000027,0.00012959,0.00002537,0.00000444,-0.000
 09740,0.00002714,0.00000133,-0.00003461,-0.00055074,0.00194869,0.00040
 561,-0.00096407,0.00023988,-0.00008601,-0.00401156,-0.00325899,0.00071
 607,0.01588650,-0.01810794,0.00173919,0.12077489,-0.27425739,0.0183516
 2,-0.00216777,0.00355585,-0.00006207,-0.00000309,-0.00000437,0.0000212
 9,-0.00001233,-0.00000529,-0.00001002,0.00001818,0.00000141,0.00000419
 ,-0.00000884,0.00000138,-0.00000097,-0.00000494,0.00000509,-0.00000294
 ,0.00001300,-0.00000939,0.00001264,-0.00000739,0.00000430,0.00000533,0
 .00008093,-0.00001562,-0.00007953,0.00080951,-0.00099528,0.00007994,-0
 .00025479,0.00090640,-0.00035612,-0.12982852,0.28921927,0.00000652,-0.
 00000703,-0.00011079,-0.00007553,0.00001472,0.00003506,0.00009404,0.00
 000711,0.00007849,-0.00001206,-0.00010446,0.00002158,-0.00001168,0.000
 00010,-0.00002933,-0.00000558,0.00009373,-0.00000573,-0.00008326,0.000
 26774,0.00737771,0.00010258,-0.00004110,-0.00080422,0.00015973,0.00073
 615,0.00749119,-0.00105317,0.00126093,0.00332267,-0.00975783,0.0185271
 9,-0.03921249,-0.00014585,0.00028603,0.00317383,0.00005139,-0.00001035
 ,0.00003176,-0.00005595,-0.00001422,0.00002934,0.00000313,0.00000696,0
 .00003172,0.00000077,0.00000996,-0.00002543,-0.00001007,0.00000412,-0.
 00001289,0.00003758,0.00001834,0.00002920,0.00001404,-0.00001260,-0.00
 000900,-0.00000048,-0.00005582,-0.00115843,-0.00005701,0.00007056,0.00
 010792,0.00009122,-0.00034431,-0.00405098,0.01067770,-0.02036183,0.027
 73113,-0.00370555,0.00128626,-0.00027811,0.00047950,-0.00052047,0.0000
 8361,-0.00002005,-0.00021527,-0.00016181,0.00003228,0.00034662,0.00020
 466,0.00000448,-0.00026148,-0.00009521,-0.00003397,-0.00037443,-0.0001
 2893,0.01228661,0.01241507,-0.00086225,-0.00107029,0.00360705,-0.00029
 863,-0.00094623,0.00097492,-0.00009340,-0.00556490,0.00091067,-0.00022
 516,-0.01089231,-0.02866120,0.00198790,-0.12407220,-0.12141272,0.00777
 208,-0.00239405,0.00017254,0.00033330,-0.00126705,0.00005734,-0.000319
 18,0.00008793,0.00029788,0.00007794,0.00005436,-0.00010596,0.00009005,
 0.00002642,0.00003489,-0.00001928,0.00000639,0.00003838,0.00000596,0.0
 0001528,-0.00000020,0.00000814,0.00054045,0.00088032,-0.00004681,0.000
 05124,-0.00007697,0.00002442,-0.00061168,-0.00131873,0.00006998,0.0010
 3525,0.00034517,0.00002975,0.13595811,-0.00133095,0.00019964,0.0001258
 2,-0.00184301,-0.00042661,-0.00037024,0.00005329,0.00010247,-0.0000387
 9,-0.00007487,-0.00067281,0.00041243,0.00005419,0.00035213,-0.00024474
 ,0.00010958,0.00038115,-0.00000869,-0.01413010,-0.01884793,0.00146908,
 0.00386107,-0.00334613,0.00074129,0.00096002,0.00021535,-0.00003400,0.
 00050106,0.00185419,0.00043706,0.00205092,0.00389099,-0.00005445,-0.12
 023194,-0.27911671,0.01670386,-0.00010518,0.00056741,-0.00060647,-0.00
 003893,0.00027542,0.00043785,-0.00033479,0.00070220,-0.00010482,-0.000
 05015,0.00009979,-0.00006911,-0.00000526,-0.00003664,0.00004178,0.0000
 9481,0.00000198,0.00001947,-0.00003244,-0.00001037,-0.00000161,-0.0008
 9072,-0.00095876,0.00009038,-0.00010642,-0.00001800,-0.00008874,0.0002
 0409,0.00006764,0.00001508,-0.00029463,0.00074628,-0.00035191,0.131580
 32,0.29397736,-0.00014223,0.00010172,0.00059731,0.00073457,-0.00039531
 ,-0.00392782,-0.00078649,0.00019522,0.00015885,0.00059359,-0.00023837,
 0.00079368,-0.00011898,0.00017774,-0.00050422,0.00002071,-0.00001139,-
 0.00020301,0.00079146,0.00173198,0.00369844,-0.00040985,0.00075892,0.0
 0645361,-0.00007054,-0.00007041,-0.00067628,-0.00019521,0.00040539,0.0
 0749789,-0.00039411,-0.00038729,0.00347814,0.00787453,0.01655157,-0.03
 893634,0.00113803,-0.00010036,-0.00002396,-0.00107590,0.00006968,-0.00
 048433,0.00008140,-0.00007216,-0.00038359,-0.00000241,-0.00000515,-0.0
 0001242,-0.00003675,0.00002587,0.00000032,-0.00002840,0.00013550,-0.00
 016633,-0.00001070,-0.00003441,-0.00000198,0.00010885,0.00011710,0.000
 29488,0.00002540,-0.00007447,-0.00116584,-0.00002942,-0.00001468,0.000
 09756,0.00009145,-0.00034618,-0.00404230,-0.00815902,-0.01852052,0.027
 45772\\-0.00000045,0.00000398,-0.00000967,-0.00001542,-0.00000608,-0.0
 0001026,0.00000476,-0.00001284,-0.00000076,0.00002260,-0.00002387,0.00
 001256,0.00000128,0.00001503,-0.00001949,-0.00001345,0.00001426,0.0000
 1878,0.00000351,-0.00000653,0.00001795,-0.00000878,-0.00000048,-0.0000
 0870,0.00000194,0.00000813,0.00000278,0.00000444,-0.00000553,0.0000027
 5,0.00001126,0.00000318,-0.00000288,-0.00001121,0.00000235,0.00000503,
 0.00000324,-0.00000122,0.00000294,0.00000421,0.00000407,0.00000487,0.0
 0000130,-0.00000170,0.00000438,-0.00000187,-0.00000123,-0.00000525,-0.
 00000283,-0.00000149,0.00000030,-0.00000103,0.00000027,-0.00000091,0.0
 0000227,-0.00000084,-0.00001073,-0.00000267,0.00000148,-0.00000233,-0.
 00000105,0.00000076,-0.00000340,-0.00000164,0.00000560,-0.00000056,-0.
 00000163,0.00000209,0.00000375,0.00000120,0.00000062,-0.00000115\\\@
 The archive entry for this job was punched.


 ERWIN WITH HIS PSI CAN DO
 CALCULATIONS QUITE A FEW.
 BUT ONE THING HAS NOT BEEN SEEN
 JUST WHAT DOES PSI REALLY MEAN.
 -- WALTER HUCKEL, TRANS. BY FELIX BLOCH
 Job cpu time:       0 days  4 hours 17 minutes 21.1 seconds.
 Elapsed time:       0 days  0 hours 32 minutes 25.6 seconds.
 File lengths (MBytes):  RWF=    384 Int=      0 D2E=      0 Chk=     17 Scr=      1
 Normal termination of Gaussian 16 at Mon Jan 29 10:40:11 2024.
