Job Start Time: Mon Jan 29 09:34:00 MST 2024
SLURM Job ID: 229523
SLURM Job Name: Ac7_rdkit_conf_3
 Entering Gaussian System, Link 0=/opt/apps/Gaussian/G16C/g16/g16
 Initial command:
 /opt/apps/Gaussian/G16C/g16/l1.exe "/tmp/Gau-1951321.inp" -scrdir="/tmp/"
 Entering Link 1 = /opt/apps/Gaussian/G16C/g16/l1.exe PID=   1951322.
  
 Copyright (c) 1988-2019, Gaussian, Inc.  All Rights Reserved.
  
 This is part of the Gaussian(R) 16 program.  It is based on
 the Gaussian(R) 09 system (copyright 2009, Gaussian, Inc.),
 the Gaussian(R) 03 system (copyright 2003, Gaussian, Inc.),
 the Gaussian(R) 98 system (copyright 1998, Gaussian, Inc.),
 the Gaussian(R) 94 system (copyright 1995, Gaussian, Inc.),
 the Gaussian 92(TM) system (copyright 1992, Gaussian, Inc.),
 the Gaussian 90(TM) system (copyright 1990, Gaussian, Inc.),
 the Gaussian 88(TM) system (copyright 1988, Gaussian, Inc.),
 the Gaussian 86(TM) system (copyright 1986, Carnegie Mellon
 University), and the Gaussian 82(TM) system (copyright 1983,
 Carnegie Mellon University). Gaussian is a federally registered
 trademark of Gaussian, Inc.
  
 This software contains proprietary and confidential information,
 including trade secrets, belonging to Gaussian, Inc.
  
 This software is provided under written license and may be
 used, copied, transmitted, or stored only in accord with that
 written license.
  
 The following legend is applicable only to US Government
 contracts under FAR:
  
                    RESTRICTED RIGHTS LEGEND
  
 Use, reproduction and disclosure by the US Government is
 subject to restrictions as set forth in subparagraphs (a)
 and (c) of the Commercial Computer Software - Restricted
 Rights clause in FAR 52.227-19.
  
 Gaussian, Inc.
 340 Quinnipiac St., Bldg. 40, Wallingford CT 06492
  
  
 ---------------------------------------------------------------
 Warning -- This program may not be used in any manner that
 competes with the business of Gaussian, Inc. or will provide
 assistance to any competitor of Gaussian, Inc.  The licensee
 of this program is prohibited from giving any competitor of
 Gaussian, Inc. access to this program.  By using this program,
 the user acknowledges that Gaussian, Inc. is engaged in the
 business of creating and licensing software in the field of
 computational chemistry and represents and warrants to the
 licensee that it is not a competitor of Gaussian, Inc. and that
 it will not use this program in any manner prohibited above.
 ---------------------------------------------------------------
  

 Cite this work as:
 Gaussian 16, Revision C.01,
 M. J. Frisch, G. W. Trucks, H. B. Schlegel, G. E. Scuseria, 
 M. A. Robb, J. R. Cheeseman, G. Scalmani, V. Barone, 
 G. A. Petersson, H. Nakatsuji, X. Li, M. Caricato, A. V. Marenich, 
 J. Bloino, B. G. Janesko, R. Gomperts, B. Mennucci, H. P. Hratchian, 
 J. V. Ortiz, A. F. Izmaylov, J. L. Sonnenberg, D. Williams-Young, 
 F. Ding, F. Lipparini, F. Egidi, J. Goings, B. Peng, A. Petrone, 
 T. Henderson, D. Ranasinghe, V. G. Zakrzewski, J. Gao, N. Rega, 
 G. Zheng, W. Liang, M. Hada, M. Ehara, K. Toyota, R. Fukuda, 
 J. Hasegawa, M. Ishida, T. Nakajima, Y. Honda, O. Kitao, H. Nakai, 
 T. Vreven, K. Throssell, J. A. Montgomery, Jr., J. E. Peralta, 
 F. Ogliaro, M. J. Bearpark, J. J. Heyd, E. N. Brothers, K. N. Kudin, 
 V. N. Staroverov, T. A. Keith, R. Kobayashi, J. Normand, 
 K. Raghavachari, A. P. Rendell, J. C. Burant, S. S. Iyengar, 
 J. Tomasi, M. Cossi, J. M. Millam, M. Klene, C. Adamo, R. Cammi, 
 J. W. Ochterski, R. L. Martin, K. Morokuma, O. Farkas, 
 J. B. Foresman, and D. J. Fox, Gaussian, Inc., Wallingford CT, 2019.
 
 ******************************************
 Gaussian 16:  AS64L-G16RevC.01  3-Jul-2019
                29-Jan-2024 
 ******************************************
 %nprocshared=8
 Will use up to    8 processors via shared memory.
 %mem=16GB
 ---------------------------------
 # m062x/def2tzvp opt freq=noraman
 ---------------------------------
 1/18=20,19=15,26=3,38=1/1,3;
 2/9=110,12=2,17=6,18=5,40=1/2;
 3/5=44,7=101,11=2,25=1,30=1,71=1,74=-55/1,2,3;
 4//1;
 5/5=2,38=5/2;
 6/7=2,8=2,9=2,10=2,28=1/1;
 7//1,2,3,16;
 1/18=20,19=15,26=3/3(2);
 2/9=110/2;
 99//99;
 2/9=110/2;
 3/5=44,7=101,11=2,25=1,30=1,71=1,74=-55/1,2,3;
 4/5=5,16=3,69=1/1;
 5/5=2,38=5/2;
 7//1,2,3,16;
 1/18=20,19=15,26=3/3(-5);
 2/9=110/2;
 6/7=2,8=2,9=2,10=2,19=2,28=1/1;
 99/9=1/99;
 ----------------
 Ac7_rdkit_conf_3
 ----------------
 Symbolic Z-matrix:
 Charge =  0 Multiplicity = 1
 O                     3.0579   -0.1435   -1.4799 
 C                     2.2881    0.1      -0.5648 
 O                     2.7479    0.6064    0.5941 
 C                     0.7938   -0.1153   -0.5883 
 C                     0.3699   -1.1363    0.4719 
 C                    -1.1435   -1.3394    0.4764 
 C                    -1.8885   -0.0169    0.6378 
 C                    -1.4666    1.0013   -0.4183 
 C                     0.0458    1.2114   -0.4255 
 H                     3.7144    0.6851    0.4508 
 H                     0.5528   -0.5269   -1.5781 
 H                     0.8695   -2.0955    0.2893 
 H                     0.6903   -0.8063    1.4684 
 H                    -1.4215   -2.0207    1.2884 
 H                    -1.4498   -1.8185   -0.4617 
 H                    -1.6925    0.392     1.6368 
 H                    -2.9681   -0.1917    0.5704 
 H                    -1.9705    1.9563   -0.2317 
 H                    -1.7915    0.6565   -1.4077 
 H                     0.3183    1.8973   -1.2368 
 H                     0.3437    1.7047    0.5086 
 

 GradGradGradGradGradGradGradGradGradGradGradGradGradGradGradGradGradGrad
 Berny optimization.
 Initialization pass.
                           ----------------------------
                           !    Initial Parameters    !
                           ! (Angstroms and Degrees)  !
 --------------------------                            --------------------------
 ! Name  Definition              Value          Derivative Info.                !
 --------------------------------------------------------------------------------
 ! R1    R(1,2)                  1.2204         estimate D2E/DX2                !
 ! R2    R(2,3)                  1.3457         estimate D2E/DX2                !
 ! R3    R(2,4)                  1.5099         estimate D2E/DX2                !
 ! R4    R(3,10)                 0.9802         estimate D2E/DX2                !
 ! R5    R(4,5)                  1.5317         estimate D2E/DX2                !
 ! R6    R(4,9)                  1.5317         estimate D2E/DX2                !
 ! R7    R(4,11)                 1.0987         estimate D2E/DX2                !
 ! R8    R(5,6)                  1.527          estimate D2E/DX2                !
 ! R9    R(5,12)                 1.0968         estimate D2E/DX2                !
 ! R10   R(5,13)                 1.0975         estimate D2E/DX2                !
 ! R11   R(6,7)                  1.5265         estimate D2E/DX2                !
 ! R12   R(6,14)                 1.0958         estimate D2E/DX2                !
 ! R13   R(6,15)                 1.097          estimate D2E/DX2                !
 ! R14   R(7,8)                  1.5265         estimate D2E/DX2                !
 ! R15   R(7,16)                 1.0971         estimate D2E/DX2                !
 ! R16   R(7,17)                 1.0957         estimate D2E/DX2                !
 ! R17   R(8,9)                  1.5269         estimate D2E/DX2                !
 ! R18   R(8,18)                 1.0958         estimate D2E/DX2                !
 ! R19   R(8,19)                 1.097          estimate D2E/DX2                !
 ! R20   R(9,20)                 1.0968         estimate D2E/DX2                !
 ! R21   R(9,21)                 1.0976         estimate D2E/DX2                !
 ! A1    A(1,2,3)              120.3528         estimate D2E/DX2                !
 ! A2    A(1,2,4)              125.743          estimate D2E/DX2                !
 ! A3    A(3,2,4)              113.9043         estimate D2E/DX2                !
 ! A4    A(2,3,10)             103.958          estimate D2E/DX2                !
 ! A5    A(2,4,5)              110.9873         estimate D2E/DX2                !
 ! A6    A(2,4,9)              110.9856         estimate D2E/DX2                !
 ! A7    A(2,4,11)             106.5298         estimate D2E/DX2                !
 ! A8    A(5,4,9)              111.6317         estimate D2E/DX2                !
 ! A9    A(5,4,11)             108.2481         estimate D2E/DX2                !
 ! A10   A(9,4,11)             108.2467         estimate D2E/DX2                !
 ! A11   A(4,5,6)              111.4068         estimate D2E/DX2                !
 ! A12   A(4,5,12)             109.9772         estimate D2E/DX2                !
 ! A13   A(4,5,13)             110.3184         estimate D2E/DX2                !
 ! A14   A(6,5,12)             109.6103         estimate D2E/DX2                !
 ! A15   A(6,5,13)             109.0656         estimate D2E/DX2                !
 ! A16   A(12,5,13)            106.3279         estimate D2E/DX2                !
 ! A17   A(5,6,7)              111.6413         estimate D2E/DX2                !
 ! A18   A(5,6,14)             109.6527         estimate D2E/DX2                !
 ! A19   A(5,6,15)             109.4088         estimate D2E/DX2                !
 ! A20   A(7,6,14)             109.6633         estimate D2E/DX2                !
 ! A21   A(7,6,15)             109.4224         estimate D2E/DX2                !
 ! A22   A(14,6,15)            106.9361         estimate D2E/DX2                !
 ! A23   A(6,7,8)              111.7069         estimate D2E/DX2                !
 ! A24   A(6,7,16)             109.3901         estimate D2E/DX2                !
 ! A25   A(6,7,17)             109.6428         estimate D2E/DX2                !
 ! A26   A(8,7,16)             109.3909         estimate D2E/DX2                !
 ! A27   A(8,7,17)             109.644          estimate D2E/DX2                !
 ! A28   A(16,7,17)            106.9473         estimate D2E/DX2                !
 ! A29   A(7,8,9)              111.6418         estimate D2E/DX2                !
 ! A30   A(7,8,18)             109.6587         estimate D2E/DX2                !
 ! A31   A(7,8,19)             109.4201         estimate D2E/DX2                !
 ! A32   A(9,8,18)             109.6551         estimate D2E/DX2                !
 ! A33   A(9,8,19)             109.4117         estimate D2E/DX2                !
 ! A34   A(18,8,19)            106.9373         estimate D2E/DX2                !
 ! A35   A(4,9,8)              111.4085         estimate D2E/DX2                !
 ! A36   A(4,9,20)             109.9818         estimate D2E/DX2                !
 ! A37   A(4,9,21)             110.3166         estimate D2E/DX2                !
 ! A38   A(8,9,20)             109.6106         estimate D2E/DX2                !
 ! A39   A(8,9,21)             109.0665         estimate D2E/DX2                !
 ! A40   A(20,9,21)            106.322          estimate D2E/DX2                !
 ! D1    D(1,2,3,10)             0.0037         estimate D2E/DX2                !
 ! D2    D(4,2,3,10)          -179.9988         estimate D2E/DX2                !
 ! D3    D(1,2,4,5)            117.6246         estimate D2E/DX2                !
 ! D4    D(1,2,4,9)           -117.6234         estimate D2E/DX2                !
 ! D5    D(1,2,4,11)            -0.0007         estimate D2E/DX2                !
 ! D6    D(3,2,4,5)            -62.3728         estimate D2E/DX2                !
 ! D7    D(3,2,4,9)             62.3792         estimate D2E/DX2                !
 ! D8    D(3,2,4,11)          -179.9981         estimate D2E/DX2                !
 ! D9    D(2,4,5,6)            178.7973         estimate D2E/DX2                !
 ! D10   D(2,4,5,12)           -59.4615         estimate D2E/DX2                !
 ! D11   D(2,4,5,13)            57.5123         estimate D2E/DX2                !
 ! D12   D(9,4,5,6)             54.4111         estimate D2E/DX2                !
 ! D13   D(9,4,5,12)           176.1523         estimate D2E/DX2                !
 ! D14   D(9,4,5,13)           -66.8739         estimate D2E/DX2                !
 ! D15   D(11,4,5,6)           -64.629          estimate D2E/DX2                !
 ! D16   D(11,4,5,12)           57.1122         estimate D2E/DX2                !
 ! D17   D(11,4,5,13)          174.086          estimate D2E/DX2                !
 ! D18   D(2,4,9,8)           -178.7983         estimate D2E/DX2                !
 ! D19   D(2,4,9,20)            59.456          estimate D2E/DX2                !
 ! D20   D(2,4,9,21)           -57.5122         estimate D2E/DX2                !
 ! D21   D(5,4,9,8)            -54.4111         estimate D2E/DX2                !
 ! D22   D(5,4,9,20)          -176.1568         estimate D2E/DX2                !
 ! D23   D(5,4,9,21)            66.8749         estimate D2E/DX2                !
 ! D24   D(11,4,9,8)            64.6299         estimate D2E/DX2                !
 ! D25   D(11,4,9,20)          -57.1159         estimate D2E/DX2                !
 ! D26   D(11,4,9,21)         -174.0841         estimate D2E/DX2                !
 ! D27   D(4,5,6,7)            -54.3922         estimate D2E/DX2                !
 ! D28   D(4,5,6,14)          -176.134          estimate D2E/DX2                !
 ! D29   D(4,5,6,15)            66.8793         estimate D2E/DX2                !
 ! D30   D(12,5,6,7)          -176.3459         estimate D2E/DX2                !
 ! D31   D(12,5,6,14)           61.9123         estimate D2E/DX2                !
 ! D32   D(12,5,6,15)          -55.0745         estimate D2E/DX2                !
 ! D33   D(13,5,6,7)            67.6203         estimate D2E/DX2                !
 ! D34   D(13,5,6,14)          -54.1215         estimate D2E/DX2                !
 ! D35   D(13,5,6,15)         -171.1083         estimate D2E/DX2                !
 ! D36   D(5,6,7,8)             54.5324         estimate D2E/DX2                !
 ! D37   D(5,6,7,16)           -66.7295         estimate D2E/DX2                !
 ! D38   D(5,6,7,17)           176.2867         estimate D2E/DX2                !
 ! D39   D(14,6,7,8)           176.2682         estimate D2E/DX2                !
 ! D40   D(14,6,7,16)           55.0062         estimate D2E/DX2                !
 ! D41   D(14,6,7,17)          -61.9776         estimate D2E/DX2                !
 ! D42   D(15,6,7,8)           -66.7311         estimate D2E/DX2                !
 ! D43   D(15,6,7,16)          172.007          estimate D2E/DX2                !
 ! D44   D(15,6,7,17)           55.0232         estimate D2E/DX2                !
 ! D45   D(6,7,8,9)            -54.5317         estimate D2E/DX2                !
 ! D46   D(6,7,8,18)          -176.2677         estimate D2E/DX2                !
 ! D47   D(6,7,8,19)            66.7341         estimate D2E/DX2                !
 ! D48   D(16,7,8,9)            66.7298         estimate D2E/DX2                !
 ! D49   D(16,7,8,18)          -55.0062         estimate D2E/DX2                !
 ! D50   D(16,7,8,19)         -172.0044         estimate D2E/DX2                !
 ! D51   D(17,7,8,9)          -176.2853         estimate D2E/DX2                !
 ! D52   D(17,7,8,18)           61.9787         estimate D2E/DX2                !
 ! D53   D(17,7,8,19)          -55.0195         estimate D2E/DX2                !
 ! D54   D(7,8,9,4)             54.391          estimate D2E/DX2                !
 ! D55   D(7,8,9,20)           176.3518         estimate D2E/DX2                !
 ! D56   D(7,8,9,21)           -67.6208         estimate D2E/DX2                !
 ! D57   D(18,8,9,4)           176.1291         estimate D2E/DX2                !
 ! D58   D(18,8,9,20)          -61.9102         estimate D2E/DX2                !
 ! D59   D(18,8,9,21)           54.1173         estimate D2E/DX2                !
 ! D60   D(19,8,9,4)           -66.8797         estimate D2E/DX2                !
 ! D61   D(19,8,9,20)           55.0811         estimate D2E/DX2                !
 ! D62   D(19,8,9,21)          171.1085         estimate D2E/DX2                !
 --------------------------------------------------------------------------------
 Trust Radius=3.00D-01 FncErr=1.00D-07 GrdErr=1.00D-06 EigMax=2.50D+02 EigMin=1.00D-04
 Number of steps in this run=    126 maximum allowed number of steps=    126.
 GradGradGradGradGradGradGradGradGradGradGradGradGradGradGradGradGradGrad

                          Input orientation:                          
 ---------------------------------------------------------------------
 Center     Atomic      Atomic             Coordinates (Angstroms)
 Number     Number       Type             X           Y           Z
 ---------------------------------------------------------------------
      1          8           0        3.057900   -0.143500   -1.479900
      2          6           0        2.288100    0.100000   -0.564800
      3          8           0        2.747900    0.606400    0.594100
      4          6           0        0.793800   -0.115300   -0.588300
      5          6           0        0.369900   -1.136300    0.471900
      6          6           0       -1.143500   -1.339400    0.476400
      7          6           0       -1.888500   -0.016900    0.637800
      8          6           0       -1.466600    1.001300   -0.418300
      9          6           0        0.045800    1.211400   -0.425500
     10          1           0        3.714400    0.685100    0.450800
     11          1           0        0.552800   -0.526900   -1.578100
     12          1           0        0.869500   -2.095500    0.289300
     13          1           0        0.690300   -0.806300    1.468400
     14          1           0       -1.421500   -2.020700    1.288400
     15          1           0       -1.449800   -1.818500   -0.461700
     16          1           0       -1.692500    0.392000    1.636800
     17          1           0       -2.968100   -0.191700    0.570400
     18          1           0       -1.970500    1.956300   -0.231700
     19          1           0       -1.791500    0.656500   -1.407700
     20          1           0        0.318300    1.897300   -1.236800
     21          1           0        0.343700    1.704700    0.508600
 ---------------------------------------------------------------------
                    Distance matrix (angstroms):
                    1          2          3          4          5
     1  O    0.000000
     2  C    1.220366   0.000000
     3  O    2.227089   1.345699   0.000000
     4  C    2.433494   1.509914   2.395293   0.000000
     5  C    3.467062   2.506527   2.950732   1.531717   0.000000
     6  C    4.786340   3.864175   4.352354   2.526883   1.526974
     7  C    5.382151   4.347862   4.678314   2.950888   2.526054
     8  C    4.786299   3.864140   4.352345   2.526876   2.955422
     9  C    3.467025   2.506496   2.950755   1.531712   2.534179
    10  H    2.201175   1.846109   0.980230   3.201605   3.808362
    11  H    2.536171   2.105005   3.289572   1.098726   2.146467
    12  H    3.424831   2.749933   3.304777   2.167280   1.096817
    13  H    3.838920   2.740118   2.644587   2.172144   1.097528
    14  H    5.590384   4.657558   4.976706   3.472766   2.158228
    15  H    4.915457   4.202757   4.961405   2.819691   2.155995
    16  H    5.706740   4.558232   4.566218   3.374924   2.818898
    17  H    6.365432   5.385295   5.771497   3.937044   3.470478
    18  H    5.590346   4.657519   4.976693   3.472757   3.941662
    19  H    4.915475   4.202774   4.961438   2.819728   3.379153
    20  H    3.424817   2.749906   3.304780   2.167305   3.482104
    21  H    3.838861   2.740062   2.644570   2.172137   2.841358
                    6          7          8          9         10
     6  C    0.000000
     7  C    1.526460   0.000000
     8  C    2.526610   1.526459   0.000000
     9  C    2.955408   2.526033   1.526941   0.000000
    10  H    5.262932   5.649802   5.262896   3.808349   0.000000
    11  H    2.785419   3.336204   2.785410   2.146444   3.947289
    12  H    2.158440   3.471108   3.943125   3.482098   3.981366
    13  H    2.151995   2.821925   3.388107   2.841364   3.522068
    14  H    1.095809   2.157912   3.470928   3.941687   5.865185
    15  H    1.096990   2.155718   2.820184   3.379116   5.811164
    16  H    2.155383   1.097094   2.155392   2.818898   5.543200
    17  H    2.157595   1.095734   2.157610   3.470461   6.740837
    18  H    3.470875   2.157840   1.095792   2.158217   5.865138
    19  H    2.820169   2.155678   1.096977   2.155992   5.811177
    20  H    3.943113   3.471059   2.158385   1.096778   3.981321
    21  H    3.388118   2.821935   2.151999   1.097557   3.522008
                   11         12         13         14         15
    11  H    0.000000
    12  H    2.459266   0.000000
    13  H    3.062374   1.756253   0.000000
    14  H    3.787627   2.500495   2.442717   0.000000
    15  H    2.631537   2.453545   3.054482   1.761969   0.000000
    16  H    4.027571   3.816708   2.672455   2.452742   3.057600
    17  H    4.138254   4.293093   3.816809   2.500547   2.452946
    18  H    3.787627   4.975352   4.195492   4.292858   3.817479
    19  H    2.631580   4.187390   4.070757   3.817493   2.671573
    20  H    2.459313   4.309902   3.842648   4.975366   4.187377
    21  H    3.062365   3.842666   2.710437   4.195548   4.070757
                   16         17         18         19         20
    16  H    0.000000
    17  H    1.762121   0.000000
    18  H    2.452674   2.500495   0.000000
    19  H    3.057571   2.452898   1.761958   0.000000
    20  H    3.816651   4.293055   2.500462   2.453579   0.000000
    21  H    2.672476   3.816827   2.442717   3.054506   1.756178
                   21
    21  H    0.000000
 Stoichiometry    C7H12O2
 Framework group  C1[X(C7H12O2)]
 Deg. of freedom    57
 Full point group                 C1      NOp   1
 Largest Abelian subgroup         C1      NOp   1
 Largest concise Abelian subgroup C1      NOp   1
                         Standard orientation:                         
 ---------------------------------------------------------------------
 Center     Atomic      Atomic             Coordinates (Angstroms)
 Number     Number       Type             X           Y           Z
 ---------------------------------------------------------------------
      1          8           0       -2.739836   -0.000033   -0.934471
      2          6           0       -1.831955   -0.000013   -0.118968
      3          8           0       -2.102060    0.000044    1.199345
      4          6           0       -0.356843    0.000010   -0.441279
      5          6           0        0.320641    1.267101    0.089431
      6          6           0        1.818855    1.263294   -0.205507
      7          6           0        2.493405   -0.000015    0.322806
      8          6           0        1.818820   -1.263316   -0.205479
      9          6           0        0.320634   -1.267078    0.089432
     10          1           0       -3.081445   -0.000000    1.240035
     11          1           0       -0.276289   -0.000007   -1.537048
     12          1           0       -0.140733    2.154951   -0.359862
     13          1           0        0.168750    1.355240    1.172819
     14          1           0        2.285439    2.146450    0.245196
     15          1           0        1.977364    1.335766   -1.288563
     16          1           0        2.458854    0.000006    1.419356
     17          1           0        3.551094   -0.000020    0.036575
     18          1           0        2.285421   -2.146409    0.245288
     19          1           0        1.977394   -1.335806   -1.288511
     20          1           0       -0.140725   -2.154951   -0.359737
     21          1           0        0.168704   -1.355197    1.172845
 ---------------------------------------------------------------------
 Rotational constants (GHZ):           3.2158788           1.0326476           0.9396972
 Standard basis: def2TZVP (5D, 7F)
 There are   396 symmetry adapted cartesian basis functions of A   symmetry.
 There are   351 symmetry adapted basis functions of A   symmetry.
   351 basis functions,   555 primitive gaussians,   396 cartesian basis functions
    35 alpha electrons       35 beta electrons
       nuclear repulsion energy       475.0871430149 Hartrees.
 NAtoms=   21 NActive=   21 NUniq=   21 SFac= 1.00D+00 NAtFMM=   60 NAOKFM=F Big=F
 Integral buffers will be    131072 words long.
 Raffenetti 2 integral format.
 Two-electron integral symmetry is turned on.
 One-electron integrals computed using PRISM.
   1 Symmetry operations used in ECPInt.
 ECPInt:  NShTT=   10878 NPrTT=   32112 LenC2=   10589 LenP2D=   24988.
 LDataN:  DoStor=T MaxTD1= 6 Len=  172
 NBasis=   351 RedAO= T EigKep=  8.21D-05  NBF=   351
 NBsUse=   351 1.00D-06 EigRej= -1.00D+00 NBFU=   351
 ExpMin= 9.52D-02 ExpMax= 2.70D+04 ExpMxC= 9.22D+02 IAcc=3 IRadAn=         5 AccDes= 0.00D+00
 Harris functional with IExCor= 1009 and IRadAn=       5 diagonalized for initial guess.
 HarFok:  IExCor= 1009 AccDes= 0.00D+00 IRadAn=         5 IDoV= 1 UseB2=F ITyADJ=14
 ICtDFT=  3500011 ScaDFX=  1.000000  1.000000  1.000000  1.000000
 FoFCou: FMM=F IPFlag=           0 FMFlag=      100000 FMFlg1=           0
         NFxFlg=           0 DoJE=T BraDBF=F KetDBF=T FulRan=T
         wScrn=  0.000000 ICntrl=       500 IOpCl=  0 I1Cent=   200000004 NGrid=           0
         NMat0=    1 NMatS0=      1 NMatT0=    0 NMatD0=    1 NMtDS0=    0 NMtDT0=    0
 Petite list used in FoFCou.
 Requested convergence on RMS density matrix=1.00D-08 within 128 cycles.
 Requested convergence on MAX density matrix=1.00D-06.
 Requested convergence on             energy=1.00D-06.
 No special actions if energy rises.
 Integral accuracy reduced to 1.0D-05 until final iterations.
 Initial convergence to 1.0D-05 achieved.  Increase integral accuracy.
 SCF Done:  E(RM062X) =  -424.429266795     A.U. after   15 cycles
            NFock= 15  Conv=0.24D-08     -V/T= 2.0051

 **********************************************************************

            Population analysis using the SCF Density.

 **********************************************************************

 Orbital symmetries:
       Occupied  (A) (A) (A) (A) (A) (A) (A) (A) (A) (A) (A) (A)
                 (A) (A) (A) (A) (A) (A) (A) (A) (A) (A) (A) (A)
                 (A) (A) (A) (A) (A) (A) (A) (A) (A) (A) (A)
       Virtual   (A) (A) (A) (A) (A) (A) (A) (A) (A) (A) (A) (A)
                 (A) (A) (A) (A) (A) (A) (A) (A) (A) (A) (A) (A)
                 (A) (A) (A) (A) (A) (A) (A) (A) (A) (A) (A) (A)
                 (A) (A) (A) (A) (A) (A) (A) (A) (A) (A) (A) (A)
                 (A) (A) (A) (A) (A) (A) (A) (A) (A) (A) (A) (A)
                 (A) (A) (A) (A) (A) (A) (A) (A) (A) (A) (A) (A)
                 (A) (A) (A) (A) (A) (A) (A) (A) (A) (A) (A) (A)
                 (A) (A) (A) (A) (A) (A) (A) (A) (A) (A) (A) (A)
                 (A) (A) (A) (A) (A) (A) (A) (A) (A) (A) (A) (A)
                 (A) (A) (A) (A) (A) (A) (A) (A) (A) (A) (A) (A)
                 (A) (A) (A) (A) (A) (A) (A) (A) (A) (A) (A) (A)
                 (A) (A) (A) (A) (A) (A) (A) (A) (A) (A) (A) (A)
                 (A) (A) (A) (A) (A) (A) (A) (A) (A) (A) (A) (A)
                 (A) (A) (A) (A) (A) (A) (A) (A) (A) (A) (A) (A)
                 (A) (A) (A) (A) (A) (A) (A) (A) (A) (A) (A) (A)
                 (A) (A) (A) (A) (A) (A) (A) (A) (A) (A) (A) (A)
                 (A) (A) (A) (A) (A) (A) (A) (A) (A) (A) (A) (A)
                 (A) (A) (A) (A) (A) (A) (A) (A) (A) (A) (A) (A)
                 (A) (A) (A) (A) (A) (A) (A) (A) (A) (A) (A) (A)
                 (A) (A) (A) (A) (A) (A) (A) (A) (A) (A) (A) (A)
                 (A) (A) (A) (A) (A) (A) (A) (A) (A) (A) (A) (A)
                 (A) (A) (A) (A) (A) (A) (A) (A) (A) (A) (A) (A)
                 (A) (A) (A) (A) (A) (A) (A) (A) (A) (A) (A) (A)
                 (A) (A) (A) (A) (A) (A) (A) (A) (A) (A) (A) (A)
                 (A) (A) (A) (A) (A) (A) (A) (A) (A) (A) (A) (A)
                 (A) (A) (A) (A) (A) (A) (A) (A) (A) (A) (A) (A)
                 (A) (A) (A) (A)
 The electronic state is 1-A.
 Alpha  occ. eigenvalues --  -19.67553 -19.61530 -10.67447 -10.55676 -10.54069
 Alpha  occ. eigenvalues --  -10.54068 -10.53542 -10.53540 -10.53304  -1.23704
 Alpha  occ. eigenvalues --   -1.13120  -0.95008  -0.86563  -0.84810  -0.74488
 Alpha  occ. eigenvalues --   -0.70486  -0.67912  -0.64334  -0.58103  -0.57793
 Alpha  occ. eigenvalues --   -0.53713  -0.53679  -0.51532  -0.51315  -0.49870
 Alpha  occ. eigenvalues --   -0.45952  -0.45035  -0.44450  -0.41486  -0.41459
 Alpha  occ. eigenvalues --   -0.39249  -0.39038  -0.38222  -0.36487  -0.34205
 Alpha virt. eigenvalues --    0.04705   0.05554   0.07204   0.08058   0.09069
 Alpha virt. eigenvalues --    0.10969   0.12788   0.12891   0.13972   0.14144
 Alpha virt. eigenvalues --    0.14354   0.15924   0.16324   0.16658   0.19316
 Alpha virt. eigenvalues --    0.22467   0.22786   0.23458   0.24543   0.24715
 Alpha virt. eigenvalues --    0.25656   0.26436   0.28080   0.28103   0.28723
 Alpha virt. eigenvalues --    0.30512   0.31465   0.33542   0.34427   0.36020
 Alpha virt. eigenvalues --    0.37073   0.38686   0.39496   0.41101   0.42321
 Alpha virt. eigenvalues --    0.42588   0.43950   0.44491   0.45932   0.45981
 Alpha virt. eigenvalues --    0.46285   0.46649   0.46775   0.47092   0.48000
 Alpha virt. eigenvalues --    0.48982   0.50130   0.50374   0.51010   0.52667
 Alpha virt. eigenvalues --    0.52729   0.53010   0.53425   0.56111   0.56816
 Alpha virt. eigenvalues --    0.57592   0.59947   0.62671   0.64096   0.64974
 Alpha virt. eigenvalues --    0.65985   0.67465   0.69493   0.71048   0.73102
 Alpha virt. eigenvalues --    0.78296   0.79210   0.79880   0.82690   0.82781
 Alpha virt. eigenvalues --    0.84950   0.85534   0.88671   0.90357   0.90468
 Alpha virt. eigenvalues --    0.92252   0.93813   0.95010   0.96945   0.97383
 Alpha virt. eigenvalues --    0.98979   1.04673   1.04936   1.06193   1.06763
 Alpha virt. eigenvalues --    1.10404   1.10728   1.13580   1.15654   1.15858
 Alpha virt. eigenvalues --    1.17335   1.17902   1.20626   1.22425   1.24710
 Alpha virt. eigenvalues --    1.26754   1.29117   1.30222   1.30938   1.33094
 Alpha virt. eigenvalues --    1.35646   1.36767   1.42503   1.43042   1.43690
 Alpha virt. eigenvalues --    1.45301   1.50528   1.52989   1.53154   1.55498
 Alpha virt. eigenvalues --    1.58422   1.58725   1.61435   1.63289   1.63986
 Alpha virt. eigenvalues --    1.65046   1.66952   1.67929   1.68787   1.70027
 Alpha virt. eigenvalues --    1.70274   1.73220   1.75148   1.76417   1.79034
 Alpha virt. eigenvalues --    1.79279   1.79686   1.83743   1.84551   1.88256
 Alpha virt. eigenvalues --    1.91193   1.92115   1.92253   1.95386   1.96903
 Alpha virt. eigenvalues --    1.97775   2.01099   2.01809   2.03065   2.04787
 Alpha virt. eigenvalues --    2.04844   2.09340   2.11931   2.12810   2.15149
 Alpha virt. eigenvalues --    2.15877   2.19357   2.19979   2.21630   2.24205
 Alpha virt. eigenvalues --    2.25154   2.26191   2.26989   2.31912   2.32843
 Alpha virt. eigenvalues --    2.34892   2.41802   2.42027   2.44472   2.45164
 Alpha virt. eigenvalues --    2.46242   2.49520   2.49840   2.50304   2.51964
 Alpha virt. eigenvalues --    2.52840   2.53804   2.55078   2.56853   2.58950
 Alpha virt. eigenvalues --    2.59926   2.60926   2.61556   2.63792   2.64286
 Alpha virt. eigenvalues --    2.66846   2.67605   2.68536   2.69244   2.72008
 Alpha virt. eigenvalues --    2.73919   2.76275   2.78675   2.79853   2.80459
 Alpha virt. eigenvalues --    2.83398   2.84445   2.84930   2.86406   2.88903
 Alpha virt. eigenvalues --    2.90574   2.91435   2.96021   2.96087   2.97678
 Alpha virt. eigenvalues --    2.97907   2.99327   3.01601   3.04041   3.05704
 Alpha virt. eigenvalues --    3.09609   3.09715   3.11903   3.14068   3.15618
 Alpha virt. eigenvalues --    3.17130   3.18223   3.20132   3.22260   3.23242
 Alpha virt. eigenvalues --    3.23558   3.25934   3.26554   3.30775   3.32912
 Alpha virt. eigenvalues --    3.33018   3.35089   3.35296   3.37074   3.37968
 Alpha virt. eigenvalues --    3.39579   3.41577   3.42783   3.44051   3.45289
 Alpha virt. eigenvalues --    3.47131   3.47163   3.48273   3.49813   3.51812
 Alpha virt. eigenvalues --    3.52332   3.54014   3.56818   3.58993   3.59855
 Alpha virt. eigenvalues --    3.61261   3.63441   3.66309   3.67726   3.68646
 Alpha virt. eigenvalues --    3.71587   3.76432   3.76586   3.87046   3.89568
 Alpha virt. eigenvalues --    3.91246   3.91579   3.93849   3.97509   3.98081
 Alpha virt. eigenvalues --    3.98413   4.02107   4.03298   4.03952   4.04212
 Alpha virt. eigenvalues --    4.11323   4.12214   4.16462   4.17941   4.23717
 Alpha virt. eigenvalues --    4.24464   4.25771   4.33265   4.35274   4.38338
 Alpha virt. eigenvalues --    4.42730   4.45185   4.49507   4.51457   4.53778
 Alpha virt. eigenvalues --    4.55811   4.61831   4.64205   4.64869   4.70371
 Alpha virt. eigenvalues --    4.75253   4.77330   4.79112   4.84501   4.90232
 Alpha virt. eigenvalues --    5.00196   5.01597   5.13046   5.17694   5.21647
 Alpha virt. eigenvalues --    5.23493   5.38479   5.42256   5.53760   5.60418
 Alpha virt. eigenvalues --    5.74599   5.87045   5.87052   6.15270   6.18618
 Alpha virt. eigenvalues --    6.32380   6.33774   6.46687   6.50416   6.67626
 Alpha virt. eigenvalues --    6.70376   6.75387   6.82167   6.89822   7.06882
 Alpha virt. eigenvalues --    7.10197   7.27716  22.54049  22.56961  22.58390
 Alpha virt. eigenvalues --   22.61515  22.70000  22.80006  23.36507  43.97003
 Alpha virt. eigenvalues --   44.01453
          Condensed to atoms (all electrons):
               1          2          3          4          5          6
     1  O    7.846736   0.668980  -0.101041  -0.089179   0.000727  -0.000837
     2  C    0.668980   4.509807   0.357102   0.260129  -0.023224   0.003548
     3  O   -0.101041   0.357102   7.963893  -0.104273  -0.005334  -0.000071
     4  C   -0.089179   0.260129  -0.104273   5.438630   0.168034  -0.025154
     5  C    0.000727  -0.023224  -0.005334   0.168034   5.315424   0.223584
     6  C   -0.000837   0.003548  -0.000071  -0.025154   0.223584   5.193111
     7  C    0.000047  -0.000731   0.000351   0.002553  -0.044755   0.241305
     8  C   -0.000837   0.003547  -0.000071  -0.025146  -0.005349  -0.040582
     9  C    0.000728  -0.023225  -0.005335   0.168031  -0.009124  -0.005347
    10  H    0.008066  -0.025534   0.289398   0.015085   0.000075   0.000129
    11  H    0.008123  -0.032490   0.004430   0.439886  -0.045669  -0.004317
    12  H    0.002296  -0.001703  -0.000513  -0.046831   0.428441  -0.041838
    13  H    0.000190  -0.007531   0.007197  -0.035339   0.423088  -0.044444
    14  H    0.000011  -0.000451   0.000007   0.008718  -0.049903   0.439087
    15  H   -0.000013   0.000095  -0.000020  -0.001721  -0.052618   0.434347
    16  H   -0.000000   0.000139  -0.000076  -0.001565   0.001364  -0.052346
    17  H   -0.000002   0.000146  -0.000001  -0.001442   0.009626  -0.047039
    18  H    0.000011  -0.000451   0.000007   0.008717  -0.001910   0.009167
    19  H   -0.000013   0.000095  -0.000020  -0.001722   0.000840  -0.001462
    20  H    0.002296  -0.001703  -0.000513  -0.046821   0.007264  -0.001273
    21  H    0.000190  -0.007532   0.007196  -0.035345  -0.006696   0.001178
               7          8          9         10         11         12
     1  O    0.000047  -0.000837   0.000728   0.008066   0.008123   0.002296
     2  C   -0.000731   0.003547  -0.023225  -0.025534  -0.032490  -0.001703
     3  O    0.000351  -0.000071  -0.005335   0.289398   0.004430  -0.000513
     4  C    0.002553  -0.025146   0.168031   0.015085   0.439886  -0.046831
     5  C   -0.044755  -0.005349  -0.009124   0.000075  -0.045669   0.428441
     6  C    0.241305  -0.040582  -0.005347   0.000129  -0.004317  -0.041838
     7  C    5.198611   0.241312  -0.044757  -0.000028  -0.000046   0.008623
     8  C    0.241312   5.193087   0.223574   0.000129  -0.004316  -0.001273
     9  C   -0.044757   0.223574   5.315443   0.000075  -0.045675   0.007266
    10  H   -0.000028   0.000129   0.000075   0.374542  -0.000656  -0.000263
    11  H   -0.000046  -0.004316  -0.045675  -0.000656   0.507439  -0.002362
    12  H    0.008623  -0.001273   0.007266  -0.000263  -0.002362   0.518323
    13  H   -0.003295   0.001179  -0.006697  -0.000404   0.005807  -0.016366
    14  H   -0.044820   0.009165  -0.001910  -0.000006   0.000078  -0.006032
    15  H   -0.053587  -0.001462   0.000839   0.000003   0.002030  -0.003591
    16  H    0.429137  -0.052345   0.001365   0.000002   0.000092  -0.000163
    17  H    0.437804  -0.047038   0.009625   0.000001  -0.000275  -0.000312
    18  H   -0.044830   0.439094  -0.049899  -0.000006   0.000078   0.000148
    19  H   -0.053590   0.434348  -0.052615   0.000003   0.002030  -0.000164
    20  H    0.008625  -0.041839   0.428447  -0.000263  -0.002362  -0.000379
    21  H   -0.003296  -0.044444   0.423088  -0.000404   0.005808  -0.000149
              13         14         15         16         17         18
     1  O    0.000190   0.000011  -0.000013  -0.000000  -0.000002   0.000011
     2  C   -0.007531  -0.000451   0.000095   0.000139   0.000146  -0.000451
     3  O    0.007197   0.000007  -0.000020  -0.000076  -0.000001   0.000007
     4  C   -0.035339   0.008718  -0.001721  -0.001565  -0.001442   0.008717
     5  C    0.423088  -0.049903  -0.052618   0.001364   0.009626  -0.001910
     6  C   -0.044444   0.439087   0.434347  -0.052346  -0.047039   0.009167
     7  C   -0.003295  -0.044820  -0.053587   0.429137   0.437804  -0.044830
     8  C    0.001179   0.009165  -0.001462  -0.052345  -0.047038   0.439094
     9  C   -0.006697  -0.001910   0.000839   0.001365   0.009625  -0.049899
    10  H   -0.000404  -0.000006   0.000003   0.000002   0.000001  -0.000006
    11  H    0.005807   0.000078   0.002030   0.000092  -0.000275   0.000078
    12  H   -0.016366  -0.006032  -0.003591  -0.000163  -0.000312   0.000148
    13  H    0.498629  -0.003758   0.006063   0.001888  -0.000174  -0.000091
    14  H   -0.003758   0.532249  -0.017823  -0.003844  -0.005568  -0.000357
    15  H    0.006063  -0.017823   0.532052   0.006898  -0.003419  -0.000227
    16  H    0.001888  -0.003844   0.006898   0.538019  -0.018008  -0.003845
    17  H   -0.000174  -0.005568  -0.003419  -0.018008   0.530714  -0.005568
    18  H   -0.000091  -0.000357  -0.000227  -0.003845  -0.005568   0.532250
    19  H    0.000135  -0.000227   0.002594   0.006899  -0.003419  -0.017822
    20  H   -0.000149   0.000148  -0.000164  -0.000164  -0.000312  -0.006032
    21  H    0.003315  -0.000091   0.000135   0.001888  -0.000174  -0.003758
              19         20         21
     1  O   -0.000013   0.002296   0.000190
     2  C    0.000095  -0.001703  -0.007532
     3  O   -0.000020  -0.000513   0.007196
     4  C   -0.001722  -0.046821  -0.035345
     5  C    0.000840   0.007264  -0.006696
     6  C   -0.001462  -0.001273   0.001178
     7  C   -0.053590   0.008625  -0.003296
     8  C    0.434348  -0.041839  -0.044444
     9  C   -0.052615   0.428447   0.423088
    10  H    0.000003  -0.000263  -0.000404
    11  H    0.002030  -0.002362   0.005808
    12  H   -0.000164  -0.000379  -0.000149
    13  H    0.000135  -0.000149   0.003315
    14  H   -0.000227   0.000148  -0.000091
    15  H    0.002594  -0.000164   0.000135
    16  H    0.006899  -0.000164   0.001888
    17  H   -0.003419  -0.000312  -0.000174
    18  H   -0.017822  -0.006032  -0.003758
    19  H    0.532051  -0.003592   0.006063
    20  H   -0.003592   0.518313  -0.016373
    21  H    0.006063  -0.016373   0.498645
 Mulliken charges:
               1
     1  O   -0.346480
     2  C    0.320988
     3  O   -0.412316
     4  C   -0.095244
     5  C   -0.333885
     6  C   -0.280746
     7  C   -0.274632
     8  C   -0.280735
     9  C   -0.333897
    10  H    0.340054
    11  H    0.162367
    12  H    0.156842
    13  H    0.170758
    14  H    0.145325
    15  H    0.149588
    16  H    0.144664
    17  H    0.144836
    18  H    0.145323
    19  H    0.149588
    20  H    0.156846
    21  H    0.170756
 Sum of Mulliken charges =  -0.00000
 Mulliken charges with hydrogens summed into heavy atoms:
               1
     1  O   -0.346480
     2  C    0.320988
     3  O   -0.072261
     4  C    0.067123
     5  C   -0.006285
     6  C    0.014167
     7  C    0.014868
     8  C    0.014175
     9  C   -0.006295
 Electronic spatial extent (au):  <R**2>=           1335.2645
 Charge=             -0.0000 electrons
 Dipole moment (field-independent basis, Debye):
    X=              1.7961    Y=             -0.0001    Z=              1.3022  Tot=              2.2185
 Quadrupole moment (field-independent basis, Debye-Ang):
   XX=            -57.6252   YY=            -54.4183   ZZ=            -57.4187
   XY=             -0.0000   XZ=             -6.8322   YZ=             -0.0003
 Traceless Quadrupole moment (field-independent basis, Debye-Ang):
   XX=             -1.1378   YY=              2.0691   ZZ=             -0.9313
   XY=             -0.0000   XZ=             -6.8322   YZ=             -0.0003
 Octapole moment (field-independent basis, Debye-Ang**2):
  XXX=            -16.6356  YYY=             -0.0004  ZZZ=              2.9543  XYY=             -6.0098
  XXY=             -0.0003  XXZ=             26.8391  XZZ=             -1.6071  YZZ=              0.0000
  YYZ=              0.7410  XYZ=              0.0006
 Hexadecapole moment (field-independent basis, Debye-Ang**3):
 XXXX=          -1140.8267 YYYY=           -367.5373 ZZZZ=           -200.9808 XXXY=             -0.0021
 XXXZ=            -98.0198 YYYX=              0.0005 YYYZ=             -0.0005 ZZZX=            -13.6604
 ZZZY=              0.0003 XXYY=           -254.8336 XXZZ=           -229.6329 YYZZ=            -95.8604
 XXYZ=             -0.0012 YYXZ=              2.5634 ZZXY=             -0.0003
 N-N= 4.750871430149D+02 E-N=-1.939950299677D+03  KE= 4.222674736807D+02
   1 Symmetry operations used in ECPInt.
 ECPInt:  NShTT=   10878 NPrTT=   32112 LenC2=   10589 LenP2D=   24988.
 LDataN:  DoStor=T MaxTD1= 7 Len=  274
 Calling FoFJK, ICntrl=      2127 FMM=F ISym2X=0 I1Cent= 0 IOpClX= 0 NMat=1 NMatS=1 NMatT=0.
 ***** Axes restored to original set *****
 -------------------------------------------------------------------
 Center     Atomic                   Forces (Hartrees/Bohr)
 Number     Number              X              Y              Z
 -------------------------------------------------------------------
      1        8          -0.020905592    0.004829810    0.020178075
      2        6           0.017368131   -0.006623160   -0.023576018
      3        8           0.008472403   -0.000359746   -0.004012404
      4        6           0.000917896   -0.000854854   -0.002584505
      5        6           0.000681071   -0.004939934    0.005911610
      6        6          -0.001203076   -0.000768241    0.000340836
      7        6          -0.003355972   -0.000470245    0.000003166
      8        6          -0.001392426    0.000476112   -0.000125849
      9        6          -0.001035111    0.007588487    0.001165183
     10        1          -0.009823287    0.000525794    0.004928072
     11        1           0.003250018    0.001593348    0.003000686
     12        1          -0.000331159    0.003008166   -0.000364231
     13        1          -0.000028251    0.001997303   -0.003169480
     14        1           0.001160082    0.000793334   -0.002719038
     15        1           0.000361463    0.000953073    0.000926539
     16        1           0.000338365   -0.000488087   -0.001400773
     17        1           0.002320668    0.000785263    0.001212120
     18        1           0.001555074   -0.002064592   -0.001625441
     19        1           0.000492668    0.000011225    0.001277263
     20        1           0.000433203   -0.002465629    0.001705528
     21        1           0.000723829   -0.003527426   -0.001071337
 -------------------------------------------------------------------
 Cartesian Forces:  Max     0.023576018 RMS     0.005939929

 GradGradGradGradGradGradGradGradGradGradGradGradGradGradGradGradGradGrad
 Berny optimization.
 FormGI is forming the generalized inverse of G from B-inverse, IUseBI=4.
 Internal  Forces:  Max     0.029281294 RMS     0.003130136
 Search for a local minimum.
 Step number   1 out of a maximum of  126
 All quantities printed in internal units (Hartrees-Bohrs-Radians)
 Mixed Optimization -- RFO/linear search
 Second derivative matrix not updated -- first step.
 ITU=  0
     Eigenvalues ---    0.00563   0.00579   0.00635   0.00671   0.01039
     Eigenvalues ---    0.01935   0.01965   0.02410   0.03712   0.03810
     Eigenvalues ---    0.03964   0.04201   0.04802   0.04810   0.04877
     Eigenvalues ---    0.05472   0.05514   0.05538   0.05941   0.06662
     Eigenvalues ---    0.08155   0.08156   0.08184   0.08184   0.08196
     Eigenvalues ---    0.08355   0.08789   0.12100   0.12106   0.14331
     Eigenvalues ---    0.16000   0.16048   0.17548   0.21095   0.25000
     Eigenvalues ---    0.25000   0.27867   0.28012   0.28354   0.29539
     Eigenvalues ---    0.29546   0.29706   0.31359   0.33823   0.33954
     Eigenvalues ---    0.33957   0.34005   0.34017   0.34019   0.34037
     Eigenvalues ---    0.34041   0.34150   0.34152   0.34158   0.51340
     Eigenvalues ---    0.55947   0.95221
 RFO step:  Lambda=-2.76591025D-03 EMin= 5.62533032D-03
 Linear search not attempted -- first point.
 Iteration  1 RMS(Cart)=  0.02131759 RMS(Int)=  0.00031543
 Iteration  2 RMS(Cart)=  0.00033893 RMS(Int)=  0.00007301
 Iteration  3 RMS(Cart)=  0.00000011 RMS(Int)=  0.00007301
 Variable       Old X    -DE/DX   Delta X   Delta X   Delta X     New X
                                 (Linear)    (Quad)   (Total)
    R1        2.30616  -0.02928   0.00000  -0.03066  -0.03066   2.27550
    R2        2.54300   0.00039   0.00000   0.00069   0.00069   2.54369
    R3        2.85332  -0.00511   0.00000  -0.01615  -0.01615   2.83717
    R4        1.85237  -0.01036   0.00000  -0.02008  -0.02008   1.83229
    R5        2.89453   0.00011   0.00000  -0.00060  -0.00066   2.89387
    R6        2.89452   0.00011   0.00000  -0.00059  -0.00065   2.89387
    R7        2.07629  -0.00401   0.00000  -0.01177  -0.01177   2.06452
    R8        2.88556  -0.00009   0.00000  -0.00031  -0.00031   2.88525
    R9        2.07268  -0.00272   0.00000  -0.00793  -0.00793   2.06475
   R10        2.07403  -0.00229   0.00000  -0.00668  -0.00668   2.06735
   R11        2.88459  -0.00017   0.00000   0.00041   0.00047   2.88506
   R12        2.07078  -0.00280   0.00000  -0.00814  -0.00814   2.06264
   R13        2.07301  -0.00131   0.00000  -0.00382  -0.00382   2.06919
   R14        2.88459  -0.00016   0.00000   0.00042   0.00048   2.88507
   R15        2.07321  -0.00140   0.00000  -0.00407  -0.00407   2.06913
   R16        2.07064  -0.00249   0.00000  -0.00722  -0.00722   2.06342
   R17        2.88550  -0.00008   0.00000  -0.00026  -0.00026   2.88524
   R18        2.07075  -0.00279   0.00000  -0.00811  -0.00811   2.06264
   R19        2.07299  -0.00130   0.00000  -0.00380  -0.00380   2.06919
   R20        2.07261  -0.00270   0.00000  -0.00786  -0.00786   2.06475
   R21        2.07408  -0.00230   0.00000  -0.00672  -0.00672   2.06736
    A1        2.10055   0.00608   0.00000   0.02404   0.02404   2.12459
    A2        2.19463  -0.00126   0.00000  -0.00499  -0.00499   2.18964
    A3        1.98800  -0.00482   0.00000  -0.01906  -0.01906   1.96895
    A4        1.81441   0.00684   0.00000   0.04204   0.04204   1.85645
    A5        1.93709   0.00003   0.00000  -0.00079  -0.00073   1.93636
    A6        1.93706   0.00003   0.00000  -0.00077  -0.00071   1.93635
    A7        1.85930  -0.00125   0.00000  -0.01884  -0.01884   1.84046
    A8        1.94834  -0.00030   0.00000  -0.01024  -0.01045   1.93789
    A9        1.88929   0.00074   0.00000   0.01561   0.01564   1.90492
   A10        1.88926   0.00074   0.00000   0.01564   0.01567   1.90493
   A11        1.94442  -0.00025   0.00000  -0.01056  -0.01078   1.93364
   A12        1.91946  -0.00091   0.00000  -0.00587  -0.00573   1.91373
   A13        1.92542  -0.00135   0.00000  -0.01923  -0.01915   1.90627
   A14        1.91306   0.00075   0.00000   0.01300   0.01299   1.92605
   A15        1.90355   0.00123   0.00000   0.01172   0.01153   1.91508
   A16        1.85577   0.00058   0.00000   0.01231   0.01205   1.86782
   A17        1.94851   0.00007   0.00000  -0.00310  -0.00320   1.94531
   A18        1.91380  -0.00046   0.00000  -0.00223  -0.00219   1.91161
   A19        1.90954   0.00007   0.00000  -0.00020  -0.00018   1.90936
   A20        1.91398   0.00039   0.00000   0.00899   0.00903   1.92302
   A21        1.90978   0.00004   0.00000  -0.00164  -0.00162   1.90816
   A22        1.86639  -0.00012   0.00000  -0.00178  -0.00180   1.86459
   A23        1.94965  -0.00002   0.00000  -0.00600  -0.00606   1.94359
   A24        1.90922  -0.00024   0.00000  -0.00433  -0.00438   1.90484
   A25        1.91363   0.00032   0.00000   0.00821   0.00823   1.92185
   A26        1.90923  -0.00024   0.00000  -0.00434  -0.00438   1.90485
   A27        1.91365   0.00032   0.00000   0.00819   0.00821   1.92185
   A28        1.86658  -0.00015   0.00000  -0.00158  -0.00156   1.86502
   A29        1.94852   0.00006   0.00000  -0.00310  -0.00320   1.94531
   A30        1.91391   0.00040   0.00000   0.00906   0.00910   1.92300
   A31        1.90974   0.00005   0.00000  -0.00161  -0.00160   1.90815
   A32        1.91384  -0.00047   0.00000  -0.00226  -0.00223   1.91162
   A33        1.90959   0.00007   0.00000  -0.00024  -0.00022   1.90937
   A34        1.86641  -0.00012   0.00000  -0.00180  -0.00182   1.86459
   A35        1.94444  -0.00025   0.00000  -0.01058  -0.01079   1.93365
   A36        1.91954  -0.00091   0.00000  -0.00594  -0.00580   1.91374
   A37        1.92539  -0.00134   0.00000  -0.01921  -0.01912   1.90627
   A38        1.91307   0.00075   0.00000   0.01301   0.01299   1.92606
   A39        1.90357   0.00123   0.00000   0.01170   0.01151   1.91508
   A40        1.85567   0.00059   0.00000   0.01239   0.01213   1.86779
    D1        0.00006  -0.00000   0.00000  -0.00012  -0.00012  -0.00006
    D2       -3.14157   0.00000   0.00000   0.00005   0.00005  -3.14152
    D3        2.05294   0.00017   0.00000   0.00730   0.00737   2.06031
    D4       -2.05292  -0.00017   0.00000  -0.00713  -0.00720  -2.06011
    D5       -0.00001   0.00000   0.00000   0.00011   0.00011   0.00010
    D6       -1.08861   0.00017   0.00000   0.00712   0.00719  -1.08142
    D7        1.08872  -0.00017   0.00000  -0.00731  -0.00738   1.08134
    D8       -3.14156  -0.00000   0.00000  -0.00008  -0.00008   3.14155
    D9        3.12060   0.00059   0.00000   0.02434   0.02438  -3.13821
   D10       -1.03780   0.00075   0.00000   0.02969   0.02970  -1.00810
   D11        1.00378   0.00011   0.00000   0.02974   0.02973   1.03351
   D12        0.94965   0.00075   0.00000   0.03347   0.03344   0.98309
   D13        3.07444   0.00090   0.00000   0.03882   0.03877   3.11320
   D14       -1.16717   0.00027   0.00000   0.03887   0.03879  -1.12838
   D15       -1.12799  -0.00046   0.00000   0.01040   0.01043  -1.11756
   D16        0.99680  -0.00030   0.00000   0.01575   0.01575   1.01255
   D17        3.03837  -0.00094   0.00000   0.01580   0.01578   3.05415
   D18       -3.12062  -0.00059   0.00000  -0.02433  -0.02436   3.13821
   D19        1.03770  -0.00074   0.00000  -0.02963  -0.02963   1.00807
   D20       -1.00378  -0.00011   0.00000  -0.02974  -0.02973  -1.03350
   D21       -0.94965  -0.00075   0.00000  -0.03347  -0.03343  -0.98309
   D22       -3.07452  -0.00090   0.00000  -0.03877  -0.03871  -3.11323
   D23        1.16719  -0.00027   0.00000  -0.03888  -0.03880   1.12838
   D24        1.12800   0.00046   0.00000  -0.01041  -0.01044   1.11757
   D25       -0.99686   0.00030   0.00000  -0.01571  -0.01571  -1.01257
   D26       -3.03834   0.00093   0.00000  -0.01583  -0.01581  -3.05415
   D27       -0.94932  -0.00035   0.00000  -0.02123  -0.02118  -0.97050
   D28       -3.07412  -0.00058   0.00000  -0.02900  -0.02896  -3.10308
   D29        1.16726  -0.00021   0.00000  -0.02545  -0.02542   1.14184
   D30       -3.07782   0.00045   0.00000  -0.01568  -0.01558  -3.09339
   D31        1.08057   0.00022   0.00000  -0.02346  -0.02336   1.05721
   D32       -0.96123   0.00059   0.00000  -0.01991  -0.01982  -0.98105
   D33        1.18020  -0.00137   0.00000  -0.04434  -0.04445   1.13575
   D34       -0.94460  -0.00159   0.00000  -0.05212  -0.05223  -0.99683
   D35       -2.98640  -0.00122   0.00000  -0.04856  -0.04869  -3.03509
   D36        0.95177  -0.00012   0.00000   0.00759   0.00758   0.95935
   D37       -1.16465   0.00035   0.00000   0.01992   0.01990  -1.14475
   D38        3.07678   0.00048   0.00000   0.01961   0.01961   3.09639
   D39        3.07646  -0.00039   0.00000   0.00889   0.00888   3.08534
   D40        0.96004   0.00008   0.00000   0.02122   0.02120   0.98124
   D41       -1.08171   0.00021   0.00000   0.02091   0.02090  -1.06081
   D42       -1.16468  -0.00028   0.00000   0.01098   0.01098  -1.15369
   D43        3.00209   0.00019   0.00000   0.02331   0.02331   3.02539
   D44        0.96034   0.00032   0.00000   0.02300   0.02301   0.98334
   D45       -0.95176   0.00012   0.00000  -0.00759  -0.00758  -0.95934
   D46       -3.07645   0.00039   0.00000  -0.00889  -0.00888  -3.08533
   D47        1.16473   0.00028   0.00000  -0.01101  -0.01102   1.15371
   D48        1.16465  -0.00035   0.00000  -0.01992  -0.01990   1.14476
   D49       -0.96004  -0.00008   0.00000  -0.02121  -0.02120  -0.98124
   D50       -3.00204  -0.00019   0.00000  -0.02333  -0.02333  -3.02538
   D51       -3.07676  -0.00048   0.00000  -0.01962  -0.01962  -3.09638
   D52        1.08173  -0.00021   0.00000  -0.02092  -0.02092   1.06082
   D53       -0.96027  -0.00033   0.00000  -0.02304  -0.02305  -0.98332
   D54        0.94930   0.00035   0.00000   0.02122   0.02118   0.97048
   D55        3.07792  -0.00045   0.00000   0.01559   0.01548   3.09340
   D56       -1.18021   0.00137   0.00000   0.04433   0.04443  -1.13577
   D57        3.07403   0.00058   0.00000   0.02906   0.02902   3.10305
   D58       -1.08054  -0.00022   0.00000   0.02342   0.02332  -1.05722
   D59        0.94452   0.00160   0.00000   0.05216   0.05227   0.99680
   D60       -1.16727   0.00021   0.00000   0.02544   0.02541  -1.14186
   D61        0.96135  -0.00060   0.00000   0.01980   0.01972   0.98106
   D62        2.98641   0.00122   0.00000   0.04854   0.04867   3.03508
         Item               Value     Threshold  Converged?
 Maximum Force            0.029281     0.000450     NO 
 RMS     Force            0.003130     0.000300     NO 
 Maximum Displacement     0.090076     0.001800     NO 
 RMS     Displacement     0.021377     0.001200     NO 
 Predicted change in Energy=-1.450882D-03
 GradGradGradGradGradGradGradGradGradGradGradGradGradGradGradGradGradGrad

                          Input orientation:                          
 ---------------------------------------------------------------------
 Center     Atomic      Atomic             Coordinates (Angstroms)
 Number     Number       Type             X           Y           Z
 ---------------------------------------------------------------------
      1          8           0        3.016067   -0.158490   -1.504103
      2          6           0        2.274210    0.088979   -0.588482
      3          8           0        2.727869    0.595670    0.573133
      4          6           0        0.787138   -0.117687   -0.592107
      5          6           0        0.372077   -1.126841    0.482333
      6          6           0       -1.140044   -1.337895    0.472338
      7          6           0       -1.889303   -0.017777    0.635837
      8          6           0       -1.462528    0.998376   -0.420641
      9          6           0        0.049230    1.211980   -0.411641
     10          1           0        3.687711    0.690212    0.473638
     11          1           0        0.552545   -0.526758   -1.577592
     12          1           0        0.889219   -2.074749    0.315435
     13          1           0        0.687041   -0.758634    1.463173
     14          1           0       -1.417171   -2.029457    1.270034
     15          1           0       -1.435430   -1.807797   -0.471535
     16          1           0       -1.683781    0.390836    1.630667
     17          1           0       -2.966421   -0.187906    0.579722
     18          1           0       -1.966696    1.951590   -0.251601
     19          1           0       -1.774133    0.645811   -1.409356
     20          1           0        0.339984    1.904212   -1.205428
     21          1           0        0.352315    1.666322    0.536278
 ---------------------------------------------------------------------
                    Distance matrix (angstroms):
                    1          2          3          4          5
     1  O    0.000000
     2  C    1.204140   0.000000
     3  O    2.228614   1.346065   0.000000
     4  C    2.408635   1.501368   2.373415   0.000000
     5  C    3.445912   2.498594   2.919768   1.531368   0.000000
     6  C    4.750849   3.849472   4.325458   2.517137   1.526811
     7  C    5.353671   4.341106   4.658168   2.946382   2.523376
     8  C    4.750794   3.849466   4.325412   2.517141   2.949184
     9  C    3.445835   2.498587   2.919713   1.531369   2.524580
    10  H    2.254519   1.867502   0.969605   3.194031   3.780898
    11  H    2.491979   2.078846   3.258450   1.092499   2.153128
    12  H    3.392086   2.723414   3.252411   2.159663   1.092621
    13  H    3.819588   2.728890   2.606010   2.155228   1.093995
    14  H    5.554272   4.644152   4.955635   3.461417   2.153275
    15  H    4.858213   4.168077   4.919456   2.794784   2.154216
    16  H    5.676011   4.547684   4.541254   3.362255   2.801529
    17  H    6.335088   5.376391   5.747954   3.932851   3.469388
    18  H    5.554198   4.644146   4.955567   3.461424   3.935131
    19  H    4.858178   4.168091   4.919431   2.794806   3.365561
    20  H    3.391956   2.723403   3.252316   2.159673   3.469416
    21  H    3.819511   2.728878   2.605938   2.155229   2.793753
                    6          7          8          9         10
     6  C    0.000000
     7  C    1.526707   0.000000
     8  C    2.521819   1.526712   0.000000
     9  C    2.949178   2.523376   1.526801   0.000000
    10  H    5.236452   5.624113   5.236379   3.780807   0.000000
    11  H    2.779391   3.334810   2.779405   2.153132   3.939267
    12  H    2.164597   3.471884   3.939114   3.469410   3.937206
    13  H    2.157669   2.805513   3.355069   2.793752   3.475968
    14  H    1.091502   2.161474   3.468171   3.935133   5.838721
    15  H    1.094970   2.153241   2.806765   3.365540   5.777541
    16  H    2.150787   1.094938   2.150795   2.801540   5.502842
    17  H    2.160939   1.091913   2.160945   3.469385   6.712661
    18  H    3.468163   2.161468   1.091502   2.153275   5.838610
    19  H    2.806765   2.153237   1.094969   2.154214   5.777489
    20  H    3.939116   3.471890   2.164597   1.092621   3.937047
    21  H    3.355076   2.805522   2.157661   1.094001   3.475857
                   11         12         13         14         15
    11  H    0.000000
    12  H    2.468437   0.000000
    13  H    3.052558   1.757935   0.000000
    14  H    3.774501   2.496546   2.465766   0.000000
    15  H    2.610837   2.468720   3.057568   1.755713   0.000000
    16  H    4.016971   3.798588   2.640101   2.461495   3.052035
    17  H    4.141491   4.300696   3.801842   2.503600   2.464370
    18  H    3.774524   4.968821   4.162702   4.297218   3.803105
    19  H    2.610872   4.179689   4.035005   3.803105   2.648475
    20  H    2.468461   4.294976   3.785846   4.968828   4.179678
    21  H    3.052562   3.785848   2.617553   4.162722   4.034999
                   16         17         18         19         20
    16  H    0.000000
    17  H    1.756301   0.000000
    18  H    2.461488   2.503596   0.000000
    19  H    3.052035   2.464359   1.755715   0.000000
    20  H    3.798600   4.300702   2.496558   2.468735   0.000000
    21  H    2.640120   3.801849   2.465754   3.057567   1.757921
                   21
    21  H    0.000000
 Stoichiometry    C7H12O2
 Framework group  C1[X(C7H12O2)]
 Deg. of freedom    57
 Full point group                 C1      NOp   1
 Largest Abelian subgroup         C1      NOp   1
 Largest concise Abelian subgroup C1      NOp   1
                         Standard orientation:                         
 ---------------------------------------------------------------------
 Center     Atomic      Atomic             Coordinates (Angstroms)
 Number     Number       Type             X           Y           Z
 ---------------------------------------------------------------------
      1          8           0       -2.713956   -0.000016   -0.944889
      2          6           0       -1.828653    0.000056   -0.128683
      3          8           0       -2.084210   -0.000006    1.192900
      4          6           0       -0.359379    0.000035   -0.437455
      5          6           0        0.314641    1.262305    0.107944
      6          6           0        1.807522    1.260889   -0.212142
      7          6           0        2.489986   -0.000033    0.312407
      8          6           0        1.807463   -1.260929   -0.212144
      9          6           0        0.314587   -1.262274    0.107922
     10          1           0       -3.049476   -0.000058    1.284524
     11          1           0       -0.291116    0.000046   -1.527819
     12          1           0       -0.164363    2.147513   -0.317242
     13          1           0        0.169309    1.308786    1.191246
     14          1           0        2.273922    2.148584    0.218956
     15          1           0        1.947067    1.324215   -1.296336
     16          1           0        2.452010   -0.000029    1.406686
     17          1           0        3.545331   -0.000056    0.032189
     18          1           0        2.273829   -2.148634    0.218969
     19          1           0        1.947027   -1.324260   -1.296334
     20          1           0       -0.164463   -2.147462   -0.317253
     21          1           0        0.169244   -1.308767    1.191228
 ---------------------------------------------------------------------
 Rotational constants (GHZ):           3.2276733           1.0437603           0.9506988
 Standard basis: def2TZVP (5D, 7F)
 There are   396 symmetry adapted cartesian basis functions of A   symmetry.
 There are   351 symmetry adapted basis functions of A   symmetry.
   351 basis functions,   555 primitive gaussians,   396 cartesian basis functions
    35 alpha electrons       35 beta electrons
       nuclear repulsion energy       476.9691866151 Hartrees.
 NAtoms=   21 NActive=   21 NUniq=   21 SFac= 1.00D+00 NAtFMM=   60 NAOKFM=F Big=F
 Integral buffers will be    131072 words long.
 Raffenetti 2 integral format.
 Two-electron integral symmetry is turned on.
 One-electron integrals computed using PRISM.
   1 Symmetry operations used in ECPInt.
 ECPInt:  NShTT=   10878 NPrTT=   32112 LenC2=   10596 LenP2D=   25027.
 LDataN:  DoStor=T MaxTD1= 6 Len=  172
 NBasis=   351 RedAO= T EigKep=  8.10D-05  NBF=   351
 NBsUse=   351 1.00D-06 EigRej= -1.00D+00 NBFU=   351
 Initial guess from the checkpoint file:  "/tmp/Gau-1951322.chk"
 B after Tr=     0.000000    0.000000   -0.000000
         Rot=    1.000000   -0.000010   -0.000509    0.000003 Ang=  -0.06 deg.
 ExpMin= 9.52D-02 ExpMax= 2.70D+04 ExpMxC= 9.22D+02 IAcc=3 IRadAn=         5 AccDes= 0.00D+00
 Harris functional with IExCor= 1009 and IRadAn=       5 diagonalized for initial guess.
 HarFok:  IExCor= 1009 AccDes= 0.00D+00 IRadAn=         5 IDoV= 1 UseB2=F ITyADJ=14
 ICtDFT=  3500011 ScaDFX=  1.000000  1.000000  1.000000  1.000000
 FoFCou: FMM=F IPFlag=           0 FMFlag=      100000 FMFlg1=           0
         NFxFlg=           0 DoJE=T BraDBF=F KetDBF=T FulRan=T
         wScrn=  0.000000 ICntrl=       500 IOpCl=  0 I1Cent=   200000004 NGrid=           0
         NMat0=    1 NMatS0=      1 NMatT0=    0 NMatD0=    1 NMtDS0=    0 NMtDT0=    0
 Petite list used in FoFCou.
 Requested convergence on RMS density matrix=1.00D-08 within 128 cycles.
 Requested convergence on MAX density matrix=1.00D-06.
 Requested convergence on             energy=1.00D-06.
 No special actions if energy rises.
 Integral accuracy reduced to 1.0D-05 until final iterations.
 Initial convergence to 1.0D-05 achieved.  Increase integral accuracy.
 SCF Done:  E(RM062X) =  -424.430885388     A.U. after   11 cycles
            NFock= 11  Conv=0.31D-08     -V/T= 2.0048
   1 Symmetry operations used in ECPInt.
 ECPInt:  NShTT=   10878 NPrTT=   32112 LenC2=   10596 LenP2D=   25027.
 LDataN:  DoStor=T MaxTD1= 7 Len=  274
 Calling FoFJK, ICntrl=      2127 FMM=F ISym2X=0 I1Cent= 0 IOpClX= 0 NMat=1 NMatS=1 NMatT=0.
 ***** Axes restored to original set *****
 -------------------------------------------------------------------
 Center     Atomic                   Forces (Hartrees/Bohr)
 Number     Number              X              Y              Z
 -------------------------------------------------------------------
      1        8          -0.003289760    0.001289543    0.004583118
      2        6           0.004821609   -0.002125494   -0.007359456
      3        8           0.002352493    0.000621175    0.000791862
      4        6          -0.000154823   -0.000054426   -0.000070305
      5        6          -0.000756684   -0.001615018    0.001148091
      6        6           0.000032373   -0.000145962    0.000351606
      7        6          -0.000162200   -0.000004139    0.000046104
      8        6          -0.000041441    0.000338567    0.000166607
      9        6          -0.001211192    0.001736905   -0.000125745
     10        1          -0.001375057    0.000167816    0.000936461
     11        1          -0.000242078    0.000005916    0.000102652
     12        1          -0.000126989    0.000099908    0.000146951
     13        1          -0.000237866    0.000763011   -0.000518560
     14        1          -0.000244374   -0.000282803   -0.000273678
     15        1           0.000260729    0.000220692   -0.000173525
     16        1           0.000258464    0.000060018    0.000062826
     17        1           0.000190270    0.000120995    0.000246764
     18        1          -0.000277411   -0.000034188   -0.000369506
     19        1           0.000320407   -0.000209717   -0.000009499
     20        1          -0.000112972   -0.000007057    0.000185411
     21        1          -0.000003498   -0.000945742    0.000131821
 -------------------------------------------------------------------
 Cartesian Forces:  Max     0.007359456 RMS     0.001474665

 GradGradGradGradGradGradGradGradGradGradGradGradGradGradGradGradGradGrad
 Berny optimization.
 Using GEDIIS/GDIIS optimizer.
 FormGI is forming the generalized inverse of G from B-inverse, IUseBI=4.
 Internal  Forces:  Max     0.005776595 RMS     0.000682641
 Search for a local minimum.
 Step number   2 out of a maximum of  126
 All quantities printed in internal units (Hartrees-Bohrs-Radians)
 Mixed Optimization -- En-DIIS/RFO-DIIS
 Update second derivatives using D2CorX and points    1    2
 DE= -1.62D-03 DEPred=-1.45D-03 R= 1.12D+00
 TightC=F SS=  1.41D+00  RLast= 2.21D-01 DXNew= 5.0454D-01 6.6395D-01
 Trust test= 1.12D+00 RLast= 2.21D-01 DXMaxT set to 5.05D-01
 ITU=  1  0
 Use linear search instead of GDIIS.
     Eigenvalues ---    0.00574   0.00588   0.00635   0.00648   0.01050
     Eigenvalues ---    0.01944   0.01962   0.02410   0.03765   0.03903
     Eigenvalues ---    0.04002   0.04204   0.04818   0.04830   0.04884
     Eigenvalues ---    0.05485   0.05559   0.05587   0.06043   0.06630
     Eigenvalues ---    0.08027   0.08028   0.08144   0.08156   0.08160
     Eigenvalues ---    0.08290   0.08658   0.12049   0.12070   0.14202
     Eigenvalues ---    0.15305   0.15971   0.17408   0.21073   0.24640
     Eigenvalues ---    0.25271   0.27868   0.27935   0.28341   0.29542
     Eigenvalues ---    0.29550   0.29704   0.32289   0.33875   0.33949
     Eigenvalues ---    0.33956   0.34007   0.34018   0.34022   0.34039
     Eigenvalues ---    0.34085   0.34150   0.34151   0.34991   0.50548
     Eigenvalues ---    0.56168   0.87238
 RFO step:  Lambda=-2.00399145D-04 EMin= 5.74389644D-03
 Quartic linear search produced a step of  0.18642.
 Iteration  1 RMS(Cart)=  0.01169362 RMS(Int)=  0.00007650
 Iteration  2 RMS(Cart)=  0.00008323 RMS(Int)=  0.00002266
 Iteration  3 RMS(Cart)=  0.00000000 RMS(Int)=  0.00002266
 Variable       Old X    -DE/DX   Delta X   Delta X   Delta X     New X
                                 (Linear)    (Quad)   (Total)
    R1        2.27550  -0.00578  -0.00572  -0.00326  -0.00898   2.26652
    R2        2.54369   0.00212   0.00013   0.00439   0.00452   2.54822
    R3        2.83717   0.00248  -0.00301   0.01144   0.00843   2.84561
    R4        1.83229  -0.00144  -0.00374  -0.00074  -0.00448   1.82781
    R5        2.89387   0.00136  -0.00012   0.00584   0.00571   2.89958
    R6        2.89387   0.00136  -0.00012   0.00583   0.00570   2.89957
    R7        2.06452  -0.00004  -0.00219   0.00137  -0.00082   2.06370
    R8        2.88525  -0.00017  -0.00006  -0.00065  -0.00071   2.88455
    R9        2.06475  -0.00017  -0.00148   0.00044  -0.00104   2.06371
   R10        2.06735  -0.00028  -0.00124  -0.00010  -0.00134   2.06601
   R11        2.88506   0.00009   0.00009   0.00007   0.00016   2.88522
   R12        2.06264   0.00004  -0.00152   0.00120  -0.00032   2.06232
   R13        2.06919  -0.00002  -0.00071   0.00044  -0.00027   2.06892
   R14        2.88507   0.00009   0.00009   0.00006   0.00016   2.88522
   R15        2.06913   0.00013  -0.00076   0.00097   0.00021   2.06935
   R16        2.06342  -0.00022  -0.00135   0.00017  -0.00117   2.06225
   R17        2.88524  -0.00017  -0.00005  -0.00064  -0.00069   2.88455
   R18        2.06264   0.00004  -0.00151   0.00119  -0.00032   2.06232
   R19        2.06919  -0.00002  -0.00071   0.00044  -0.00027   2.06892
   R20        2.06475  -0.00017  -0.00146   0.00043  -0.00104   2.06372
   R21        2.06736  -0.00028  -0.00125  -0.00010  -0.00136   2.06600
    A1        2.12459   0.00002   0.00448  -0.00305   0.00143   2.12602
    A2        2.18964   0.00080  -0.00093   0.00445   0.00352   2.19316
    A3        1.96895  -0.00082  -0.00355  -0.00139  -0.00494   1.96400
    A4        1.85645   0.00155   0.00784   0.00593   0.01377   1.87022
    A5        1.93636   0.00040  -0.00014   0.00561   0.00550   1.94186
    A6        1.93635   0.00039  -0.00013   0.00559   0.00549   1.94184
    A7        1.84046  -0.00026  -0.00351   0.00197  -0.00154   1.83892
    A8        1.93789  -0.00065  -0.00195  -0.00560  -0.00762   1.93027
    A9        1.90492   0.00007   0.00292  -0.00374  -0.00084   1.90409
   A10        1.90493   0.00007   0.00292  -0.00375  -0.00084   1.90409
   A11        1.93364   0.00021  -0.00201  -0.00095  -0.00304   1.93060
   A12        1.91373   0.00002  -0.00107   0.00453   0.00351   1.91724
   A13        1.90627  -0.00042  -0.00357  -0.00455  -0.00810   1.89817
   A14        1.92605  -0.00014   0.00242   0.00023   0.00266   1.92871
   A15        1.91508   0.00008   0.00215  -0.00212  -0.00004   1.91504
   A16        1.86782   0.00023   0.00225   0.00293   0.00513   1.87295
   A17        1.94531  -0.00004  -0.00060  -0.00320  -0.00385   1.94146
   A18        1.91161   0.00018  -0.00041   0.00472   0.00434   1.91594
   A19        1.90936  -0.00018  -0.00003  -0.00314  -0.00317   1.90619
   A20        1.92302  -0.00009   0.00168   0.00160   0.00331   1.92632
   A21        1.90816   0.00017  -0.00030  -0.00016  -0.00047   1.90769
   A22        1.86459  -0.00003  -0.00034   0.00027  -0.00007   1.86452
   A23        1.94359   0.00037  -0.00113  -0.00230  -0.00347   1.94013
   A24        1.90484  -0.00011  -0.00082   0.00051  -0.00031   1.90453
   A25        1.92185  -0.00011   0.00153   0.00036   0.00191   1.92376
   A26        1.90485  -0.00011  -0.00082   0.00051  -0.00032   1.90453
   A27        1.92185  -0.00011   0.00153   0.00035   0.00190   1.92376
   A28        1.86502   0.00006  -0.00029   0.00070   0.00041   1.86543
   A29        1.94531  -0.00004  -0.00060  -0.00320  -0.00386   1.94146
   A30        1.92300  -0.00009   0.00170   0.00161   0.00332   1.92632
   A31        1.90815   0.00017  -0.00030  -0.00016  -0.00046   1.90769
   A32        1.91162   0.00018  -0.00041   0.00471   0.00432   1.91594
   A33        1.90937  -0.00018  -0.00004  -0.00313  -0.00317   1.90620
   A34        1.86459  -0.00003  -0.00034   0.00027  -0.00007   1.86452
   A35        1.93365   0.00021  -0.00201  -0.00096  -0.00305   1.93060
   A36        1.91374   0.00002  -0.00108   0.00452   0.00349   1.91723
   A37        1.90627  -0.00042  -0.00356  -0.00455  -0.00810   1.89817
   A38        1.92606  -0.00014   0.00242   0.00022   0.00266   1.92872
   A39        1.91508   0.00008   0.00215  -0.00211  -0.00003   1.91505
   A40        1.86779   0.00023   0.00226   0.00294   0.00515   1.87295
    D1       -0.00006   0.00000  -0.00002   0.00039   0.00037   0.00031
    D2       -3.14152  -0.00000   0.00001  -0.00040  -0.00039   3.14128
    D3        2.06031   0.00013   0.00137  -0.00078   0.00059   2.06090
    D4       -2.06011  -0.00014  -0.00134   0.00005  -0.00130  -2.06141
    D5        0.00010  -0.00000   0.00002  -0.00038  -0.00036  -0.00026
    D6       -1.08142   0.00014   0.00134   0.00005   0.00139  -1.08003
    D7        1.08134  -0.00013  -0.00138   0.00087  -0.00051   1.08083
    D8        3.14155   0.00000  -0.00001   0.00045   0.00044  -3.14120
    D9       -3.13821   0.00019   0.00454   0.01151   0.01606  -3.12214
   D10       -1.00810   0.00018   0.00554   0.01422   0.01976  -0.98834
   D11        1.03351   0.00023   0.00554   0.01772   0.02324   1.05675
   D12        0.98309  -0.00013   0.00623   0.00429   0.01052   0.99362
   D13        3.11320  -0.00015   0.00723   0.00700   0.01422   3.12742
   D14       -1.12838  -0.00010   0.00723   0.01049   0.01770  -1.11068
   D15       -1.11756   0.00015   0.00194   0.01488   0.01684  -1.10072
   D16        1.01255   0.00013   0.00294   0.01760   0.02053   1.03308
   D17        3.05415   0.00018   0.00294   0.02109   0.02402   3.07817
   D18        3.13821  -0.00020  -0.00454  -0.01153  -0.01608   3.12213
   D19        1.00807  -0.00018  -0.00552  -0.01422  -0.01974   0.98833
   D20       -1.03350  -0.00023  -0.00554  -0.01773  -0.02325  -1.05676
   D21       -0.98309   0.00013  -0.00623  -0.00430  -0.01053  -0.99362
   D22       -3.11323   0.00015  -0.00722  -0.00699  -0.01419  -3.12742
   D23        1.12838   0.00010  -0.00723  -0.01050  -0.01771   1.11068
   D24        1.11757  -0.00015  -0.00195  -0.01489  -0.01685   1.10072
   D25       -1.01257  -0.00013  -0.00293  -0.01758  -0.02051  -1.03308
   D26       -3.05415  -0.00018  -0.00295  -0.02109  -0.02402  -3.07817
   D27       -0.97050  -0.00006  -0.00395  -0.00821  -0.01215  -0.98265
   D28       -3.10308  -0.00004  -0.00540  -0.01135  -0.01674  -3.11982
   D29        1.14184  -0.00000  -0.00474  -0.01258  -0.01732   1.12452
   D30       -3.09339  -0.00014  -0.00290  -0.01345  -0.01633  -3.10972
   D31        1.05721  -0.00012  -0.00435  -0.01659  -0.02092   1.03629
   D32       -0.98105  -0.00008  -0.00369  -0.01783  -0.02150  -1.00255
   D33        1.13575  -0.00039  -0.00829  -0.01588  -0.02420   1.11155
   D34       -0.99683  -0.00037  -0.00974  -0.01902  -0.02879  -1.02562
   D35       -3.03509  -0.00033  -0.00908  -0.02026  -0.02936  -3.06446
   D36        0.95935  -0.00002   0.00141   0.00997   0.01138   0.97073
   D37       -1.14475  -0.00003   0.00371   0.01046   0.01416  -1.13058
   D38        3.09639   0.00003   0.00366   0.00910   0.01275   3.10914
   D39        3.08534   0.00012   0.00166   0.01491   0.01656   3.10190
   D40        0.98124   0.00010   0.00395   0.01540   0.01934   1.00058
   D41       -1.06081   0.00016   0.00390   0.01404   0.01793  -1.04288
   D42       -1.15369   0.00013   0.00205   0.01608   0.01813  -1.13557
   D43        3.02539   0.00011   0.00434   0.01657   0.02091   3.04631
   D44        0.98334   0.00017   0.00429   0.01521   0.01950   1.00285
   D45       -0.95934   0.00002  -0.00141  -0.00999  -0.01139  -0.97073
   D46       -3.08533  -0.00012  -0.00166  -0.01492  -0.01656  -3.10189
   D47        1.15371  -0.00013  -0.00205  -0.01609  -0.01814   1.13557
   D48        1.14476   0.00003  -0.00371  -0.01047  -0.01418   1.13058
   D49       -0.98124  -0.00010  -0.00395  -0.01540  -0.01934  -1.00058
   D50       -3.02538  -0.00011  -0.00435  -0.01657  -0.02092  -3.04630
   D51       -3.09638  -0.00003  -0.00366  -0.00912  -0.01277  -3.10915
   D52        1.06082  -0.00016  -0.00390  -0.01405  -0.01794   1.04288
   D53       -0.98332  -0.00017  -0.00430  -0.01522  -0.01952  -1.00285
   D54        0.97048   0.00006   0.00395   0.00824   0.01218   0.98266
   D55        3.09340   0.00014   0.00289   0.01346   0.01632   3.10972
   D56       -1.13577   0.00039   0.00828   0.01591   0.02422  -1.11155
   D57        3.10305   0.00004   0.00541   0.01138   0.01678   3.11983
   D58       -1.05722   0.00012   0.00435   0.01660   0.02092  -1.03630
   D59        0.99680   0.00037   0.00974   0.01905   0.02882   1.02562
   D60       -1.14186   0.00000   0.00474   0.01261   0.01734  -1.12452
   D61        0.98106   0.00008   0.00368   0.01782   0.02148   1.00254
   D62        3.03508   0.00033   0.00907   0.02028   0.02938   3.06446
         Item               Value     Threshold  Converged?
 Maximum Force            0.005777     0.000450     NO 
 RMS     Force            0.000683     0.000300     NO 
 Maximum Displacement     0.040621     0.001800     NO 
 RMS     Displacement     0.011702     0.001200     NO 
 Predicted change in Energy=-1.502842D-04
 GradGradGradGradGradGradGradGradGradGradGradGradGradGradGradGradGradGrad

                          Input orientation:                          
 ---------------------------------------------------------------------
 Center     Atomic      Atomic             Coordinates (Angstroms)
 Number     Number       Type             X           Y           Z
 ---------------------------------------------------------------------
      1          8           0        3.012573   -0.163884   -1.516701
      2          6           0        2.279512    0.085280   -0.600691
      3          8           0        2.740192    0.592336    0.560776
      4          6           0        0.787350   -0.116889   -0.590438
      5          6           0        0.369650   -1.123314    0.489834
      6          6           0       -1.141498   -1.337807    0.469066
      7          6           0       -1.889841   -0.017576    0.636609
      8          6           0       -1.463764    0.995789   -0.422944
      9          6           0        0.046877    1.213948   -0.403571
     10          1           0        3.698201    0.689524    0.469599
     11          1           0        0.544087   -0.526159   -1.573254
     12          1           0        0.892543   -2.069793    0.336931
     13          1           0        0.674166   -0.737464    1.466389
[...]
 1,0.00001575,0.00003890,0.00000107,-0.00003936,0.00012717,0.00028546,-
 0.00022771,0.00003941,-0.00023826,0.05675526,0.02415346,0.00692726,0.0
 0344543,0.00034792,-0.05202761,-0.00657533,0.00591413,0.07858308,-0.00
 204074,-0.04955299,-0.00049272,-0.00361596,-0.00530307,0.00020494,-0.0
 0002356,-0.00024394,-0.00004831,0.00005779,0.00017130,0.00003684,0.000
 00223,0.00002882,-0.00004225,-0.00003555,-0.00001929,0.00055969,-0.000
 15597,-0.00007008,-0.03230587,0.00896551,0.04801959,0.00232102,0.00100
 771,0.00154540,-0.00833189,-0.01388222,-0.03384069,-0.00828852,-0.0012
 7509,0.00004554,-0.06273564,-0.02112379,-0.04951365,0.00153087,0.00324
 857,0.00827953,0.00087473,0.00061494,0.00096048,-0.00021053,-0.0000034
 8,0.00001808,0.00129921,0.00018767,0.00111876,0.00289264,0.00668353,0.
 01473591,-0.00056161,-0.00072364,-0.00151507,0.07236165,0.00089014,-0.
 00012221,0.00118713,-0.00029828,-0.00366107,-0.00562558,-0.00136820,0.
 00090065,0.00004095,-0.02429868,-0.08394180,-0.08836222,0.00477225,0.0
 0764777,0.02163943,0.00110429,0.00092304,-0.00010433,0.00009181,-0.000
 09536,0.00007122,-0.00156043,0.00104682,-0.00011518,-0.00561446,-0.013
 44883,-0.02657670,-0.00011432,0.00032548,-0.00037898,0.02452124,0.0956
 1666,0.00123839,0.00114470,0.00184873,0.00169737,-0.00071946,-0.003965
 32,-0.00019821,0.00000725,0.00116456,-0.05781981,-0.08950900,-0.260107
 65,-0.00480706,-0.00673885,-0.02238063,-0.00101651,-0.00103597,0.00066
 980,0.00026738,0.00010564,0.00004455,-0.00019749,0.00036184,0.00012160
 ,-0.00036563,-0.00208968,-0.00264605,0.00007927,-0.00015891,0.00004174
 ,0.05821704,0.09498688,0.28340767,0.00020901,0.00038192,-0.00010346,0.
 00094388,-0.00107468,-0.00046167,0.00006149,0.00040405,-0.00001334,0.0
 0425236,-0.00947673,-0.00209936,-0.10654383,0.10848971,0.01780977,-0.0
 1580222,0.02987083,0.00530906,-0.00646719,-0.00351302,-0.00057573,-0.0
 0001803,-0.00047284,0.00029637,-0.00036278,-0.00159121,0.00186834,-0.0
 0007879,0.00001550,-0.00001473,0.00010473,0.00054526,-0.00028041,0.117
 43505,-0.00101894,0.00043892,0.00053042,0.00233467,-0.00104811,-0.0004
 6973,-0.00069333,0.00020909,-0.00026886,0.00798671,-0.01837495,-0.0033
 8533,0.10888461,-0.24690817,-0.03450968,-0.00355789,0.00645192,0.00091
 024,-0.00124178,0.00066164,-0.00001200,-0.00050848,0.00024560,-0.00009
 695,-0.00226768,-0.00162701,0.00411653,-0.00007777,-0.00022846,0.00006
 570,0.00010677,0.00077475,0.00012216,-0.11677668,0.26849274,0.00004324
 ,-0.00049335,-0.00043725,-0.00123585,0.00031433,0.00156989,-0.00003865
 ,0.00007245,-0.00028822,-0.01106681,0.02222648,0.00282130,0.01856172,-
 0.03607240,-0.05516000,-0.00126033,0.00075893,-0.00076815,0.00037659,0
 .00004472,0.00050138,0.00032283,-0.00017680,-0.00001591,0.00228140,0.0
 0243977,-0.00355041,-0.00000409,0.00001918,0.00012034,-0.00058704,-0.0
 0063219,0.00075156,-0.02133513,0.03430778,0.05653379,-0.00013667,-0.00
 039203,-0.00049871,0.00105543,0.00122951,0.00192587,-0.00141300,-0.000
 67290,-0.00032191,0.00164578,0.00302854,0.00922065,-0.06605369,-0.0234
 9496,-0.06401435,-0.01135818,-0.01248243,-0.03044022,0.00182882,-0.000
 95416,-0.00101600,-0.00021667,0.00009257,0.00006506,0.00001789,0.00038
 360,-0.00066358,-0.00007557,-0.00007537,0.00000717,-0.00014434,-0.0016
 4404,0.00136672,0.00409206,0.00505075,0.01440209,0.07553352,-0.0001579
 2,-0.00003234,-0.00016945,0.00042406,0.00091414,-0.00004399,-0.0005245
 1,-0.00069501,0.00043216,0.00580686,0.00634713,0.02099977,-0.02348934,
 -0.08367352,-0.08613209,-0.00197755,-0.00280615,-0.00468982,0.00062972
 ,0.00051037,0.00083151,-0.00001562,-0.00017415,0.00008076,0.00023682,0
 .00185088,0.00067423,-0.00002451,0.00000230,-0.00013259,-0.00128210,-0
 .00247557,0.00331602,-0.00800191,-0.00952319,-0.02480557,0.02985647,0.
 08893816,0.00061269,0.00035102,0.00095055,-0.00224687,-0.00132189,-0.0
 0300141,-0.00009940,-0.00003928,0.00170288,-0.00500223,-0.00714335,-0.
 02463956,-0.06261663,-0.08384962,-0.25480558,-0.00008057,-0.00003305,0
 .00074338,0.00028038,0.00027896,0.00024326,-0.00005291,0.00028132,0.00
 006130,-0.00004339,-0.00169253,0.00089523,0.00016024,-0.00010408,0.000
 38559,0.00151314,0.00364394,-0.00194037,-0.00061466,-0.00149319,-0.003
 42857,0.06843235,0.08981122,0.27977989,-0.00132690,0.00050048,0.000200
 91,0.00193450,-0.00152385,0.00178664,-0.00055140,-0.00007043,-0.000617
 52,-0.00752649,-0.00063620,-0.00140399,-0.00947517,-0.02159751,0.02518
 159,-0.06425876,-0.04385851,0.04909576,0.00455984,0.01083244,-0.013717
 86,-0.00183140,0.00322396,0.00108556,-0.00018369,0.00057346,-0.0001713
 2,0.00002810,0.00005254,0.00001276,0.00006662,0.00024885,-0.00008761,0
 .00119516,0.00066112,0.00023142,0.00134787,-0.00005246,-0.00049501,0.0
 7273501,-0.00026861,-0.00001635,0.00004973,0.00052793,0.00012031,0.000
 29904,-0.00012975,-0.00002144,-0.00010345,-0.00068644,0.00101270,-0.00
 078181,-0.00136569,-0.00290039,0.00245011,-0.04399123,-0.15449915,0.12
 194955,-0.00768607,-0.01867317,0.02143745,0.00408659,-0.00409884,-0.00
 261833,0.00047306,0.00036955,-0.00019353,0.00003363,-0.00000319,0.0000
 3013,0.00000772,-0.00006435,0.00022306,-0.00020219,0.00044275,-0.00027
 595,-0.00001404,-0.00011207,-0.00004765,0.04639776,0.16862270,0.000104
 95,0.00003570,-0.00005985,-0.00028077,0.00019166,0.00025044,0.00024387
 ,0.00005157,0.00005829,-0.00008294,-0.00041866,0.00078095,-0.00113939,
 -0.00206110,0.00102716,0.04982271,0.12331029,-0.18966294,-0.00175552,-
 0.00463244,0.00375533,0.00016071,-0.00058611,0.00063044,-0.00005465,-0
 .00016114,0.00000656,-0.00000541,0.00000009,0.00001039,-0.00014642,-0.
 00018685,0.00046833,0.00051911,-0.00006511,-0.00007960,0.00040894,-0.0
 0011926,0.00057229,-0.05454623,-0.13382852,0.20138365,-0.00004030,0.00
 011927,0.00031083,-0.00014214,0.00024250,-0.00071275,0.00003698,-0.000
 08670,0.00051664,0.00154009,0.00057744,-0.00170224,-0.01167300,-0.0145
 5502,-0.03065146,-0.06345907,-0.02798894,-0.05667069,0.00372029,0.0082
 8097,0.01599427,0.00020078,-0.00092061,0.00023254,-0.00016719,-0.00001
 099,0.00010486,0.00007213,-0.00002470,0.00011025,-0.00004653,-0.000221
 36,0.00096160,0.00124469,0.00054389,0.00010623,-0.00637731,-0.00108287
 ,0.00061139,0.00178072,0.00404393,0.00730983,0.07383648,0.00008406,0.0
 0001173,0.00004587,-0.00024406,0.00004603,-0.00002926,0.00012111,0.000
 03267,0.00015216,0.00020960,-0.00005415,-0.00094658,-0.00143232,-0.002
 19587,-0.00338150,-0.02810765,-0.09143242,-0.09012717,-0.00664108,-0.0
 1407353,-0.02638168,-0.00072307,0.00137010,-0.00147220,-0.00000493,-0.
 00020656,0.00020190,0.00002079,-0.00000986,0.00001902,-0.00030275,-0.0
 0011677,0.00028119,-0.00004757,0.00034482,0.00047508,-0.00063864,0.000
 82023,-0.00002806,0.00594793,0.00895107,0.01784240,0.02843335,0.099781
 91,-0.00020118,0.00009129,0.00015006,0.00017668,-0.00003522,0.00000851
 ,0.00010204,0.00004734,0.00009440,0.00048422,0.00016917,0.00082816,-0.
 00053852,0.00038863,-0.00104062,-0.05752674,-0.09101660,-0.24480360,-0
 .00022844,-0.00191106,-0.00438091,-0.00007857,0.00066020,0.00084591,0.
 00004625,0.00001258,0.00011776,0.00004510,0.00003127,0.00001764,-0.000
 12943,-0.00045186,0.00040947,-0.00057963,0.00015558,0.00022358,0.00006
 330,0.00046113,0.00132892,-0.00601126,-0.00961255,-0.02040518,0.063308
 40,0.10198849,0.26457652,0.00007513,-0.00002015,-0.00008336,-0.0001271
 5,0.00002111,0.00014601,0.00004554,-0.00001030,-0.00004839,-0.00017063
 ,0.00002461,0.00006968,0.00127584,0.00011842,0.00114541,0.00228438,0.0
 0675749,0.01512289,-0.06089900,-0.02044612,-0.04801823,0.00096414,0.00
 323613,0.00832874,0.00084255,0.00069071,0.00094490,-0.00002168,-0.0000
 1149,-0.00002186,-0.00001528,-0.00004317,-0.00017324,0.00017106,-0.000
 09826,-0.00023487,-0.00015708,0.00001674,-0.00035673,0.00045776,-0.000
 74371,-0.00036594,-0.00097915,0.00299630,0.00078032,0.06157836,0.00004
 625,0.00000514,0.00002204,-0.00010371,0.00006216,-0.00012489,0.0000594
 3,0.00002056,0.00006851,0.00007847,-0.00010324,0.00010965,-0.00150772,
 0.00104914,-0.00006520,-0.00565912,-0.01405227,-0.02806738,-0.02003986
 ,-0.08180415,-0.08710450,0.00443775,0.00759283,0.02262531,0.00108421,0
 .00086390,-0.00012648,-0.00000272,-0.00000127,-0.00000513,-0.00005195,
 -0.00016554,0.00006245,-0.00019087,0.00007790,0.00045746,0.00074176,0.
 00045002,0.00043298,-0.00069123,0.00077302,0.00034053,0.00366719,-0.00
 470287,-0.00040111,0.02036217,0.09409897,0.00009037,0.00004603,0.00007
 811,-0.00018054,-0.00016996,-0.00025526,0.00013404,0.00009370,0.000182
 90,0.00021058,0.00012910,0.00010571,-0.00017939,0.00042459,0.00008491,
 -0.00084373,-0.00185048,-0.00329673,-0.04695535,-0.08695777,-0.2562867
 3,-0.00504564,-0.00764205,-0.02362157,-0.00095518,-0.00106146,0.000703
 39,0.00000110,-0.00000196,-0.00000446,-0.00019622,0.00005927,0.0000437
 1,0.00012158,0.00008299,0.00026687,0.00066515,0.00001582,0.00001144,0.
 00025489,-0.00034897,0.00062869,0.00024162,-0.00039424,0.00131667,0.05
 109049,0.09353050,0.28178320,-0.00024812,0.00001361,0.00011531,0.00053
 672,0.00001804,-0.00011927,-0.00016151,-0.00005484,-0.00004907,0.00044
 746,0.00000312,-0.00028407,0.00020408,0.00396311,0.00055344,-0.0147405
 8,-0.00274782,-0.00127270,-0.30613287,-0.04134044,-0.01439831,-0.00740
 715,-0.00116028,-0.00081956,0.00119906,-0.00142237,0.00175715,0.000039
 67,0.00002161,0.00002908,-0.00004387,-0.00000142,0.00005141,-0.0010640
 4,-0.00029627,0.00016741,0.00033152,-0.00000964,0.00000444,0.00038274,
 0.00017818,-0.00041580,0.00051498,-0.00005153,0.00046759,-0.00588242,-
 0.00100862,-0.00077491,0.33173973,-0.00001121,-0.00002053,0.00002216,-
 0.00001345,0.00005270,-0.00005556,-0.00002342,0.00008949,-0.00001879,-
 0.00000544,-0.00030996,0.00013715,0.00193950,-0.00597928,-0.00094709,0
 .03083413,0.00509123,0.00191121,-0.04194273,-0.05352982,-0.00315356,-0
 .02265241,-0.00377179,-0.00237922,-0.00027122,-0.00316315,0.00416842,0
 .00000602,-0.00002996,0.00001466,-0.00002097,0.00008898,-0.00004410,0.
 00194590,0.00022809,-0.00013878,-0.00014903,-0.00002907,0.00012410,-0.
 00066555,0.00109122,0.00052197,-0.00071024,0.00116870,-0.00022160,-0.0
 1182017,-0.00246391,-0.00028902,0.04395467,0.06025665,0.00005034,0.000
 01321,-0.00001108,-0.00020166,-0.00006696,-0.00002656,0.00003313,-0.00
 000743,0.00006849,-0.00030643,0.00013406,0.00009976,-0.00007336,-0.000
 43626,0.00040017,0.00456657,0.00011100,-0.00081475,-0.01597409,-0.0033
 7110,-0.04958461,0.02497086,0.00378741,0.00071483,0.00010141,0.0033424
 9,-0.00341091,-0.00001173,0.00000903,-0.00000852,0.00000024,-0.0000511
 6,-0.00002519,0.00006715,0.00006806,0.00038541,0.00049415,0.00009511,0
 .00021600,-0.00044248,0.00003219,-0.00000450,0.00023506,0.00041141,0.0
 0016870,-0.02906036,-0.00419376,-0.00119801,0.01461519,0.00100523,0.05
 115604,-0.00121835,-0.00052451,0.00059433,0.00144811,0.00269272,0.0001
 8800,-0.00052869,-0.00049454,-0.00046788,-0.00712605,-0.00257898,-0.00
 075721,0.00011622,-0.00062422,0.00027750,-0.00030330,-0.00152590,0.001
 79678,0.00496484,-0.00958278,-0.00239250,-0.10442045,0.10775064,0.0179
 0157,-0.01639789,0.02940427,0.00542969,0.00004466,-0.00001527,0.000043
 51,0.00014111,-0.00020360,0.00009616,0.00014110,0.00006289,-0.00003141
 ,0.00005113,0.00005808,-0.00009734,0.00049609,-0.00062109,0.00020079,-
 0.00012916,0.00025301,0.00009836,0.00015787,0.00051109,-0.00028577,0.0
 0037093,0.00014099,-0.00063916,0.11574604,-0.00001246,-0.00014064,0.00
 008522,-0.00021066,0.00045073,0.00007824,0.00012908,-0.00001660,-0.000
 01521,-0.00164181,0.00099122,-0.00007895,-0.00046951,0.00013615,-0.000
 03935,-0.00259494,-0.00147677,0.00437895,0.00977891,-0.01855377,-0.004
 12158,0.10845025,-0.24957130,-0.03552396,-0.00343155,0.00587481,0.0009
 6118,-0.00001573,-0.00002328,0.00000281,-0.00009862,0.00007534,0.00009
 119,0.00007390,0.00003590,-0.00008361,0.00007735,0.00001073,0.00001003
 ,0.00101175,-0.00120461,-0.00001211,-0.00018505,0.00042087,0.00001577,
 0.00020553,0.00092352,0.00018101,-0.00042929,0.00026857,-0.00046176,-0
 .11641410,0.27045089,0.00001764,0.00000640,-0.00004405,0.00002743,-0.0
 0012197,0.00040644,0.00014716,0.00003360,0.00003071,0.00024235,-0.0001
 2174,0.00040194,0.00030290,-0.00005213,-0.00005994,0.00218165,0.002272
 19,-0.00351974,-0.01214891,0.02225285,0.00323095,0.01865781,-0.0366799
 5,-0.05442898,-0.00122436,0.00092024,-0.00082535,0.00001096,0.00002584
 ,0.00001393,-0.00020132,0.00045192,0.00025417,-0.00005818,-0.00008683,
 0.00002946,-0.00003107,-0.00003110,-0.00000976,-0.00060196,0.00128194,
 0.00025928,0.00003860,0.00030695,0.00020963,-0.00060165,-0.00063780,0.
 00077807,0.00004958,-0.00085277,0.00082996,-0.02115656,0.03617714,0.05
 654429,-0.00000176,0.00011652,0.00029539,-0.00008232,-0.00068560,-0.00
 034003,-0.00001336,0.00041662,0.00033727,0.00174850,-0.00130231,-0.001
 24534,-0.00018856,0.00009486,0.00007915,-0.00010109,0.00032380,-0.0005
 6343,0.00225657,0.00332024,0.01020054,-0.06548258,-0.02130347,-0.06133
 657,-0.01192132,-0.01217523,-0.03129580,0.00005150,0.00010942,0.000056
 61,-0.00023611,0.00074869,0.00059675,0.00004035,0.00007545,-0.00004988
 ,-0.00002486,-0.00008556,0.00016235,-0.00009885,0.00010007,0.00002199,
 0.00008251,0.00004780,-0.00029174,0.00028547,-0.00182830,0.00166366,0.
 00030860,0.00058766,-0.00006410,0.00400116,0.00455048,0.01404613,0.074
 42160,-0.00018888,-0.00001361,0.00017493,0.00026193,-0.00003344,-0.000
 12903,-0.00002057,0.00005604,0.00004898,0.00050882,0.00045765,0.000752
 86,0.00003471,-0.00013937,0.00006944,0.00016482,0.00176351,0.00069783,
 0.00607278,0.00657107,0.02143179,-0.02185675,-0.07895718,-0.07960754,-
 0.00190842,-0.00295848,-0.00501167,0.00003371,0.00000775,0.00002941,0.
 00002746,0.00041230,0.00003606,0.00004387,0.00001007,-0.00004262,-0.00
 008723,-0.00010457,-0.00009224,-0.00021529,0.00015710,-0.00026136,-0.0
 0018974,-0.00024830,-0.00040038,-0.00097283,-0.00250113,0.00367913,0.0
 0018937,0.00085086,-0.00089358,-0.00810270,-0.00945185,-0.02532293,0.0
 2744433,0.08340410,-0.00008381,0.00000646,0.00013685,-0.00002338,0.000
 04344,0.00002820,0.00015171,0.00007095,0.00012139,0.00034430,0.0001584
 1,0.00010793,-0.00000374,0.00023924,0.00007194,-0.00015146,-0.00142066
 ,0.00075436,-0.00541495,-0.00743400,-0.02356175,-0.06223858,-0.0789608
 3,-0.25525538,-0.00021648,-0.00033436,-0.00002978,0.00004268,0.0000062
 4,0.00002066,-0.00041210,0.00047923,0.00006998,-0.00009395,0.00002232,
 -0.00000593,0.00017883,-0.00010028,0.00000605,0.00028321,0.00007413,0.
 00044309,-0.00038635,0.00094271,0.00048971,0.00160784,0.00375266,-0.00
 214965,0.00038468,-0.00016652,0.00069289,-0.00075503,-0.00175018,-0.00
 422267,0.06697039,0.08446003,0.28036922,0.00007510,-0.00033873,0.00039
 275,0.00127802,0.00085789,-0.00153123,0.00000933,-0.00036796,0.0002559
 7,0.00337764,0.01076448,-0.01314044,-0.00184868,0.00331464,0.00101715,
 -0.00027651,0.00040888,-0.00003760,-0.00708283,0.00036815,-0.00198634,
 -0.00878872,-0.02198695,0.02542686,-0.06585130,-0.04510065,0.05028173,
 -0.00010001,0.00000069,-0.00002546,0.00038406,-0.00071151,0.00025524,0
 .00056339,0.00097509,-0.00066278,-0.00008669,-0.00017427,0.00026526,0.
 00017713,-0.00007836,-0.00001610,0.00007865,-0.00007612,-0.00003734,0.
 00009866,0.00026168,-0.00006628,-0.00062052,-0.00163019,0.00141419,0.0
 0118922,0.00067720,0.00020996,0.00132749,-0.00003815,-0.00053227,0.074
 15060,0.00071438,0.00013031,-0.00095065,-0.00213350,-0.00021413,0.0016
 0775,0.00046851,0.00012005,-0.00004808,-0.00588314,-0.01863137,0.02064
 865,0.00394060,-0.00416577,-0.00233064,0.00044572,0.00050979,-0.000220
 03,-0.00070355,0.00095331,-0.00065143,-0.00126541,-0.00252837,0.002197
 12,-0.04504471,-0.15455618,0.12023315,0.00007331,-0.00010217,0.0001362
 2,-0.00065248,0.00072136,-0.00025792,-0.00063886,-0.00111240,0.0013078
 5,0.00006295,0.00011405,0.00003123,-0.00005227,0.00008200,0.00001230,-
 0.00007675,-0.00002819,-0.00004085,-0.00000765,-0.00005811,0.00024276,
 0.00009673,0.00001290,0.00029406,-0.00017745,0.00045924,-0.00026687,-0
 .00000235,-0.00011118,-0.00003924,0.04682725,0.16953237,-0.00066392,-0
 .00005241,0.00000543,0.00033688,0.00097441,0.00040161,-0.00040128,-0.0
 0048348,-0.00014710,-0.00203899,-0.00466848,0.00395230,0.00047197,-0.0
 0067213,0.00047426,-0.00006095,-0.00013974,-0.00002163,0.00019959,-0.0
 0027492,0.00082535,-0.00124859,-0.00224094,0.00119864,0.05070928,0.121
 95875,-0.18820448,-0.00009004,0.00017530,0.00001526,-0.00043090,0.0003
 5936,0.00052565,0.00014184,-0.00005200,0.00036125,0.00002588,-0.000252
 59,0.00043254,-0.00000338,0.00001454,-0.00005267,-0.00000044,0.0000352
 8,-0.00000597,-0.00017218,-0.00019555,0.00047527,-0.00003407,0.0003148
 1,0.00015709,0.00052029,-0.00005291,-0.00009014,0.00042291,-0.00013219
 ,0.00059679,-0.05557177,-0.13285140,0.19877864,-0.00026187,-0.00015264
 ,-0.00071024,0.00145066,0.00061451,0.00247253,-0.00159302,-0.00000761,
 -0.00067064,0.00305223,0.00775124,0.01510592,0.00035401,-0.00104115,0.
 00020280,-0.00020320,-0.00001554,0.00009117,0.00170805,0.00051132,-0.0
 0131941,-0.01131776,-0.01367909,-0.03026270,-0.06461854,-0.02894163,-0
 .06155157,-0.00009989,-0.00001601,-0.00007733,-0.00136233,0.00315691,0
 .00011866,-0.00011743,-0.00014487,0.00001390,0.00014003,-0.00015046,-0
 .00033649,0.00009111,-0.00006169,0.00001626,-0.00009445,0.00015578,0.0
 0005059,0.00001562,-0.00016589,0.00100952,0.00022557,0.00050718,0.0002
 2508,0.00125541,0.00054927,0.00009183,-0.00637296,-0.00120122,0.000348
 42,0.00194595,0.00400865,0.00788787,0.07580280,0.00044824,0.00041060,0
 .00053130,-0.00163551,-0.00045192,-0.00177913,-0.00001548,0.00024997,0
 .00075532,-0.00621087,-0.01461381,-0.02669709,-0.00073862,0.00160003,-
 0.00156115,0.00000629,-0.00025657,0.00022247,0.00012513,-0.00011189,-0
 .00079040,-0.00120877,-0.00182813,-0.00303668,-0.02782214,-0.08815242,
 -0.08717790,0.00004889,0.00031715,0.00019489,0.00301150,-0.00444166,-0
 .00018456,0.00021563,0.00040810,0.00029722,0.00008133,-0.00033236,0.00
 088015,-0.00008700,-0.00002888,0.00002614,0.00014445,0.00012041,0.0000
 6978,-0.00025535,-0.00006467,0.00023103,0.00008408,0.00009807,0.000178
 76,-0.00000855,0.00034087,0.00044501,-0.00055311,0.00082866,-0.0000497
 5,0.00604693,0.00887250,0.01823632,0.02832294,0.09703594,0.00036295,0.
 00031238,0.00063272,-0.00134853,-0.00160462,-0.00203053,-0.00052543,0.
 00127749,0.00093802,0.00006923,-0.00259325,-0.00508518,-0.00000993,0.0
 0086182,0.00080996,-0.00001682,-0.00000928,0.00013026,0.00051772,0.000
 19473,0.00098631,-0.00051403,0.00060437,-0.00027508,-0.06000572,-0.089
 05400,-0.25176143,0.00007248,0.00020815,0.00009504,0.00053873,-0.00043
 426,0.00124369,0.00009703,0.00005791,0.00016923,-0.00027034,-0.0002409
 8,0.00049594,-0.00003412,-0.00003110,-0.00001014,0.00004179,0.00005824
 ,-0.00014934,-0.00009949,-0.00048031,0.00035346,-0.00002749,0.00004730
 ,0.00019480,-0.00056410,0.00015806,0.00021180,0.00033374,0.00051308,0.
 00131612,-0.00591150,-0.00905401,-0.01967809,0.06729383,0.09920826,0.2
 7141244\\0.00000694,-0.00000440,-0.00001410,0.00001453,0.00001174,0.00
 002578,-0.00001391,-0.00000616,-0.00001099,-0.00000374,0.00000008,0.00
 000126,0.00000099,-0.00000509,-0.00000235,-0.00000070,-0.00000262,0.00
 000458,-0.00000026,-0.00000009,-0.00000017,-0.00000175,0.00000470,0.00
 000177,-0.00000012,0.00000224,-0.00000516,-0.00000056,-0.00000084,-0.0
 0000201,0.00000221,0.00000103,0.00000186,-0.00000180,-0.00000006,0.000
 00352,-0.00000082,0.00000113,-0.00000049,-0.00000166,-0.00000164,-0.00
 000226,0.00000167,-0.00000027,-0.00000221,0.00000004,0.00000075,0.0000
 0193,0.00000153,0.00000039,0.00000044,-0.00000180,-0.00000067,-0.00000
 261,0.00000175,-0.00000087,-0.00000200,-0.00000208,0.00000196,0.000002
 72,-0.00000046,-0.00000130,0.00000048\\\@
 The archive entry for this job was punched.


 FAULTILY FAULTLESS, ICILY REGULAR, SPLENDIDLY NULL...
           MAUDE BY TENNYSON
 Job cpu time:       0 days  1 hours 54 minutes 59.6 seconds.
 Elapsed time:       0 days  0 hours 14 minutes 28.5 seconds.
 File lengths (MBytes):  RWF=    215 Int=      0 D2E=      0 Chk=     11 Scr=      1
 Normal termination of Gaussian 16 at Mon Jan 29 09:58:58 2024.
