 Entering Gaussian System, Link 0=/usr/local/Gaussian/G16C/g16/g16
 Input=arbr34_wb97xd_popn.com
 Output=arbr34_wb97xd_popn.log
 Initial command:
 /usr/local/Gaussian/G16C/g16/l1.exe "/home/rpaton/opt/tzvp/popn/Gau-2152368.inp" -scrdir="/home/rpaton/opt/tzvp/popn/"
 Entering Link 1 = /usr/local/Gaussian/G16C/g16/l1.exe PID=   2152369.
  
 Copyright (c) 1988-2019, Gaussian, Inc.  All Rights Reserved.
  
 This is part of the Gaussian(R) 16 program.  It is based on
 the Gaussian(R) 09 system (copyright 2009, Gaussian, Inc.),
 the Gaussian(R) 03 system (copyright 2003, Gaussian, Inc.),
 the Gaussian(R) 98 system (copyright 1998, Gaussian, Inc.),
 the Gaussian(R) 94 system (copyright 1995, Gaussian, Inc.),
 the Gaussian 92(TM) system (copyright 1992, Gaussian, Inc.),
 the Gaussian 90(TM) system (copyright 1990, Gaussian, Inc.),
 the Gaussian 88(TM) system (copyright 1988, Gaussian, Inc.),
 the Gaussian 86(TM) system (copyright 1986, Carnegie Mellon
 University), and the Gaussian 82(TM) system (copyright 1983,
 Carnegie Mellon University). Gaussian is a federally registered
 trademark of Gaussian, Inc.
  
 This software contains proprietary and confidential information,
 including trade secrets, belonging to Gaussian, Inc.
  
 This software is provided under written license and may be
 used, copied, transmitted, or stored only in accord with that
 written license.
  
 The following legend is applicable only to US Government
 contracts under FAR:
  
                    RESTRICTED RIGHTS LEGEND
  
 Use, reproduction and disclosure by the US Government is
 subject to restrictions as set forth in subparagraphs (a)
 and (c) of the Commercial Computer Software - Restricted
 Rights clause in FAR 52.227-19.
  
 Gaussian, Inc.
 340 Quinnipiac St., Bldg. 40, Wallingford CT 06492
  
  
 ---------------------------------------------------------------
 Warning -- This program may not be used in any manner that
 competes with the business of Gaussian, Inc. or will provide
 assistance to any competitor of Gaussian, Inc.  The licensee
 of this program is prohibited from giving any competitor of
 Gaussian, Inc. access to this program.  By using this program,
 the user acknowledges that Gaussian, Inc. is engaged in the
 business of creating and licensing software in the field of
 computational chemistry and represents and warrants to the
 licensee that it is not a competitor of Gaussian, Inc. and that
 it will not use this program in any manner prohibited above.
 ---------------------------------------------------------------
  

 Cite this work as:
 Gaussian 16, Revision C.01,
 M. J. Frisch, G. W. Trucks, H. B. Schlegel, G. E. Scuseria, 
 M. A. Robb, J. R. Cheeseman, G. Scalmani, V. Barone, 
 G. A. Petersson, H. Nakatsuji, X. Li, M. Caricato, A. V. Marenich, 
 J. Bloino, B. G. Janesko, R. Gomperts, B. Mennucci, H. P. Hratchian, 
 J. V. Ortiz, A. F. Izmaylov, J. L. Sonnenberg, D. Williams-Young, 
 F. Ding, F. Lipparini, F. Egidi, J. Goings, B. Peng, A. Petrone, 
 T. Henderson, D. Ranasinghe, V. G. Zakrzewski, J. Gao, N. Rega, 
 G. Zheng, W. Liang, M. Hada, M. Ehara, K. Toyota, R. Fukuda, 
 J. Hasegawa, M. Ishida, T. Nakajima, Y. Honda, O. Kitao, H. Nakai, 
 T. Vreven, K. Throssell, J. A. Montgomery, Jr., J. E. Peralta, 
 F. Ogliaro, M. J. Bearpark, J. J. Heyd, E. N. Brothers, K. N. Kudin, 
 V. N. Staroverov, T. A. Keith, R. Kobayashi, J. Normand, 
 K. Raghavachari, A. P. Rendell, J. C. Burant, S. S. Iyengar, 
 J. Tomasi, M. Cossi, J. M. Millam, M. Klene, C. Adamo, R. Cammi, 
 J. W. Ochterski, R. L. Martin, K. Morokuma, O. Farkas, 
 J. B. Foresman, and D. J. Fox, Gaussian, Inc., Wallingford CT, 2019.
 
 ******************************************
 Gaussian 16:  ES64L-G16RevC.01  3-Jul-2019
                23-Sep-2024 
 ******************************************
 %chk=arbr34_wb97xd_popn.chk
 %mem=48GB
 %nprocshared=24
 Will use up to   24 processors via shared memory.
 ---------------------------------------------------
 # pop=(nbo6read,savenbos,hirshfeld) wb97xd/def2tzvp
 ---------------------------------------------------
 1/38=1,163=2,172=1/1;
 2/12=2,17=6,18=5,40=1/2;
 3/5=44,7=101,11=2,25=1,30=1,74=-58/1,2,3;
 4//1;
 5/5=2,38=5/2;
 6/7=2,8=2,9=2,10=2,28=1,40=2,73=1,79=1,113=1,114=1,124=2103,126=1/1,12;
 99/5=1,9=1/99;
 -----------------------------------------
 arbr34_wb97xd_popncreated by GaussianPrep
 -----------------------------------------
 Symbolic Z-matrix:
 Charge =  0 Multiplicity = 1
 Br                    3.81944  -0.11167  0. 
 C                     1.94045   0.14343   0. 
 C                     1.43445   1.43586   0. 
 C                     0.06234   1.63584   0. 
 C                    -0.78157   0.53687   0. 
 C                    -0.25577  -0.75802   0. 
 C                     1.10948  -0.96781   0. 
 C                    -1.36989  -1.77202  0. 
 C                    -2.60302  -0.90569   0. 
 C                    -3.93455  -1.27575   0. 
 C                    -4.90783  -0.2841    0. 
 C                    -4.55028   1.05938   0. 
 C                    -3.21515   1.43507  0. 
 C                    -2.24421   0.44542  0. 
 H                     2.11076   2.27943   0. 
 H                    -0.3337    2.64375  0. 
 H                     1.5277   -1.96588   0. 
 H                    -1.32712  -2.42047  -0.8791 
 H                    -1.32713  -2.42047   0.87909 
 H                    -4.21993  -2.32107   0. 
 H                    -5.9548   -0.5596    0. 
 H                    -5.32198   1.81873   0. 
 H                    -2.94084   2.48295   0. 
 
                          Input orientation:                          
 ---------------------------------------------------------------------
 Center     Atomic      Atomic             Coordinates (Angstroms)
 Number     Number       Type             X           Y           Z
 ---------------------------------------------------------------------
      1         35           0        3.819441   -0.111666   -0.000001
      2          6           0        1.940451    0.143434    0.000003
      3          6           0        1.434452    1.435857    0.000001
      4          6           0        0.062340    1.635844    0.000000
      5          6           0       -0.781567    0.536872    0.000000
      6          6           0       -0.255770   -0.758021    0.000002
      7          6           0        1.109476   -0.967808    0.000003
      8          6           0       -1.369891   -1.772021   -0.000002
      9          6           0       -2.603024   -0.905689    0.000000
     10          6           0       -3.934550   -1.275751    0.000001
     11          6           0       -4.907833   -0.284097    0.000000
     12          6           0       -4.550283    1.059384    0.000000
     13          6           0       -3.215154    1.435071   -0.000002
     14          6           0       -2.244210    0.445415   -0.000002
     15          1           0        2.110761    2.279434    0.000000
     16          1           0       -0.333704    2.643750   -0.000001
     17          1           0        1.527701   -1.965881    0.000002
     18          1           0       -1.327123   -2.420471   -0.879096
     19          1           0       -1.327126   -2.420471    0.879091
     20          1           0       -4.219932   -2.321068    0.000000
     21          1           0       -5.954802   -0.559597    0.000000
     22          1           0       -5.321985    1.818730    0.000001
     23          1           0       -2.940836    2.482950    0.000000
 ---------------------------------------------------------------------
                    Distance matrix (angstroms):
                    1          2          3          4          5
     1  Br   0.000000
     2  C    1.896228   0.000000
     3  C    2.843062   1.387945   0.000000
     4  C    4.143621   2.398872   1.386610   0.000000
     5  C    4.646491   2.750305   2.391425   1.385611   0.000000
     6  C    4.126151   2.374028   2.769468   2.414909   1.397573
     7  C    2.841987   1.387580   2.425534   2.806332   2.416631
     8  C    5.448481   3.824570   4.260847   3.696597   2.382669
     9  C    6.471362   4.663027   4.667339   3.682873   2.323508
    10  C    7.840885   6.043982   6.014898   4.944948   3.636881
    11  C    8.728977   6.861616   6.571364   5.328113   4.207144
    12  C    8.451251   6.555043   5.996564   4.648505   3.804765
    13  C    7.202633   5.314940   4.649606   3.283638   2.594052
    14  C    6.089187   4.195543   3.809663   2.595630   1.465500
    15  H    2.938868   2.142779   1.081210   2.147146   3.376697
    16  H    4.984068   3.379846   2.141350   1.082924   2.153954
    17  H    2.947912   2.149319   3.403016   3.888407   3.405362
    18  H    5.708810   4.245405   4.823938   4.376883   3.133101
    19  H    5.708812   4.245405   4.823938   4.376883   3.133100
    20  H    8.337444   6.635065   6.788707   5.830524   4.471037
    21  H    9.784501   7.926492   7.653947   6.405151   5.288157
    22  H    9.343024   7.453160   6.767277   5.387430   4.717897
    23  H    7.241090   5.412975   4.498839   3.120361   2.906830
                    6          7          8          9         10
     6  C    0.000000
     7  C    1.381270   0.000000
     8  C    1.506473   2.606534   0.000000
     9  C    2.351894   3.713020   1.507033   0.000000
    10  C    3.715033   5.053417   2.612233   1.381994   0.000000
    11  C    4.676141   6.056027   3.838092   2.387158   1.389481
    12  C    4.663240   6.011853   4.258139   2.766465   2.414950
    13  C    3.683423   4.947348   3.700059   2.419475   2.804654
    14  C    2.324253   3.639287   2.383581   1.397938   2.412398
    15  H    3.850533   3.398110   5.341276   5.689005   7.013211
    16  H    3.402664   3.889231   4.535716   4.212877   5.322460
    17  H    2.153995   1.082156   2.904070   4.264610   5.505676
    18  H    2.164336   2.969859   1.093217   2.166864   2.980247
    19  H    2.164334   2.969858   1.093216   2.166860   2.980242
    20  H    4.261185   5.498536   2.902445   2.148881   1.083573
    21  H    5.702485   7.076062   4.742508   3.369599   2.143431
    22  H    5.683853   7.009171   5.339713   3.849053   3.391281
    23  H    4.208738   5.320973   4.535708   3.405436   3.887840
                   11         12         13         14         15
    11  C    0.000000
    12  C    1.390246   0.000000
    13  C    2.412613   1.386979   0.000000
    14  C    2.761716   2.386405   1.386417   0.000000
    15  H    7.472105   6.771856   5.392432   4.725399   0.000000
    16  H    5.430925   4.504415   3.124685   2.912509   2.471464
    17  H    6.651654   6.789265   5.836193   4.476791   4.285167
    18  H    4.261266   4.823998   4.382085   3.134830   5.889055
    19  H    4.261262   4.823996   4.382084   3.134829   5.889056
    20  H    2.149990   3.396555   3.888208   3.399545   7.825745
    21  H    1.082610   2.143309   3.388860   3.844287   8.550638
    22  H    2.143223   1.082650   2.141479   3.370266   7.447010
    23  H    3.394941   2.148688   1.083190   2.153332   5.055695
                   16         17         18         19         20
    16  H    0.000000
    17  H    4.971270   0.000000
    18  H    5.235076   3.021504   0.000000
    19  H    5.235076   3.021504   1.758187   0.000000
    20  H    6.304933   5.758597   3.025068   3.025063   0.000000
    21  H    6.469789   7.613507   5.064689   5.064685   2.472358
    22  H    5.056046   7.825693   5.890888   5.890885   4.283976
    23  H    2.612086   6.305547   5.236451   5.236449   4.971386
                   21         22         23
    21  H    0.000000
    22  H    2.461076   0.000000
    23  H    4.282649   2.472056   0.000000
 Stoichiometry    C13H9Br
 Framework group  C1[X(C13H9Br)]
 Deg. of freedom    63
 Full point group                 C1      NOp   1
 Largest Abelian subgroup         C1      NOp   1
 Largest concise Abelian subgroup C1      NOp   1
                         Standard orientation:                         
 ---------------------------------------------------------------------
 Center     Atomic      Atomic             Coordinates (Angstroms)
 Number     Number       Type             X           Y           Z
 ---------------------------------------------------------------------
      1         35           0       -3.819441   -0.111666    0.000001
      2          6           0       -1.940451    0.143434   -0.000003
      3          6           0       -1.434452    1.435857   -0.000001
      4          6           0       -0.062340    1.635844   -0.000000
      5          6           0        0.781567    0.536872   -0.000000
      6          6           0        0.255770   -0.758021   -0.000002
      7          6           0       -1.109476   -0.967808   -0.000003
      8          6           0        1.369891   -1.772021    0.000002
      9          6           0        2.603024   -0.905689   -0.000000
     10          6           0        3.934550   -1.275751   -0.000001
     11          6           0        4.907833   -0.284097   -0.000000
     12          6           0        4.550283    1.059384   -0.000000
     13          6           0        3.215154    1.435071    0.000002
     14          6           0        2.244210    0.445415    0.000002
     15          1           0       -2.110761    2.279434   -0.000000
     16          1           0        0.333704    2.643750    0.000001
     17          1           0       -1.527701   -1.965881   -0.000002
     18          1           0        1.327123   -2.420471    0.879096
     19          1           0        1.327126   -2.420471   -0.879091
     20          1           0        4.219932   -2.321068   -0.000000
     21          1           0        5.954802   -0.559597   -0.000000
     22          1           0        5.321985    1.818730   -0.000001
     23          1           0        2.940836    2.482950   -0.000000
 ---------------------------------------------------------------------
 Rotational constants (GHZ):           2.1683567           0.2152623           0.1960588
 Standard basis: def2TZVP (5D, 7F)
 There are   577 symmetry adapted cartesian basis functions of A   symmetry.
 There are   505 symmetry adapted basis functions of A   symmetry.
   505 basis functions,   849 primitive gaussians,   577 cartesian basis functions
    61 alpha electrons       61 beta electrons
       nuclear repulsion energy      1043.2012901792 Hartrees.
 NAtoms=   23 NActive=   23 NUniq=   23 SFac= 1.00D+00 NAtFMM=   60 NAOKFM=F Big=F
 Integral buffers will be    131072 words long.
 Raffenetti 2 integral format.
 Two-electron integral symmetry is turned on.
 Nuclear repulsion after empirical dispersion term =     1043.1866171284 Hartrees.
 One-electron integrals computed using PRISM.
   1 Symmetry operations used in ECPInt.
 ECPInt:  NShTT=   19110 NPrTT=   62860 LenC2=   17702 LenP2D=   42924.
 LDataN:  DoStor=T MaxTD1= 6 Len=  172
 NBasis=   505 RedAO= T EigKep=  5.76D-06  NBF=   505
 NBsUse=   505 1.00D-06 EigRej= -1.00D+00 NBFU=   505
 ExpMin= 9.52D-02 ExpMax= 5.65D+05 ExpMxC= 5.46D+03 IAcc=3 IRadAn=         5 AccDes= 0.00D+00
 Harris functional with IExCor= 4639 and IRadAn=       5 diagonalized for initial guess.
 HarFok:  IExCor= 4639 AccDes= 0.00D+00 IRadAn=         5 IDoV= 1 UseB2=F ITyADJ=14
 ICtDFT=  3500011 ScaDFX=  1.000000  1.000000  1.000000  1.000000
 FoFCou: FMM=F IPFlag=           0 FMFlag=      100000 FMFlg1=           0
         NFxFlg=           0 DoJE=T BraDBF=F KetDBF=T FulRan=T
         wScrn=  0.000000 ICntrl=       500 IOpCl=  0 I1Cent=   200000004 NGrid=           0
         NMat0=    1 NMatS0=      1 NMatT0=    0 NMatD0=    1 NMtDS0=    0 NMtDT0=    0
 Petite list used in FoFCou.
 Requested convergence on RMS density matrix=1.00D-08 within 128 cycles.
 Requested convergence on MAX density matrix=1.00D-06.
 Requested convergence on             energy=1.00D-06.
 No special actions if energy rises.
 Integral accuracy reduced to 1.0D-05 until final iterations.
 Problem detected with inexpensive integrals.
 Switching to full accuracy and repeating last cycle.
 SCF Done:  E(RwB97XD) =  -3075.03480508     A.U. after   20 cycles
            NFock= 20  Conv=0.59D-08     -V/T= 2.0020

 **********************************************************************

            Population analysis using the SCF Density.

 **********************************************************************

 Orbital symmetries:
       Occupied  (A) (A) (A) (A) (A) (A) (A) (A) (A) (A) (A) (A)
                 (A) (A) (A) (A) (A) (A) (A) (A) (A) (A) (A) (A)
                 (A) (A) (A) (A) (A) (A) (A) (A) (A) (A) (A) (A)
                 (A) (A) (A) (A) (A) (A) (A) (A) (A) (A) (A) (A)
                 (A) (A) (A) (A) (A) (A) (A) (A) (A) (A) (A) (A)
                 (A)
       Virtual   (A) (A) (A) (A) (A) (A) (A) (A) (A) (A) (A) (A)
                 (A) (A) (A) (A) (A) (A) (A) (A) (A) (A) (A) (A)
                 (A) (A) (A) (A) (A) (A) (A) (A) (A) (A) (A) (A)
                 (A) (A) (A) (A) (A) (A) (A) (A) (A) (A) (A) (A)
                 (A) (A) (A) (A) (A) (A) (A) (A) (A) (A) (A) (A)
                 (A) (A) (A) (A) (A) (A) (A) (A) (A) (A) (A) (A)
                 (A) (A) (A) (A) (A) (A) (A) (A) (A) (A) (A) (A)
                 (A) (A) (A) (A) (A) (A) (A) (A) (A) (A) (A) (A)
                 (A) (A) (A) (A) (A) (A) (A) (A) (A) (A) (A) (A)
                 (A) (A) (A) (A) (A) (A) (A) (A) (A) (A) (A) (A)
                 (A) (A) (A) (A) (A) (A) (A) (A) (A) (A) (A) (A)
                 (A) (A) (A) (A) (A) (A) (A) (A) (A) (A) (A) (A)
                 (A) (A) (A) (A) (A) (A) (A) (A) (A) (A) (A) (A)
                 (A) (A) (A) (A) (A) (A) (A) (A) (A) (A) (A) (A)
                 (A) (A) (A) (A) (A) (A) (A) (A) (A) (A) (A) (A)
                 (A) (A) (A) (A) (A) (A) (A) (A) (A) (A) (A) (A)
                 (A) (A) (A) (A) (A) (A) (A) (A) (A) (A) (A) (A)
                 (A) (A) (A) (A) (A) (A) (A) (A) (A) (A) (A) (A)
                 (A) (A) (A) (A) (A) (A) (A) (A) (A) (A) (A) (A)
                 (A) (A) (A) (A) (A) (A) (A) (A) (A) (A) (A) (A)
                 (A) (A) (A) (A) (A) (A) (A) (A) (A) (A) (A) (A)
                 (A) (A) (A) (A) (A) (A) (A) (A) (A) (A) (A) (A)
                 (A) (A) (A) (A) (A) (A) (A) (A) (A) (A) (A) (A)
                 (A) (A) (A) (A) (A) (A) (A) (A) (A) (A) (A) (A)
                 (A) (A) (A) (A) (A) (A) (A) (A) (A) (A) (A) (A)
                 (A) (A) (A) (A) (A) (A) (A) (A) (A) (A) (A) (A)
                 (A) (A) (A) (A) (A) (A) (A) (A) (A) (A) (A) (A)
                 (A) (A) (A) (A) (A) (A) (A) (A) (A) (A) (A) (A)
                 (A) (A) (A) (A) (A) (A) (A) (A) (A) (A) (A) (A)
                 (A) (A) (A) (A) (A) (A) (A) (A) (A) (A) (A) (A)
                 (A) (A) (A) (A) (A) (A) (A) (A) (A) (A) (A) (A)
                 (A) (A) (A) (A) (A) (A) (A) (A) (A) (A) (A) (A)
                 (A) (A) (A) (A) (A) (A) (A) (A) (A) (A) (A) (A)
                 (A) (A) (A) (A) (A) (A) (A) (A) (A) (A) (A) (A)
                 (A) (A) (A) (A) (A) (A) (A) (A) (A) (A) (A) (A)
                 (A) (A) (A) (A) (A) (A) (A) (A) (A) (A) (A) (A)
                 (A) (A) (A) (A) (A) (A) (A) (A) (A) (A) (A) (A)
 The electronic state is 1-A.
 Alpha  occ. eigenvalues -- -483.12744 -62.67586 -56.46699 -56.46347 -56.46340
 Alpha  occ. eigenvalues --  -10.34763 -10.30618 -10.30313 -10.30232 -10.30205
 Alpha  occ. eigenvalues --  -10.30134 -10.30066 -10.30002 -10.29878 -10.29395
 Alpha  occ. eigenvalues --  -10.29339 -10.29225 -10.29164  -8.81703  -6.63854
 Alpha  occ. eigenvalues --   -6.62722  -6.62698  -2.74249  -2.73913  -2.73896
 Alpha  occ. eigenvalues --   -2.72979  -2.72979  -1.00732  -0.96965  -0.92659
 Alpha  occ. eigenvalues --   -0.89349  -0.86556  -0.85571  -0.80832  -0.79909
 Alpha  occ. eigenvalues --   -0.73625  -0.69108  -0.68475  -0.67594  -0.62058
 Alpha  occ. eigenvalues --   -0.58518  -0.57792  -0.55009  -0.54826  -0.53694
 Alpha  occ. eigenvalues --   -0.53041  -0.51044  -0.50361  -0.49309  -0.47892
 Alpha  occ. eigenvalues --   -0.46268  -0.44522  -0.44277  -0.42656  -0.42126
 Alpha  occ. eigenvalues --   -0.40778  -0.37192  -0.35560  -0.34438  -0.33126
 Alpha  occ. eigenvalues --   -0.29380
 Alpha virt. eigenvalues --    0.01678   0.03675   0.06105   0.07520   0.09111
 Alpha virt. eigenvalues --    0.11679   0.12517   0.13789   0.15473   0.16012
 Alpha virt. eigenvalues --    0.16606   0.17383   0.17849   0.18876   0.20595
 Alpha virt. eigenvalues --    0.21497   0.22638   0.23028   0.23725   0.24825
 Alpha virt. eigenvalues --    0.25391   0.25611   0.27219   0.27965   0.28149
 Alpha virt. eigenvalues --    0.28831   0.28933   0.29793   0.30072   0.30416
 Alpha virt. eigenvalues --    0.31107   0.31602   0.32166   0.33569   0.33707
 Alpha virt. eigenvalues --    0.33977   0.34902   0.35231   0.36993   0.37118
 Alpha virt. eigenvalues --    0.37543   0.37900   0.38296   0.40302   0.40820
 Alpha virt. eigenvalues --    0.41256   0.41902   0.41937   0.43057   0.43829
 Alpha virt. eigenvalues --    0.43973   0.44404   0.45822   0.45971   0.46463
 Alpha virt. eigenvalues --    0.46779   0.47390   0.47824   0.49270   0.49506
 Alpha virt. eigenvalues --    0.50671   0.50844   0.51916   0.52481   0.52498
 Alpha virt. eigenvalues --    0.53448   0.53630   0.55067   0.56008   0.56156
 Alpha virt. eigenvalues --    0.58246   0.58616   0.58841   0.59913   0.61905
 Alpha virt. eigenvalues --    0.62101   0.64269   0.65233   0.66202   0.67209
 Alpha virt. eigenvalues --    0.67940   0.69633   0.69871   0.70791   0.72708
 Alpha virt. eigenvalues --    0.73045   0.73507   0.73780   0.75476   0.76194
 Alpha virt. eigenvalues --    0.76293   0.77107   0.77949   0.78413   0.79420
 Alpha virt. eigenvalues --    0.80637   0.82287   0.83746   0.83940   0.84763
 Alpha virt. eigenvalues --    0.86072   0.86400   0.87030   0.89303   0.89611
 Alpha virt. eigenvalues --    0.90633   0.91259   0.92652   0.93480   0.94390
 Alpha virt. eigenvalues --    0.97945   0.98371   0.98781   1.00613   1.00889
 Alpha virt. eigenvalues --    1.01534   1.04991   1.05187   1.05764   1.06271
 Alpha virt. eigenvalues --    1.07175   1.09194   1.09839   1.10259   1.12312
 Alpha virt. eigenvalues --    1.13768   1.15164   1.16665   1.19207   1.21019
 Alpha virt. eigenvalues --    1.22502   1.22921   1.22932   1.23370   1.26589
 Alpha virt. eigenvalues --    1.26883   1.27498   1.28638   1.29770   1.29840
 Alpha virt. eigenvalues --    1.31894   1.32678   1.33548   1.34008   1.36408
 Alpha virt. eigenvalues --    1.36522   1.39918   1.39934   1.41088   1.41763
 Alpha virt. eigenvalues --    1.42140   1.42761   1.44194   1.45450   1.45461
 Alpha virt. eigenvalues --    1.46581   1.47688   1.49032   1.49349   1.51729
 Alpha virt. eigenvalues --    1.52028   1.53167   1.55616   1.55879   1.56491
 Alpha virt. eigenvalues --    1.56494   1.57941   1.60206   1.60657   1.60957
 Alpha virt. eigenvalues --    1.62387   1.63095   1.64197   1.64645   1.65459
 Alpha virt. eigenvalues --    1.67407   1.67433   1.69354   1.69641   1.70737
 Alpha virt. eigenvalues --    1.72285   1.72574   1.72946   1.74801   1.75984
 Alpha virt. eigenvalues --    1.76620   1.78021   1.78742   1.79682   1.80051
 Alpha virt. eigenvalues --    1.80924   1.81922   1.81967   1.83669   1.85011
 Alpha virt. eigenvalues --    1.86761   1.90383   1.92177   1.92761   1.94427
 Alpha virt. eigenvalues --    1.94827   1.97270   1.98219   2.00917   2.01080
 Alpha virt. eigenvalues --    2.03432   2.04625   2.06467   2.06591   2.07806
 Alpha virt. eigenvalues --    2.11977   2.12046   2.13597   2.13636   2.16471
 Alpha virt. eigenvalues --    2.19000   2.19250   2.21010   2.21893   2.24218
 Alpha virt. eigenvalues --    2.25520   2.26865   2.28199   2.28617   2.29391
 Alpha virt. eigenvalues --    2.31303   2.31331   2.33067   2.37362   2.40420
 Alpha virt. eigenvalues --    2.41903   2.42701   2.46879   2.49123   2.49251
 Alpha virt. eigenvalues --    2.52856   2.52888   2.53795   2.56566   2.58015
 Alpha virt. eigenvalues --    2.58569   2.59826   2.61567   2.61608   2.65488
 Alpha virt. eigenvalues --    2.67441   2.68271   2.69793   2.70353   2.71962
 Alpha virt. eigenvalues --    2.73673   2.74312   2.75269   2.76905   2.77032
 Alpha virt. eigenvalues --    2.77531   2.77893   2.78239   2.78447   2.81138
 Alpha virt. eigenvalues --    2.81750   2.83357   2.83610   2.85880   2.86101
 Alpha virt. eigenvalues --    2.86742   2.88611   2.90329   2.91116   2.91494
 Alpha virt. eigenvalues --    2.93013   2.93755   2.94574   2.94961   2.95900
 Alpha virt. eigenvalues --    2.97138   2.98488   2.99989   3.01342   3.01870
 Alpha virt. eigenvalues --    3.03194   3.04292   3.04980   3.05848   3.08192
 Alpha virt. eigenvalues --    3.08839   3.09312   3.11645   3.11958   3.12457
 Alpha virt. eigenvalues --    3.12878   3.13507   3.14853   3.17469   3.18582
 Alpha virt. eigenvalues --    3.20829   3.21792   3.22123   3.23212   3.23954
 Alpha virt. eigenvalues --    3.24195   3.25223   3.26492   3.27604   3.27906
 Alpha virt. eigenvalues --    3.29298   3.29383   3.31294   3.31867   3.32547
 Alpha virt. eigenvalues --    3.32639   3.34967   3.36462   3.37654   3.39319
 Alpha virt. eigenvalues --    3.39444   3.39801   3.41881   3.43745   3.43819
 Alpha virt. eigenvalues --    3.44116   3.46904   3.48067   3.48728   3.49458
 Alpha virt. eigenvalues --    3.50960   3.51438   3.53131   3.53885   3.54659
 Alpha virt. eigenvalues --    3.56998   3.58374   3.58604   3.60238   3.60396
 Alpha virt. eigenvalues --    3.61622   3.61694   3.64327   3.65825   3.67874
 Alpha virt. eigenvalues --    3.68024   3.68394   3.70344   3.70349   3.72055
 Alpha virt. eigenvalues --    3.72311   3.73063   3.74153   3.79088   3.81307
 Alpha virt. eigenvalues --    3.83345   3.86143   3.88006   3.88450   3.90209
 Alpha virt. eigenvalues --    3.93345   3.94931   3.97445   3.99714   4.00705
 Alpha virt. eigenvalues --    4.02498   4.04172   4.10093   4.10296   4.10902
 Alpha virt. eigenvalues --    4.11350   4.14218   4.14717   4.18039   4.18980
 Alpha virt. eigenvalues --    4.19078   4.22177   4.22621   4.25159   4.25820
 Alpha virt. eigenvalues --    4.26804   4.27886   4.28815   4.30213   4.30472
 Alpha virt. eigenvalues --    4.30974   4.33701   4.34689   4.37710   4.38458
 Alpha virt. eigenvalues --    4.38471   4.41446   4.42662   4.43062   4.47014
 Alpha virt. eigenvalues --    4.47811   4.52118   4.52982   4.54217   4.56238
 Alpha virt. eigenvalues --    4.57219   4.61353   4.64443   4.67451   4.71489
 Alpha virt. eigenvalues --    4.76786   4.77813   4.79826   4.80232   4.84014
 Alpha virt. eigenvalues --    4.85884   4.89768   4.91780   4.93223   4.93425
 Alpha virt. eigenvalues --    4.95925   5.02075   5.03880   5.06517   5.12426
 Alpha virt. eigenvalues --    5.16178   5.19785   5.22452   5.33334   5.35464
 Alpha virt. eigenvalues --    5.41998   5.43448   5.48981   5.56495   5.57273
 Alpha virt. eigenvalues --    5.64137   5.68485   5.80059   5.84804   6.18683
 Alpha virt. eigenvalues --    7.86519  21.99145  22.59574  22.69951  22.75939
 Alpha virt. eigenvalues --   22.76816  22.80919  22.87037  22.93090  23.09624
 Alpha virt. eigenvalues --   23.10634  23.24942  23.73680  23.88108
          Condensed to atoms (all electrons):
               1          2          3          4          5          6
     1  Br  34.854123   0.353140  -0.084987   0.021470  -0.003351   0.018624
     2  C    0.353140   4.865957   0.362202   0.082826  -0.103257   0.055238
     3  C   -0.084987   0.362202   5.102274   0.355953   0.034603  -0.097880
     4  C    0.021470   0.082826   0.355953   5.160897   0.380435  -0.008435
     5  C   -0.003351  -0.103257   0.034603   0.380435   5.160583   0.488500
     6  C    0.018624   0.055238  -0.097880  -0.008435   0.488500   5.166687
     7  C   -0.077181   0.350370   0.045715  -0.084740   0.028167   0.275309
     8  C   -0.001445   0.001644   0.002068   0.009036  -0.108069   0.370523
     9  C    0.000142   0.001906  -0.001013   0.017616  -0.090679  -0.090679
    10  C    0.000001  -0.000137   0.000154  -0.002575   0.008734   0.013980
    11  C   -0.000000   0.000003   0.000008   0.000427  -0.005647   0.000115
    12  C    0.000000   0.000013  -0.000121  -0.000723   0.001486   0.000125
    13  C   -0.000009   0.000204  -0.000092   0.011886  -0.116364   0.016645
    14  C   -0.000346  -0.009786   0.006891  -0.120611   0.290320  -0.102623
    15  H   -0.004645  -0.068044   0.457902  -0.065169   0.014854  -0.003924
    16  H   -0.000267   0.008814  -0.048210   0.439693  -0.055845   0.013779
    17  H   -0.003404  -0.062767   0.015984  -0.005643   0.015440  -0.056926
    18  H    0.000018  -0.000330   0.000045  -0.000232   0.000162  -0.004224
    19  H    0.000018  -0.000330   0.000045  -0.000232   0.000162  -0.004225
    20  H    0.000000  -0.000001  -0.000001   0.000011  -0.000351   0.000524
    21  H   -0.000000  -0.000000   0.000000  -0.000002   0.000102   0.000013
    22  H   -0.000000  -0.000000  -0.000001   0.000029   0.000045  -0.000025
    23  H   -0.000001  -0.000032   0.000263   0.006160  -0.011992  -0.000200
               7          8          9         10         11         12
     1  Br  -0.077181  -0.001445   0.000142   0.000001  -0.000000   0.000000
     2  C    0.350370   0.001644   0.001906  -0.000137   0.000003   0.000013
     3  C    0.045715   0.002068  -0.001013   0.000154   0.000008  -0.000121
     4  C   -0.084740   0.009036   0.017616  -0.002575   0.000427  -0.000723
     5  C    0.028167  -0.108069  -0.090679   0.008734  -0.005647   0.001486
     6  C    0.275309   0.370523  -0.090679   0.013980   0.000115   0.000125
     7  C    5.384722  -0.096187   0.008695   0.000385  -0.000165   0.000218
     8  C   -0.096187   4.866345   0.373212  -0.112193   0.008504  -0.004795
     9  C    0.008695   0.373212   5.132737   0.374831   0.013858  -0.087352
    10  C    0.000385  -0.112193   0.374831   5.125983   0.428153   0.037586
    11  C   -0.000165   0.008504   0.013858   0.428153   4.910523   0.443227
    12  C    0.000218  -0.004795  -0.087352   0.037586   0.443227   4.904569
    13  C   -0.003076   0.020805  -0.018837  -0.067736   0.024403   0.440499
    14  C    0.012264  -0.078985   0.495248   0.008929  -0.088761   0.017065
    15  H    0.016118   0.000202  -0.000048  -0.000001   0.000000  -0.000002
    16  H   -0.003061  -0.000161  -0.000007  -0.000059   0.000013   0.000083
    17  H    0.447978  -0.003233   0.000083   0.000014   0.000000  -0.000001
    18  H    0.001941   0.345495  -0.004340   0.001981  -0.000235   0.000167
    19  H    0.001941   0.345498  -0.004341   0.001981  -0.000235   0.000167
    20  H   -0.000007  -0.007839  -0.065783   0.455723  -0.057835   0.011279
    21  H   -0.000000  -0.000115   0.014548  -0.065464   0.452541  -0.058648
    22  H   -0.000000   0.000101  -0.002455   0.010639  -0.055867   0.448323
    23  H   -0.000025  -0.000075   0.014165  -0.003365   0.009311  -0.047161
              13         14         15         16         17         18
     1  Br  -0.000009  -0.000346  -0.004645  -0.000267  -0.003404   0.000018
     2  C    0.000204  -0.009786  -0.068044   0.008814  -0.062767  -0.000330
     3  C   -0.000092   0.006891   0.457902  -0.048210   0.015984   0.000045
     4  C    0.011886  -0.120611  -0.065169   0.439693  -0.005643  -0.000232
     5  C   -0.116364   0.290320   0.014854  -0.055845   0.015440   0.000162
     6  C    0.016645  -0.102623  -0.003924   0.013779  -0.056926  -0.004224
     7  C   -0.003076   0.012264   0.016118  -0.003061   0.447978   0.001941
     8  C    0.020805  -0.078985   0.000202  -0.000161  -0.003233   0.345495
     9  C   -0.018837   0.495248  -0.000048  -0.000007   0.000083  -0.004340
    10  C   -0.067736   0.008929  -0.000001  -0.000059   0.000014   0.001981
    11  C    0.024403  -0.088761   0.000000   0.000013   0.000000  -0.000235
    12  C    0.440499   0.017065  -0.000002   0.000083  -0.000001   0.000167
    13  C    5.099152   0.393519   0.000044   0.006051   0.000027  -0.000478
    14  C    0.393519   5.140626   0.000457  -0.010955   0.000128  -0.001451
    15  H    0.000044   0.000457   0.523680  -0.006658   0.000080  -0.000002
    16  H    0.006051  -0.010955  -0.006658   0.535173   0.000031   0.000017
    17  H    0.000027   0.000128   0.000080   0.000031   0.521956   0.000814
    18  H   -0.000478  -0.001451  -0.000002   0.000017   0.000814   0.569740
    19  H   -0.000478  -0.001451  -0.000002   0.000017   0.000814  -0.027321
    20  H   -0.004026   0.016459   0.000000   0.000001   0.000002   0.000998
    21  H    0.012267  -0.003415   0.000000  -0.000000  -0.000000  -0.000004
    22  H   -0.060800   0.013677   0.000000   0.000006   0.000000  -0.000001
    23  H    0.439645  -0.058062   0.000012   0.003238   0.000002   0.000016
              19         20         21         22         23
     1  Br   0.000018   0.000000  -0.000000  -0.000000  -0.000001
     2  C   -0.000330  -0.000001  -0.000000  -0.000000  -0.000032
     3  C    0.000045  -0.000001   0.000000  -0.000001   0.000263
     4  C   -0.000232   0.000011  -0.000002   0.000029   0.006160
     5  C    0.000162  -0.000351   0.000102   0.000045  -0.011992
     6  C   -0.004225   0.000524   0.000013  -0.000025  -0.000200
     7  C    0.001941  -0.000007  -0.000000  -0.000000  -0.000025
     8  C    0.345498  -0.007839  -0.000115   0.000101  -0.000075
     9  C   -0.004341  -0.065783   0.014548  -0.002455   0.014165
    10  C    0.001981   0.455723  -0.065464   0.010639  -0.003365
    11  C   -0.000235  -0.057835   0.452541  -0.055867   0.009311
    12  C    0.000167   0.011279  -0.058648   0.448323  -0.047161
    13  C   -0.000478  -0.004026   0.012267  -0.060800   0.439645
    14  C   -0.001451   0.016459  -0.003415   0.013677  -0.058062
    15  H   -0.000002   0.000000   0.000000   0.000000   0.000012
    16  H    0.000017   0.000001  -0.000000   0.000006   0.003238
    17  H    0.000814   0.000002  -0.000000   0.000000   0.000002
    18  H   -0.027321   0.000998  -0.000004  -0.000001   0.000016
    19  H    0.569740   0.000998  -0.000004  -0.000001   0.000016
    20  H    0.000998   0.547114  -0.007500  -0.000128   0.000035
    21  H   -0.000004  -0.007500   0.544395  -0.007711  -0.000140
    22  H   -0.000001  -0.000128  -0.007711   0.542657  -0.006879
    23  H    0.000016   0.000035  -0.000140  -0.006879   0.541579
 Mulliken charges:
               1
     1  Br  -0.071901
     2  C    0.162366
     3  C   -0.151803
     4  C   -0.198076
     5  C    0.071964
     6  C   -0.050920
     7  C   -0.309381
     8  C    0.069665
     9  C   -0.081508
    10  C   -0.217543
    11  C   -0.082340
    12  C   -0.106003
    13  C   -0.193251
    14  C    0.080865
    15  H    0.135147
    16  H    0.118307
    17  H    0.128623
    18  H    0.117223
    19  H    0.117223
    20  H    0.110327
    21  H    0.119135
    22  H    0.118391
    23  H    0.113489
 Sum of Mulliken charges =  -0.00000
 Mulliken charges with hydrogens summed into heavy atoms:
               1
     1  Br  -0.071901
     2  C    0.162366
     3  C   -0.016656
     4  C   -0.079769
     5  C    0.071964
     6  C   -0.050920
     7  C   -0.180757
     8  C    0.304111
     9  C   -0.081508
    10  C   -0.107216
    11  C    0.036795
    12  C    0.012388
    13  C   -0.079762
    14  C    0.080865
 Electronic spatial extent (au):  <R**2>=           4851.7563
 Charge=             -0.0000 electrons
 Dipole moment (field-independent basis, Debye):
    X=              2.0815    Y=             -0.3247    Z=              0.0000  Tot=              2.1067
 Quadrupole moment (field-independent basis, Debye-Ang):
   XX=            -92.0372   YY=            -81.9779   ZZ=            -97.9693
   XY=             -1.1318   XZ=             -0.0000   YZ=             -0.0000
 Traceless Quadrupole moment (field-independent basis, Debye-Ang):
   XX=             -1.3757   YY=              8.6836   ZZ=             -7.3078
   XY=             -1.1318   XZ=             -0.0000   YZ=             -0.0000
 Octapole moment (field-independent basis, Debye-Ang**2):
  XXX=            -70.6051  YYY=             -0.3745  ZZZ=              0.0001  XYY=            -28.9490
  XXY=             -0.9831  XXZ=              0.0000  XZZ=            -51.2258  YZZ=             -5.4264
  YYZ=              0.0000  XYZ=             -0.0000
 Hexadecapole moment (field-independent basis, Debye-Ang**3):
 XXXX=          -4671.1492 YYYY=           -694.2883 ZZZZ=           -119.6508 XXXY=             19.1518
 XXXZ=             -0.0004 YYYX=              8.8874 YYYZ=             -0.0001 ZZZX=             -0.0001
 ZZZY=             -0.0001 XXYY=           -891.7995 XXZZ=           -922.1244 YYZZ=           -153.9138
 XXYZ=             -0.0001 YYXZ=             -0.0001 ZZXY=              0.4770
 N-N= 1.043186617128D+03 E-N=-9.400506177382D+03  KE= 3.068986846527D+03
 There are a total of      529042 grid points.
 ElSum from          density=      122.0000598961
 ElSum from atomic densities=      122.0001647803

 Hirshfeld populations at iteration   1 (CX, CA, CB, DipXYZ):
               1          2          3          4          5          6
     1  Br   0.000000  17.524239  17.524239   0.064164   0.011591   0.000000
     2  C    0.000000   2.999338   2.999338  -0.053199  -0.006943  -0.000000
     3  C    0.000000   3.024471   3.024471  -0.014629   0.051053   0.000000
     4  C    0.000000   3.018319   3.018319   0.030354   0.055645   0.000000
     5  C    0.000000   3.004241   3.004241   0.043478   0.029677   0.000000
     6  C    0.000000   2.997043   2.997043   0.029195  -0.061669  -0.000000
     7  C    0.000000   3.024731   3.024731   0.003811  -0.060385  -0.000000
     8  C    0.000000   3.023907   3.023907  -0.000843  -0.011382   0.000001
     9  C    0.000000   2.999411   2.999411  -0.037588  -0.057239  -0.000000
    10  C    0.000000   3.022597   3.022597   0.010952  -0.061452  -0.000000
    11  C    0.000000   3.022006   3.022006   0.054049  -0.013865   0.000000
    12  C    0.000000   3.022217   3.022217   0.041472   0.038939  -0.000000
    13  C    0.000000   3.021290   3.021290  -0.023243   0.055601   0.000000
    14  C    0.000000   3.004966   3.004966  -0.039530   0.033936   0.000000
    15  H    0.000000   0.476537   0.476537  -0.081189   0.137649   0.000000
    16  H    0.000000   0.475875   0.475875   0.052264   0.149051   0.000000
    17  H    0.000000   0.476202   0.476202  -0.041071  -0.152407   0.000000
    18  H    0.000000   0.475300   0.475300  -0.005865  -0.092532   0.123065
    19  H    0.000000   0.475301   0.475301  -0.005865  -0.092532  -0.123065
    20  H    0.000000   0.477788   0.477788   0.043086  -0.151687   0.000000
    21  H    0.000000   0.478248   0.478248   0.154315  -0.040361   0.000000
    22  H    0.000000   0.478108   0.478108   0.113836   0.111830  -0.000000
    23  H    0.000000   0.477897   0.477897  -0.033852   0.152365  -0.000000
       Tot   0.000000  61.000030  61.000030   0.304100   0.024882   0.000000

 Dip from Atomic Chgs              0.514413  -0.152672   0.000001
         Total Dipole              0.818513  -0.127790   0.000001

 Hirshfeld charges, spin densities, dipoles, and CM5 charges using IRadAn=      5:
              Q-H        S-H        Dx         Dy         Dz        Q-CM5   
     1  Br  -0.048477   0.000000   0.064164   0.011591   0.000000  -0.033562
     2  C    0.001324   0.000000  -0.053199  -0.006943  -0.000000  -0.019996
     3  C   -0.048942   0.000000  -0.014629   0.051053   0.000000  -0.102845
     4  C   -0.036638   0.000000   0.030354   0.055645   0.000000  -0.089198
     5  C   -0.008482   0.000000   0.043478   0.029677   0.000000  -0.013418
     6  C    0.005915   0.000000   0.029195  -0.061669  -0.000000  -0.004525
     7  C   -0.049463   0.000000   0.003811  -0.060385  -0.000000  -0.100655
     8  C   -0.047815   0.000000  -0.000843  -0.011382   0.000001  -0.143717
     9  C    0.001177   0.000000  -0.037588  -0.057239  -0.000000  -0.009375
    10  C   -0.045194   0.000000   0.010952  -0.061452  -0.000000  -0.098363
    11  C   -0.044011   0.000000   0.054049  -0.013865   0.000000  -0.099865
    12  C   -0.044434   0.000000   0.041472   0.038939  -0.000000  -0.100274
    13  C   -0.042580   0.000000  -0.023243   0.055601   0.000000  -0.095261
    14  C   -0.009931   0.000000  -0.039530   0.033936   0.000000  -0.014903
    15  H    0.046926   0.000000  -0.081189   0.137649   0.000000   0.104189
    16  H    0.048251   0.000000   0.052264   0.149051   0.000000   0.105108
    17  H    0.047597   0.000000  -0.041071  -0.152407   0.000000   0.105149
    18  H    0.049399   0.000000  -0.005865  -0.092532   0.123065   0.105060
    19  H    0.049399   0.000000  -0.005865  -0.092532  -0.123065   0.105060
    20  H    0.044424   0.000000   0.043086  -0.151687   0.000000   0.100850
    21  H    0.043505   0.000000   0.154315  -0.040361   0.000000   0.099609
    22  H    0.043785   0.000000   0.113836   0.111830  -0.000000   0.099902
    23  H    0.044207   0.000000  -0.033852   0.152365  -0.000000   0.100971
       Tot  -0.000060   0.000000   0.304100   0.024882   0.000000  -0.000060
 Hirshfeld charges with hydrogens summed into heavy atoms:
              Q-H       Q-CM5   
     1  Br  -0.048477  -0.033562
     2  C    0.001324  -0.019996
     3  C   -0.002016   0.001344
     4  C    0.011613   0.015910
     5  C   -0.008482  -0.013418
     6  C    0.005915  -0.004525
     7  C   -0.001866   0.004494
     8  C    0.050983   0.066403
     9  C    0.001177  -0.009375
    10  C   -0.000770   0.002486
    11  C   -0.000506  -0.000256
    12  C   -0.000649  -0.000373
    13  C    0.001627   0.005709
    14  C   -0.009931  -0.014903
 
 EQQ= 0.000000000000E+00 EQD= 0.000000000000E+00 EDD= 0.101463237651E-01
 EQQ+QD+DD= 0.101463237651E-01
 
 Running external command "gaunbo6 R"
         input file       "/home/rpaton/opt/tzvp/popn/Gau-2152369.EIn"
         output file      "/home/rpaton/opt/tzvp/popn/Gau-2152369.EOu"
         message file     "/home/rpaton/opt/tzvp/popn/Gau-2152369.EMs"
         fchk file        "/home/rpaton/opt/tzvp/popn/Gau-2152369.EFC"
         mat. el file     "/home/rpaton/opt/tzvp/popn/Gau-2152369.EUF"

 Writing WrtUnf unformatted file "/home/rpaton/opt/tzvp/popn/Gau-2152369.EUF"
 Gaussian matrix elements                                         Version   2 NLab=11 Len12L=8 Len4L=8
 Write SHELL TO ATOM MAP                   from file      0 offset           0 length                 195 to matrix element file.
 Write SHELL TYPES                         from file      0 offset           0 length                 195 to matrix element file.
 Write NUMBER OF PRIMITIVES PER SHELL      from file      0 offset           0 length                 195 to matrix element file.
 Write PRIMITIVE EXPONENTS                 from file      0 offset           0 length                 353 to matrix element file.
 Write CONTRACTION COEFFICIENTS            from file      0 offset           0 length                 353 to matrix element file.
 Write P(S=P) CONTRACTION COEFFICIENTS     from file      0 offset           0 length                 353 to matrix element file.
 Write COORDINATES OF EACH SHELL           from file      0 offset           0 length                 585 to matrix element file.
 Write BONDS PER ATOM                      from file      0 offset           0 length                  23 to matrix element file.
 Write BONDED ATOMS                        from file      0 offset           0 length                  50 to matrix element file.
 Write BOND TYPES                          from file      0 offset           0 length                  50 to matrix element file.
 Write ONIOM CHARGE/MULT                   from file      0 offset           0 length                  32 to matrix element file.
 Write ONIOM ATOM LAYERS                   from file      0 offset           0 length                  23 to matrix element file.
 Write ONIOM ATOM MODIFIERS                from file      0 offset           0 length                  23 to matrix element file.
 Write ONIOM ATOM TYPES                    from file      0 offset           0 length                  23 to matrix element file.
 Write ONIOM LINK ATOMS                    from file      0 offset           0 length                  23 to matrix element file.
 Write ONIOM LINK CHARGES                  from file      0 offset           0 length                  23 to matrix element file.
 Write ONIOM LINK DISTANCES                from file      0 offset           0 length                  92 to matrix element file.
 Write SYMINF INTS                         from file      0 offset           0 length                  26 to matrix element file.
 Write ROTTR TO SO                         from file      0 offset           0 length                  12 to matrix element file.
 Write GAUSSIAN SCALARS                    from file    501 offset           0 to matrix element file.
 Write OPTIMIZATION FLAGS                  from file      0 offset           0 length                  23 to matrix element file.
 Write INTEGER ISO                         from file      0 offset           0 length                  23 to matrix element file.
 Write INTEGER SPIN                        from file      0 offset           0 length                  23 to matrix element file.
 Write REAL ZEFFECTIVE                     from file      0 offset           0 length                  23 to matrix element file.
 Write REAL QUADRUPOLEMOMENT               from file      0 offset           0 length                  23 to matrix element file.
 Write REAL GFACTOR                        from file      0 offset           0 length                  23 to matrix element file.
 Write REAL ZNUCLEAR                       from file      0 offset           0 length                  23 to matrix element file.
 Write MULLIKEN CHARGES                    from file      0 offset           0 length                  23 to matrix element file.
 Write TYPE 6 CHARGES                      from file      0 offset           0 length                  23 to matrix element file.
 Write TYPE 7 CHARGES                      from file      0 offset           0 length                  23 to matrix element file.
 Write NUCLEAR GRADIENT                    from file  10584 offset           0 length                  69 to matrix element file.
 Array NUCLEAR FORCE CONSTANTS              on  file  10585 does not exist.
 Write ELECTRIC DIPOLE MOMENT              from file      0 offset           0 length                   3 to matrix element file.
 Write NON-ADIABATIC COUPLING              from file  10810 offset           0 length                  69 to matrix element file.
 Write FINITE EM FIELD                     from file  10521 offset           0 length                  35 to matrix element file.
 Write OVERLAP                             from file  10514 offset           0 length              127765 to matrix element file.
 Write CORE HAMILTONIAN ALPHA              from file  10515 offset           0 length              127765 to matrix element file.
 Write CORE HAMILTONIAN BETA               from file  10515 offset      127765 length              127765 to matrix element file.
 Write KINETIC ENERGY                      from file  10516 offset           0 length              127765 to matrix element file.
 Write ORTHOGONAL BASIS                    from file  10685 offset           0 length              255025 to matrix element file.
 Write DIPOLE INTEGRALS                    from file  10518 offset           0 length              383295 to matrix element file.
 Array DIP VEL INTEGRALS                    on  file  10572 does not exist.
 Array R X DEL INTEGRALS                    on  file  10572 does not exist.
 Write ALPHA ORBITAL ENERGIES              from file      0 offset           0 length                 505 to matrix element file.
 Write ALPHA MO COEFFICIENTS               from file  10524 offset           0 length              255025 to matrix element file.
 Write ALPHA DENSITY MATRIX                from file      0 offset           0 length              127765 to matrix element file.
 Write ALPHA FOCK MATRIX                   from file  10536 offset           0 length              127765 to matrix element file.
 Write ENERGY-WEIGHTED DENSITY             from file  10571 offset           0 length              127765 to matrix element file.
 Write ALPHA SCF DENSITY MATRIX            from file      0 offset           0 length              127765 to matrix element file.
 Write INTEGER PARAMETERS                  from file      0 offset           0 length                   2 to matrix element file.
 No 2e integrals to process.
 Perform NBO analysis...

 *********************************** NBO 7.0 ***********************************
             N A T U R A L   A T O M I C   O R B I T A L   A N D
          N A T U R A L   B O N D   O R B I T A L   A N A L Y S I S
 **************************** Robert Paton (I101709) ***************************
  (c) Copyright 1996-2019 Board of Regents of the University of Wisconsin System
      on behalf of the Theoretical Chemistry Institute.  All rights reserved.

          Cite this program [NBO 7.0.5 (4-Jun-2019)] as:

          NBO 7.0.  E. D. Glendening, J. K. Badenhoop, A. E. Reed,
          J. E. Carpenter, J. A. Bohmann, C. M. Morales, P. Karafiloglou,
          C. R. Landis, and F. Weinhold, Theoretical Chemistry Institute,
          University of Wisconsin, Madison, WI (2018)

       /AONBO  / : Checkpoint the AO to NBO transformation
                   NBOs sorted by occupancy
       /BNDIDX / : Print bond indices based on the NAO density matrix

 Filename set to /home/rpaton/opt/tzvp/popn/Gau-2152369

 Job title:  arbr34_wb97xd_popncreated by GaussianPrep


 NATURAL POPULATIONS:  Natural atomic orbital occupancies

  NAO Atom No lang   Type(AO)    Occupancy      Energy
 -------------------------------------------------------
   1   Br  1  s      Cor( 1s)     2.00000    -468.37559
   2   Br  1  s      Cor( 2s)     2.00000     -71.72379
   3   Br  1  s      Cor( 3s)     1.99999     -14.52073
   4   Br  1  s      Val( 4s)     1.85954      -0.76527
   5   Br  1  s      Ryd( 5s)     0.00122       1.23591
   6   Br  1  s      Ryd( 6s)     0.00000       7.50293
   7   Br  1  px     Cor( 2p)     2.00000     -41.62044
   8   Br  1  px     Cor( 3p)     2.00000     -21.48478
   9   Br  1  px     Val( 4p)     1.17730      -0.25148
  10   Br  1  px     Ryd( 5p)     0.00234       0.60753
  11   Br  1  px     Ryd( 6p)     0.00003       1.70391
  12   Br  1  py     Cor( 2p)     2.00000     -41.61337
  13   Br  1  py     Cor( 3p)     2.00000     -21.47724
  14   Br  1  py     Val( 4p)     1.95754      -0.36484
  15   Br  1  py     Ryd( 5p)     0.00083       0.57951
  16   Br  1  py     Ryd( 6p)     0.00001       1.58788
  17   Br  1  pz     Cor( 2p)     2.00000     -41.61340
  18   Br  1  pz     Cor( 3p)     2.00000     -21.47726
  19   Br  1  pz     Val( 4p)     1.94264      -0.36436
  20   Br  1  pz     Ryd( 5p)     0.00136       0.54535
  21   Br  1  pz     Ryd( 6p)     0.00003       1.54742
  22   Br  1  dxy    Cor( 3d)     1.99999      -2.73898
  23   Br  1  dxy    Ryd( 4d)     0.00087       1.18301
  24   Br  1  dxy    Ryd( 5d)     0.00003       1.53207
  25   Br  1  dxy    Ryd( 6d)     0.00000       4.41944
  26   Br  1  dxz    Cor( 3d)     1.99999      -2.73896
  27   Br  1  dxz    Ryd( 4d)     0.00236       0.88621
  28   Br  1  dxz    Ryd( 5d)     0.00002       1.36889
  29   Br  1  dxz    Ryd( 6d)     0.00000       4.20501
  30   Br  1  dyz    Cor( 3d)     2.00000      -2.72996
  31   Br  1  dyz    Ryd( 4d)     0.00013       0.68184
  32   Br  1  dyz    Ryd( 5d)     0.00003       1.23407
  33   Br  1  dyz    Ryd( 6d)     0.00000       4.06758
  34   Br  1  dx2y2  Cor( 3d)     1.99999      -2.73916
  35   Br  1  dx2y2  Ryd( 5d)     0.00189       1.68985
  36   Br  1  dx2y2  Ryd( 4d)     0.00004       1.43052
  37   Br  1  dx2y2  Ryd( 6d)     0.00001       4.55246
  38   Br  1  dz2    Cor( 3d)     1.99999      -2.73306
  39   Br  1  dz2    Ryd( 4d)     0.00060       1.08001
  40   Br  1  dz2    Ryd( 5d)     0.00003       1.34871
  41   Br  1  dz2    Ryd( 6d)     0.00000       4.32989
  42   Br  1  f(0)   Ryd( 4f)     0.00008       1.79305
  43   Br  1  f(c1)  Ryd( 4f)     0.00007       2.09784
  44   Br  1  f(s1)  Ryd( 4f)     0.00001       1.68847
  45   Br  1  f(c2)  Ryd( 4f)     0.00010       1.90530
  46   Br  1  f(s2)  Ryd( 4f)     0.00001       1.75359
  47   Br  1  f(c3)  Ryd( 4f)     0.00012       2.19933
  48   Br  1  f(s3)  Ryd( 4f)     0.00011       2.25412

  49    C  2  s      Cor( 1s)     1.99999     -10.34749
  50    C  2  s      Val( 2s)     0.97709      -0.19380
  51    C  2  s      Ryd( 4s)     0.00093       2.32110
  52    C  2  s      Ryd( 3s)     0.00037       2.31431
  53    C  2  s      Ryd( 5s)     0.00000      16.59770
  54    C  2  px     Val( 2p)     0.94156      -0.10425
  55    C  2  px     Ryd( 3p)     0.00490       1.38438
  56    C  2  px     Ryd( 4p)     0.00099       2.18240
  57    C  2  py     Val( 2p)     1.05942      -0.04461
  58    C  2  py     Ryd( 3p)     0.00472       1.16485
  59    C  2  py     Ryd( 4p)     0.00012       2.13538
  60    C  2  pz     Val( 2p)     1.07526      -0.15341
  61    C  2  pz     Ryd( 3p)     0.00133       0.89843
  62    C  2  pz     Ryd( 4p)     0.00047       1.23064
  63    C  2  dxy    Ryd( 3d)     0.00156       2.20149
  64    C  2  dxy    Ryd( 4d)     0.00030       4.05939
  65    C  2  dxz    Ryd( 3d)     0.00152       1.33519
  66    C  2  dxz    Ryd( 4d)     0.00017       3.23046
  67    C  2  dyz    Ryd( 3d)     0.00029       1.59957
  68    C  2  dyz    Ryd( 4d)     0.00016       3.34660
  69    C  2  dx2y2  Ryd( 3d)     0.00202       2.35703
  70    C  2  dx2y2  Ryd( 4d)     0.00042       4.10820
  71    C  2  dz2    Ryd( 3d)     0.00208       2.16280
  72    C  2  dz2    Ryd( 4d)     0.00011       3.63739
  73    C  2  f(0)   Ryd( 4f)     0.00069       3.21551
  74    C  2  f(c1)  Ryd( 4f)     0.00059       3.19256
  75    C  2  f(s1)  Ryd( 4f)     0.00048       3.46495
  76    C  2  f(c2)  Ryd( 4f)     0.00003       3.23287
  77    C  2  f(s2)  Ryd( 4f)     0.00001       3.34132
  78    C  2  f(c3)  Ryd( 4f)     0.00069       3.85457
  79    C  2  f(s3)  Ryd( 4f)     0.00027       3.80676

  80    C  3  s      Cor( 1s)     1.99999     -10.30107
  81    C  3  s      Val( 2s)     0.97657      -0.13906
  82    C  3  s      Ryd( 3s)     0.00090       1.47048
  83    C  3  s      Ryd( 4s)     0.00006       2.25824
  84    C  3  s      Ryd( 5s)     0.00000      21.30813
  85    C  3  px     Val( 2p)     1.10002      -0.04725
  86    C  3  px     Ryd( 3p)     0.00475       1.14997
  87    C  3  px     Ryd( 4p)     0.00027       1.92111
  88    C  3  py     Val( 2p)     1.13488      -0.06817
  89    C  3  py     Ryd( 3p)     0.00321       1.09463
  90    C  3  py     Ryd( 4p)     0.00011       2.00991
  91    C  3  pz     Val( 2p)     1.00420      -0.12206
  92    C  3  pz     Ryd( 3p)     0.00137       0.71761
  93    C  3  pz     Ryd( 4p)     0.00018       1.32403
  94    C  3  dxy    Ryd( 3d)     0.00082       2.44236
  95    C  3  dxy    Ryd( 4d)     0.00046       3.89433
  96    C  3  dxz    Ryd( 3d)     0.00033       1.71424
  97    C  3  dxz    Ryd( 4d)     0.00010       2.93009
  98    C  3  dyz    Ryd( 3d)     0.00031       1.65505
  99    C  3  dyz    Ryd( 4d)     0.00008       2.90471
 100    C  3  dx2y2  Ryd( 3d)     0.00221       2.42119
 101    C  3  dx2y2  Ryd( 4d)     0.00007       3.72940
 102    C  3  dz2    Ryd( 3d)     0.00122       2.08028
 103    C  3  dz2    Ryd( 4d)     0.00002       3.43218
 104    C  3  f(0)   Ryd( 4f)     0.00048       3.23831
 105    C  3  f(c1)  Ryd( 4f)     0.00044       3.46257
 106    C  3  f(s1)  Ryd( 4f)     0.00049       3.39435
 107    C  3  f(c2)  Ryd( 4f)     0.00001       3.33225
 108    C  3  f(s2)  Ryd( 4f)     0.00003       3.29716
 109    C  3  f(c3)  Ryd( 4f)     0.00054       3.98695
 110    C  3  f(s3)  Ryd( 4f)     0.00023       3.79676

 111    C  4  s      Cor( 1s)     1.99999     -10.30079
 112    C  4  s      Val( 2s)     0.96211      -0.12189
 113    C  4  s      Ryd( 4s)     0.00086       1.71022
 114    C  4  s      Ryd( 3s)     0.00005       1.49100
 115    C  4  s      Ryd( 5s)     0.00000      20.47053
 116    C  4  px     Val( 2p)     1.05803      -0.02892
 117    C  4  px     Ryd( 3p)     0.00249       1.19732
 118    C  4  px     Ryd( 4p)     0.00012       1.81187
 119    C  4  py     Val( 2p)     1.15125      -0.05493
 120    C  4  py     Ryd( 3p)     0.00371       1.24707
 121    C  4  py     Ryd( 4p)     0.00015       1.98182
 122    C  4  pz     Val( 2p)     0.99375      -0.11922
 123    C  4  pz     Ryd( 3p)     0.00119       0.79568
 124    C  4  pz     Ryd( 4p)     0.00020       1.25429
 125    C  4  dxy    Ryd( 3d)     0.00126       2.77481
 126    C  4  dxy    Ryd( 4d)     0.00034       3.86673
 127    C  4  dxz    Ryd( 3d)     0.00025       1.94404
 128    C  4  dxz    Ryd( 4d)     0.00009       2.91932
 129    C  4  dyz    Ryd( 3d)     0.00035       1.81816
 130    C  4  dyz    Ryd( 4d)     0.00004       2.82567
 131    C  4  dx2y2  Ryd( 3d)     0.00087       2.82774
 132    C  4  dx2y2  Ryd( 4d)     0.00033       3.91539
 133    C  4  dz2    Ryd( 3d)     0.00104       2.30901
 134    C  4  dz2    Ryd( 4d)     0.00003       3.40151
 135    C  4  f(0)   Ryd( 4f)     0.00041       3.29382
 136    C  4  f(c1)  Ryd( 4f)     0.00035       3.52096
 137    C  4  f(s1)  Ryd( 4f)     0.00043       3.46932
 138    C  4  f(c2)  Ryd( 4f)     0.00001       3.37837
 139    C  4  f(s2)  Ryd( 4f)     0.00002       3.36263
 140    C  4  f(c3)  Ryd( 4f)     0.00043       4.09274
 141    C  4  f(s3)  Ryd( 4f)     0.00019       3.91608

 142    C  5  s      Cor( 1s)     1.99999     -10.30182
 143    C  5  s      Val( 2s)     0.90175      -0.07985
 144    C  5  s      Ryd( 4s)     0.00086       2.41623
 145    C  5  s      Ryd( 3s)     0.00012       1.78641
 146    C  5  s      Ryd( 5s)     0.00000      19.12331
 147    C  5  px     Val( 2p)     1.04905      -0.01666
 148    C  5  px     Ryd( 3p)     0.00454       1.38577
 149    C  5  px     Ryd( 4p)     0.00021       2.29055
 150    C  5  py     Val( 2p)     1.07560      -0.02338
 151    C  5  py     Ryd( 3p)     0.00365       1.31166
 152    C  5  py     Ryd( 4p)     0.00023       2.10090
 153    C  5  pz     Val( 2p)     1.00432      -0.11171
 154    C  5  pz     Ryd( 3p)     0.00120       0.77580
 155    C  5  pz     Ryd( 4p)     0.00009       1.44233
 156    C  5  dxy    Ryd( 3d)     0.00087       3.65699
 157    C  5  dxy    Ryd( 4d)     0.00046       4.46327
 158    C  5  dxz    Ryd( 3d)     0.00047       2.08994
 159    C  5  dxz    Ryd( 4d)     0.00007       3.06030
 160    C  5  dyz    Ryd( 3d)     0.00035       2.12474
 161    C  5  dyz    Ryd( 4d)     0.00014       3.05869
 162    C  5  dx2y2  Ryd( 3d)     0.00082       3.42334
 163    C  5  dx2y2  Ryd( 4d)     0.00053       4.37845
 164    C  5  dz2    Ryd( 3d)     0.00096       3.54338
 165    C  5  dz2    Ryd( 4d)     0.00005       3.70276
 166    C  5  f(0)   Ryd( 4f)     0.00055       3.35927
 167    C  5  f(c1)  Ryd( 4f)     0.00048       3.45108
 168    C  5  f(s1)  Ryd( 4f)     0.00050       3.48734
 169    C  5  f(c2)  Ryd( 4f)     0.00003       3.42728
 170    C  5  f(s2)  Ryd( 4f)     0.00004       3.38156
 171    C  5  f(c3)  Ryd( 4f)     0.00060       4.03241
 172    C  5  f(s3)  Ryd( 4f)     0.00017       4.05108

 173    C  6  s      Cor( 1s)     1.99999     -10.30598
 174    C  6  s      Val( 2s)     0.90835      -0.09800
 175    C  6  s      Ryd( 4s)     0.00080       2.06281
 176    C  6  s      Ryd( 3s)     0.00011       1.61734
 177    C  6  s      Ryd( 5s)     0.00000      19.87874
 178    C  6  px     Val( 2p)     1.04649      -0.01148
 179    C  6  px     Ryd( 3p)     0.00269       1.44834
 180    C  6  px     Ryd( 4p)     0.00026       2.20036
 181    C  6  py     Val( 2p)     1.02604      -0.02341
 182    C  6  py     Ryd( 3p)     0.00340       1.30645
 183    C  6  py     Ryd( 4p)     0.00014       1.99207
 184    C  6  pz     Val( 2p)     0.97768      -0.11106
 185    C  6  pz     Ryd( 3p)     0.00174       0.78478
 186    C  6  pz     Ryd( 4p)     0.00018       1.39299
 187    C  6  dxy    Ryd( 3d)     0.00063       3.18709
 188    C  6  dxy    Ryd( 4d)     0.00067       4.31116
 189    C  6  dxz    Ryd( 3d)     0.00031       2.01725
 190    C  6  dxz    Ryd( 4d)     0.00030       3.21264
 191    C  6  dyz    Ryd( 3d)     0.00039       1.93954
 192    C  6  dyz    Ryd( 4d)     0.00012       3.13788
 193    C  6  dx2y2  Ryd( 3d)     0.00084       3.41256
 194    C  6  dx2y2  Ryd( 4d)     0.00045       4.28525
 195    C  6  dz2    Ryd( 3d)     0.00095       3.35057
 196    C  6  dz2    Ryd( 4d)     0.00005       3.72063
 197    C  6  f(0)   Ryd( 4f)     0.00045       3.35659
 198    C  6  f(c1)  Ryd( 4f)     0.00055       3.49938
 199    C  6  f(s1)  Ryd( 4f)     0.00037       3.40156
 200    C  6  f(c2)  Ryd( 4f)     0.00004       3.38456
 201    C  6  f(s2)  Ryd( 4f)     0.00004       3.43416
 202    C  6  f(c3)  Ryd( 4f)     0.00044       4.02374
 203    C  6  f(s3)  Ryd( 4f)     0.00029       4.00163

 204    C  7  s      Cor( 1s)     1.99999     -10.30222
 205    C  7  s      Val( 2s)     0.96763      -0.12744
 206    C  7  s      Ryd( 3s)     0.00095       1.65391
 207    C  7  s      Ryd( 4s)     0.00009       2.05924
 208    C  7  s      Ryd( 5s)     0.00000      20.98985
 209    C  7  px     Val( 2p)     1.07108      -0.03884
 210    C  7  px     Ryd( 3p)     0.00437       1.07519
 211    C  7  px     Ryd( 4p)     0.00029       1.92274
 212    C  7  py     Val( 2p)     1.17169      -0.07888
 213    C  7  py     Ryd( 3p)     0.00320       1.22582
 214    C  7  py     Ryd( 4p)     0.00017       1.96264
 215    C  7  pz     Val( 2p)     1.00169      -0.12230
 216    C  7  pz     Ryd( 3p)     0.00111       0.73372
 217    C  7  pz     Ryd( 4p)     0.00019       1.32593
 218    C  7  dxy    Ryd( 3d)     0.00139       2.50045
 219    C  7  dxy    Ryd( 4d)     0.00036       3.94609
 220    C  7  dxz    Ryd( 3d)     0.00024       1.75459
 221    C  7  dxz    Ryd( 4d)     0.00012       3.07395
 222    C  7  dyz    Ryd( 3d)     0.00044       1.57952
 223    C  7  dyz    Ryd( 4d)     0.00007       2.93532
 224    C  7  dx2y2  Ryd( 3d)     0.00186       2.44551
 225    C  7  dx2y2  Ryd( 4d)     0.00022       3.90118
 226    C  7  dz2    Ryd( 3d)     0.00129       2.08172
 227    C  7  dz2    Ryd( 4d)     0.00002       3.50555
 228    C  7  f(0)   Ryd( 4f)     0.00049       3.24411
 229    C  7  f(c1)  Ryd( 4f)     0.00040       3.48631
 230    C  7  f(s1)  Ryd( 4f)     0.00053       3.39779
 231    C  7  f(c2)  Ryd( 4f)     0.00002       3.31795
 232    C  7  f(s2)  Ryd( 4f)     0.00002       3.33092
 233    C  7  f(c3)  Ryd( 4f)     0.00058       4.02561
 234    C  7  f(s3)  Ryd( 4f)     0.00020       3.82017

 235    C  8  s      Cor( 1s)     1.99999     -10.30297
 236    C  8  s      Val( 2s)     1.04510      -0.20250
 237    C  8  s      Ryd( 4s)     0.00051       2.23348
 238    C  8  s      Ryd( 3s)     0.00001       1.92434
 239    C  8  s      Ryd( 5s)     0.00000      20.48696
 240    C  8  px     Val( 2p)     1.03199      -0.08436
 241    C  8  px     Ryd( 3p)     0.00129       1.11044
 242    C  8  px     Ryd( 4p)     0.00013       1.43355
 243    C  8  py     Val( 2p)     1.14480      -0.10695
 244    C  8  py     Ryd( 3p)     0.00187       0.92106
 245    C  8  py     Ryd( 4p)     0.00016       1.52799
 246    C  8  pz     Val( 2p)     1.21821      -0.13616
 247    C  8  pz     Ryd( 3p)     0.00046       1.05117
 248    C  8  pz     Ryd( 4p)     0.00020       1.43470
 249    C  8  dxy    Ryd( 3d)     0.00130       2.65901
 250    C  8  dxy    Ryd( 4d)     0.00010       4.22398
 251    C  8  dxz    Ryd( 3d)     0.00046       1.56792
 252    C  8  dxz    Ryd( 4d)     0.00003       3.01152
 253    C  8  dyz    Ryd( 3d)     0.00111       1.88166
 254    C  8  dyz    Ryd( 4d)     0.00012       3.55404
 255    C  8  dx2y2  Ryd( 3d)     0.00020       2.04639
 256    C  8  dx2y2  Ryd( 4d)     0.00037       3.54347
 257    C  8  dz2    Ryd( 3d)     0.00187       2.52093
 258    C  8  dz2    Ryd( 4d)     0.00004       3.69055
 259    C  8  f(0)   Ryd( 4f)     0.00002       3.45487
 260    C  8  f(c1)  Ryd( 4f)     0.00001       3.44753
 261    C  8  f(s1)  Ryd( 4f)     0.00045       4.04299
 262    C  8  f(c2)  Ryd( 4f)     0.00003       3.60478
 263    C  8  f(s2)  Ryd( 4f)     0.00001       3.52921
 264    C  8  f(c3)  Ryd( 4f)     0.00004       3.90701
 265    C  8  f(s3)  Ryd( 4f)     0.00027       3.79257

 266    C  9  s      Cor( 1s)     1.99999     -10.29979
 267    C  9  s      Val( 2s)     0.90990      -0.09446
 268    C  9  s      Ryd( 4s)     0.00088       2.07152
 269    C  9  s      Ryd( 3s)     0.00010       1.58537
 270    C  9  s      Ryd( 5s)     0.00000      19.72769
 271    C  9  px     Val( 2p)     1.04840      -0.01062
 272    C  9  px     Ryd( 3p)     0.00292       1.42327
 273    C  9  px     Ryd( 4p)     0.00026       2.26882
 274    C  9  py     Val( 2p)     1.02824      -0.01756
 275    C  9  py     Ryd( 3p)     0.00330       1.25509
 276    C  9  py     Ryd( 4p)     0.00013       1.99989
 277    C  9  pz     Val( 2p)     0.98606      -0.10720
 278    C  9  pz     Ryd( 3p)     0.00170       0.76523
 279    C  9  pz     Ryd( 4p)     0.00018       1.42034
 280    C  9  dxy    Ryd( 3d)     0.00055       3.18336
 281    C  9  dxy    Ryd( 4d)     0.00066       4.24978
 282    C  9  dxz    Ryd( 3d)     0.00027       2.02193
 283    C  9  dxz    Ryd( 4d)     0.00030       3.17345
 284    C  9  dyz    Ryd( 3d)     0.00039       1.98706
 285    C  9  dyz    Ryd( 4d)     0.00011       3.10001
 286    C  9  dx2y2  Ryd( 3d)     0.00098       3.34006
 287    C  9  dx2y2  Ryd( 4d)     0.00043       4.31122
 288    C  9  dz2    Ryd( 3d)     0.00096       3.37020
 289    C  9  dz2    Ryd( 4d)     0.00004       3.68752
 290    C  9  f(0)   Ryd( 4f)     0.00047       3.35002
 291    C  9  f(c1)  Ryd( 4f)     0.00057       3.46936
 292    C  9  f(s1)  Ryd( 4f)     0.00036       3.41559
 293    C  9  f(c2)  Ryd( 4f)     0.00003       3.38660
 294    C  9  f(s2)  Ryd( 4f)     0.00005       3.41796
 295    C  9  f(c3)  Ryd( 4f)     0.00028       3.99492
 296    C  9  f(s3)  Ryd( 4f)     0.00047       4.00817

 297    C 10  s      Cor( 1s)     1.99999     -10.29321
 298    C 10  s      Val( 2s)     0.96702      -0.12092
 299    C 10  s      Ryd( 3s)     0.00092       1.64717
 300    C 10  s      Ryd( 4s)     0.00004       1.76795
 301    C 10  s      Ryd( 5s)     0.00000      20.66948
 302    C 10  px     Val( 2p)     1.05455      -0.02057
 303    C 10  px     Ryd( 3p)     0.00292       1.07496
 304    C 10  px     Ryd( 4p)     0.00011       1.99130
 305    C 10  py     Val( 2p)     1.16572      -0.05823
 306    C 10  py     Ryd( 3p)     0.00384       1.32086
 307    C 10  py     Ryd( 4p)     0.00013       1.94039
 308    C 10  pz     Val( 2p)     1.00045      -0.11455
 309    C 10  pz     Ryd( 3p)     0.00100       0.78546
 310    C 10  pz     Ryd( 4p)     0.00022       1.28101
 311    C 10  dxy    Ryd( 3d)     0.00129       2.69737
 312    C 10  dxy    Ryd( 4d)     0.00022       3.82274
 313    C 10  dxz    Ryd( 3d)     0.00024       1.94769
 314    C 10  dxz    Ryd( 4d)     0.00009       2.97146
 315    C 10  dyz    Ryd( 3d)     0.00032       1.74025
 316    C 10  dyz    Ryd( 4d)     0.00004       2.80853
 317    C 10  dx2y2  Ryd( 3d)     0.00110       2.64356
 318    C 10  dx2y2  Ryd( 4d)     0.00043       3.90308
 319    C 10  dz2    Ryd( 3d)     0.00111       2.23203
 320    C 10  dz2    Ryd( 4d)     0.00003       3.40215
 321    C 10  f(0)   Ryd( 4f)     0.00043       3.27293
 322    C 10  f(c1)  Ryd( 4f)     0.00034       3.51544
 323    C 10  f(s1)  Ryd( 4f)     0.00048       3.42688
 324    C 10  f(c2)  Ryd( 4f)     0.00002       3.33959
 325    C 10  f(s2)  Ryd( 4f)     0.00001       3.37042
 326    C 10  f(c3)  Ryd( 4f)     0.00034       3.96899
 327    C 10  f(s3)  Ryd( 4f)     0.00034       3.97068

 328    C 11  s      Cor( 1s)     1.99999     -10.29202
 329    C 11  s      Val( 2s)     0.97705      -0.13467
 330    C 11  s      Ryd( 3s)     0.00077       1.55974
 331    C 11  s      Ryd( 4s)     0.00002       1.88927
 332    C 11  s      Ryd( 5s)     0.00000      20.26800
 333    C 11  px     Val( 2p)     1.15798      -0.05550
 334    C 11  px     Ryd( 3p)     0.00420       1.24424
 335    C 11  px     Ryd( 4p)     0.00011       2.04922
 336    C 11  py     Val( 2p)     1.05169      -0.02018
 337    C 11  py     Ryd( 3p)     0.00330       1.02789
 338    C 11  py     Ryd( 4p)     0.00011       1.99778
 339    C 11  pz     Val( 2p)     1.00203      -0.11429
 340    C 11  pz     Ryd( 3p)     0.00145       0.73539
 341    C 11  pz     Ryd( 4p)     0.00020       1.32073
 342    C 11  dxy    Ryd( 3d)     0.00140       2.58564
 343    C 11  dxy    Ryd( 4d)     0.00026       3.69478
 344    C 11  dxz    Ryd( 3d)     0.00033       1.75388
 345    C 11  dxz    Ryd( 4d)     0.00004       2.73978
 346    C 11  dyz    Ryd( 3d)     0.00022       1.94149
 347    C 11  dyz    Ryd( 4d)     0.00009       2.88462
 348    C 11  dx2y2  Ryd( 3d)     0.00089       2.61887
 349    C 11  dx2y2  Ryd( 4d)     0.00037       3.82643
 350    C 11  dz2    Ryd( 3d)     0.00103       2.19090
 351    C 11  dz2    Ryd( 4d)     0.00003       3.35045
 352    C 11  f(0)   Ryd( 4f)     0.00042       3.26853
 353    C 11  f(c1)  Ryd( 4f)     0.00046       3.41698
 354    C 11  f(s1)  Ryd( 4f)     0.00036       3.48528
 355    C 11  f(c2)  Ryd( 4f)     0.00002       3.33630
 356    C 11  f(s2)  Ryd( 4f)     0.00001       3.35760
 357    C 11  f(c3)  Ryd( 4f)     0.00034       3.94111
 358    C 11  f(s3)  Ryd( 4f)     0.00033       3.93195

 359    C 12  s      Cor( 1s)     1.99999     -10.29176
 360    C 12  s      Val( 2s)     0.97612      -0.13311
 361    C 12  s      Ryd( 3s)     0.00078       1.53956
 362    C 12  s      Ryd( 4s)     0.00002       2.00973
 363    C 12  s      Ryd( 5s)     0.00000      20.54632
 364    C 12  px     Val( 2p)     1.10428      -0.03671
 365    C 12  px     Ryd( 3p)     0.00372       1.15123
 366    C 12  px     Ryd( 4p)     0.00013       2.02564
 367    C 12  py     Val( 2p)     1.10788      -0.03948
 368    C 12  py     Ryd( 3p)     0.00381       1.14169
 369    C 12  py     Ryd( 4p)     0.00008       2.00420
 370    C 12  pz     Val( 2p)     1.00276      -0.11405
 371    C 12  pz     Ryd( 3p)     0.00127       0.74338
 372    C 12  pz     Ryd( 4p)     0.00017       1.31134
 373    C 12  dxy    Ryd( 3d)     0.00067       2.61724
 374    C 12  dxy    Ryd( 4d)     0.00043       3.87594
 375    C 12  dxz    Ryd( 3d)     0.00032       1.85807
 376    C 12  dxz    Ryd( 4d)     0.00006       2.80302
 377    C 12  dyz    Ryd( 3d)     0.00024       1.85187
 378    C 12  dyz    Ryd( 4d)     0.00007       2.80461
 379    C 12  dx2y2  Ryd( 3d)     0.00162       2.61492
 380    C 12  dx2y2  Ryd( 4d)     0.00018       3.64055
 381    C 12  dz2    Ryd( 3d)     0.00105       2.19779
 382    C 12  dz2    Ryd( 4d)     0.00004       3.34039
 383    C 12  f(0)   Ryd( 4f)     0.00042       3.26677
 384    C 12  f(c1)  Ryd( 4f)     0.00040       3.46645
 385    C 12  f(s1)  Ryd( 4f)     0.00042       3.44187
 386    C 12  f(c2)  Ryd( 4f)     0.00000       3.36571
 387    C 12  f(s2)  Ryd( 4f)     0.00003       3.32542
 388    C 12  f(c3)  Ryd( 4f)     0.00033       3.93119
 389    C 12  f(s3)  Ryd( 4f)     0.00034       3.94647

 390    C 13  s      Cor( 1s)     1.99999     -10.29380
 391    C 13  s      Val( 2s)     0.96396      -0.11739
 392    C 13  s      Ryd( 4s)     0.00093       1.70240
 393    C 13  s      Ryd( 3s)     0.00005       1.46844
 394    C 13  s      Ryd( 5s)     0.00000      20.38112
 395    C 13  px     Val( 2p)     1.05657      -0.02270
 396    C 13  px     Ryd( 3p)     0.00242       1.13615
 397    C 13  px     Ryd( 4p)     0.00013       1.91570
 398    C 13  py     Val( 2p)     1.15814      -0.05193
 399    C 13  py     Ryd( 3p)     0.00392       1.24446
 400    C 13  py     Ryd( 4p)     0.00016       1.95379
 401    C 13  pz     Val( 2p)     0.99942      -0.11420
 402    C 13  pz     Ryd( 3p)     0.00126       0.77094
 403    C 13  pz     Ryd( 4p)     0.00021       1.28739
 404    C 13  dxy    Ryd( 3d)     0.00150       2.71264
 405    C 13  dxy    Ryd( 4d)     0.00028       3.80561
 406    C 13  dxz    Ryd( 3d)     0.00020       1.93245
 407    C 13  dxz    Ryd( 4d)     0.00010       2.94684
 408    C 13  dyz    Ryd( 3d)     0.00034       1.78349
 409    C 13  dyz    Ryd( 4d)     0.00004       2.82703
 410    C 13  dx2y2  Ryd( 3d)     0.00071       2.77642
 411    C 13  dx2y2  Ryd( 4d)     0.00038       3.95635
 412    C 13  dz2    Ryd( 3d)     0.00110       2.26680
 413    C 13  dz2    Ryd( 4d)     0.00003       3.41171
 414    C 13  f(0)   Ryd( 4f)     0.00042       3.28825
 415    C 13  f(c1)  Ryd( 4f)     0.00034       3.51651
 416    C 13  f(s1)  Ryd( 4f)     0.00044       3.46124
 417    C 13  f(c2)  Ryd( 4f)     0.00002       3.36219
 418    C 13  f(s2)  Ryd( 4f)     0.00001       3.36666
 419    C 13  f(c3)  Ryd( 4f)     0.00032       4.00295
 420    C 13  f(s3)  Ryd( 4f)     0.00033       3.98921

 421    C 14  s      Cor( 1s)     1.99999     -10.29868
 422    C 14  s      Val( 2s)     0.90153      -0.07679
 423    C 14  s      Ryd( 4s)     0.00088       2.23442
 424    C 14  s      Ryd( 3s)     0.00013       1.68525
 425    C 14  s      Ryd( 5s)     0.00000      19.84377
 426    C 14  px     Val( 2p)     1.04759      -0.01093
 427    C 14  px     Ryd( 3p)     0.00489       1.37205
 428    C 14  px     Ryd( 4p)     0.00027       2.35687
 429    C 14  py     Val( 2p)     1.07528      -0.02334
 430    C 14  py     Ryd( 3p)     0.00375       1.28121
 431    C 14  py     Ryd( 4p)     0.00020       2.11847
 432    C 14  pz     Val( 2p)     1.00643      -0.10899
 433    C 14  pz     Ryd( 3p)     0.00118       0.76256
 434    C 14  pz     Ryd( 4p)     0.00009       1.45829
 435    C 14  dxy    Ryd( 3d)     0.00073       3.63608
 436    C 14  dxy    Ryd( 4d)     0.00050       4.41212
 437    C 14  dxz    Ryd( 3d)     0.00041       2.09592
 438    C 14  dxz    Ryd( 4d)     0.00009       3.08279
 439    C 14  dyz    Ryd( 3d)     0.00035       2.10937
 440    C 14  dyz    Ryd( 4d)     0.00013       3.05161
 441    C 14  dx2y2  Ryd( 3d)     0.00098       3.41122
 442    C 14  dx2y2  Ryd( 4d)     0.00053       4.41203
 443    C 14  dz2    Ryd( 3d)     0.00094       3.53512
 444    C 14  dz2    Ryd( 4d)     0.00004       3.69968
 445    C 14  f(0)   Ryd( 4f)     0.00055       3.36431
 446    C 14  f(c1)  Ryd( 4f)     0.00050       3.46729
 447    C 14  f(s1)  Ryd( 4f)     0.00048       3.47237
 448    C 14  f(c2)  Ryd( 4f)     0.00002       3.44245
 449    C 14  f(s2)  Ryd( 4f)     0.00004       3.37582
 450    C 14  f(c3)  Ryd( 4f)     0.00048       4.01922
 451    C 14  f(s3)  Ryd( 4f)     0.00030       4.06479

 452    H 15  s      Val( 1s)     0.77093       0.06282
 453    H 15  s      Ryd( 2s)     0.00054       0.61080
 454    H 15  s      Ryd( 3s)     0.00010       2.14510
 455    H 15  px     Ryd( 2p)     0.00031       2.72917
 456    H 15  py     Ryd( 2p)     0.00040       2.83524
 457    H 15  pz     Ryd( 2p)     0.00012       2.20644

 458    H 16  s      Val( 1s)     0.78175       0.05916
 459    H 16  s      Ryd( 2s)     0.00048       0.77955
 460    H 16  s      Ryd( 3s)     0.00010       2.02440
 461    H 16  px     Ryd( 2p)     0.00014       2.66367
 462    H 16  py     Ryd( 2p)     0.00058       2.99048
 463    H 16  pz     Ryd( 2p)     0.00012       2.22002

 464    H 17  s      Val( 1s)     0.77139       0.05838
 465    H 17  s      Ryd( 2s)     0.00075       0.68172
 466    H 17  s      Ryd( 3s)     0.00009       2.10734
 467    H 17  px     Ryd( 2p)     0.00017       2.66148
 468    H 17  py     Ryd( 2p)     0.00053       2.96374
 469    H 17  pz     Ryd( 2p)     0.00012       2.22332

 470    H 18  s      Val( 1s)     0.76118       0.04194
 471    H 18  s      Ryd( 2s)     0.00054       1.00281
 472    H 18  s      Ryd( 3s)     0.00003       1.74077
 473    H 18  px     Ryd( 2p)     0.00014       2.46672
 474    H 18  py     Ryd( 2p)     0.00031       2.70180
 475    H 18  pz     Ryd( 2p)     0.00052       2.66018

 476    H 19  s      Val( 1s)     0.76118       0.04194
 477    H 19  s      Ryd( 2s)     0.00054       1.00281
 478    H 19  s      Ryd( 3s)     0.00003       1.74077
 479    H 19  px     Ryd( 2p)     0.00014       2.46672
 480    H 19  py     Ryd( 2p)     0.00031       2.70180
 481    H 19  pz     Ryd( 2p)     0.00052       2.66018

 482    H 20  s      Val( 1s)     0.78611       0.06134
 483    H 20  s      Ryd( 2s)     0.00045       0.74271
 484    H 20  s      Ryd( 3s)     0.00009       2.05576
 485    H 20  px     Ryd( 2p)     0.00009       2.64020
 486    H 20  py     Ryd( 2p)     0.00060       2.99155
 487    H 20  pz     Ryd( 2p)     0.00012       2.22330

 488    H 21  s      Val( 1s)     0.78594       0.06597
 489    H 21  s      Ryd( 2s)     0.00026       0.61889
 490    H 21  s      Ryd( 3s)     0.00008       2.15957
 491    H 21  px     Ryd( 2p)     0.00062       2.96916
 492    H 21  py     Ryd( 2p)     0.00009       2.59535
 493    H 21  pz     Ryd( 2p)     0.00011       2.20512

 494    H 22  s      Val( 1s)     0.78568       0.06615
 495    H 22  s      Ryd( 2s)     0.00026       0.61157
 496    H 22  s      Ryd( 3s)     0.00008       2.16628
 497    H 22  px     Ryd( 2p)     0.00036       2.78711
 498    H 22  py     Ryd( 2p)     0.00035       2.77997
 499    H 22  pz     Ryd( 2p)     0.00011       2.20562

 500    H 23  s      Val( 1s)     0.78650       0.06161
 501    H 23  s      Ryd( 2s)     0.00051       0.74421
 502    H 23  s      Ryd( 3s)     0.00010       2.07403
 503    H 23  px     Ryd( 2p)     0.00009       2.63046
 504    H 23  py     Ryd( 2p)     0.00062       3.02469
 505    H 23  pz     Ryd( 2p)     0.00013       2.22386


 Summary of Natural Population Analysis:

                                     Natural Population
             Natural    ---------------------------------------------
  Atom No    Charge        Core      Valence    Rydberg      Total
 --------------------------------------------------------------------
   Br  1    0.05069     27.99995     6.93702    0.01234    34.94931
    C  2   -0.07854      1.99999     4.05333    0.02521     6.07854
    C  3   -0.23434      1.99999     4.21567    0.01868     6.23434
    C  4   -0.18034      1.99999     4.16514    0.01522     6.18034
    C  5   -0.04867      1.99999     4.03071    0.01798     6.04867
    C  6    0.02525      1.99999     3.95856    0.01621     5.97475
    C  7   -0.23069      1.99999     4.21209    0.01862     6.23069
    C  8   -0.45112      1.99999     4.44011    0.01103     6.45112
    C  9    0.01103      1.99999     3.97259    0.01639     5.98897
    C 10   -0.20375      1.99999     4.18774    0.01602     6.20375
    C 11   -0.20550      1.99999     4.18874    0.01676     6.20550
    C 12   -0.20763      1.99999     4.19105    0.01660     6.20763
    C 13   -0.19374      1.99999     4.17809    0.01566     6.19374
    C 14   -0.04927      1.99999     4.03083    0.01846     6.04927
    H 15    0.22760      0.00000     0.77093    0.00147     0.77240
    H 16    0.21684      0.00000     0.78175    0.00142     0.78316
    H 17    0.22695      0.00000     0.77139    0.00166     0.77305
    H 18    0.23730      0.00000     0.76118    0.00152     0.76270
    H 19    0.23730      0.00000     0.76118    0.00152     0.76270
    H 20    0.21254      0.00000     0.78611    0.00135     0.78746
[...]
  154.  0.00048     0.78016  466.   RY ( 1) H 16
  155.  0.00047     1.81034  282.   RY ( 4) C  8
  156.  0.00046     1.42624  360.   RY ( 4) C 11
  157.  0.00045     2.29493  283.   RY ( 5) C  8
  158.  0.00045     1.38837  386.   RY ( 4) C 12
  159.  0.00045     0.73691  486.   RY ( 1) H 20
  160.  0.00044     2.56880  439.   RY ( 5) C 14
  161.  0.00040     2.83157  440.   RY ( 6) C 14
  162.  0.00038     2.60282  441.   RY ( 7) C 14
  163.  0.00037     2.48276  153.   RY ( 5) C  3
  164.  0.00037     3.03063  387.   RY ( 5) C 12
  165.  0.00037     3.53829  310.   RY ( 6) C  9
  166.  0.00037     3.02645  361.   RY ( 5) C 11
  167.  0.00036     2.99154  179.   RY ( 5) C  4
  168.  0.00036     3.05219  335.   RY ( 5) C 10
  169.  0.00035     2.69367  257.   RY ( 5) C  7
  170.  0.00034     3.12049  413.   RY ( 5) C 13
  171.  0.00034     2.68334  206.   RY ( 6) C  5
  172.  0.00033     1.89222  258.   RY ( 6) C  7
  173.  0.00033     2.77404  207.   RY ( 7) C  5
  174.  0.00033     3.24618  232.   RY ( 6) C  6
  175.  0.00032     1.84709  154.   RY ( 6) C  3
  176.  0.00032     3.21968  233.   RY ( 7) C  6
  177.  0.00031     0.89885  129.   RY ( 7) C  2
  178.  0.00029     3.23843  311.   RY ( 7) C  9
  179.  0.00029     3.40564  362.   RY ( 6) C 11
  180.  0.00028     3.88221  208.   RY ( 8) C  5
  181.  0.00028     3.40404  388.   RY ( 6) C 12
  182.  0.00027     3.87414  442.   RY ( 8) C 14
  183.  0.00026     3.31830  336.   RY ( 6) C 10
  184.  0.00026     3.37354  414.   RY ( 6) C 13
  185.  0.00027     0.60524  496.   RY ( 1) H 22
  186.  0.00026     0.61259  491.   RY ( 1) H 21
  187.  0.00026     3.58814  130.   RY ( 8) C  2
  188.  0.00026     3.33916  180.   RY ( 6) C  4
  189.  0.00025     2.46904  284.   RY ( 6) C  8
  190.  0.00023     3.16816  131.   RY ( 9) C  2
  191.  0.00022     2.52530  259.   RY ( 7) C  7
  192.  0.00022     0.84617   95.   RY ( 3)Br  1
  193.  0.00021     2.86929  234.   RY ( 8) C  6
  194.  0.00021     2.95071  312.   RY ( 8) C  9
  195.  0.00018     2.05213  285.   RY ( 7) C  8
  196.  0.00017     0.99637   96.   RY ( 4)Br  1
  197.  0.00015     2.17575  235.   RY ( 9) C  6
  198.  0.00015     2.19176  313.   RY ( 9) C  9
  199.  0.00015     2.52066  155.   RY ( 7) C  3
  200.  0.00014     3.08810  209.   RY ( 9) C  5
  201.  0.00014     3.54892  443.   RY ( 9) C 14
  202.  0.00014     1.57824  286.   RY ( 8) C  8
  203.  0.00014     2.29350  415.   RY ( 7) C 13
  204.  0.00014     1.77021  260.   RY ( 8) C  7
  205.  0.00014     2.46569  477.   RY ( 2) H 18
  206.  0.00014     2.46569  482.   RY ( 2) H 19
  207.  0.00013     2.92772  314.   RY (10) C  9
  208.  0.00013     1.83036  156.   RY ( 8) C  3
  209.  0.00013     1.54726  181.   RY ( 7) C  4
  210.  0.00012     3.16311  236.   RY (10) C  6
  211.  0.00012     2.22002  467.   RY ( 2) H 16
  212.  0.00013     2.22386  502.   RY ( 2) H 23
  213.  0.00012     3.79330  210.   RY (10) C  5
  214.  0.00012     2.22332  472.   RY ( 2) H 17
  215.  0.00012     3.11620  444.   RY (10) C 14
  216.  0.00012     0.51686   97.   RY ( 5)Br  1
  217.  0.00012     2.44981  182.   RY ( 8) C  4
  218.  0.00012     2.22330  487.   RY ( 2) H 20
  219.  0.00012     2.20644  462.   RY ( 2) H 15
  220.  0.00011     2.20562  497.   RY ( 2) H 22
  221.  0.00011     2.20512  492.   RY ( 2) H 21
  222.  0.00011     2.27783  337.   RY ( 7) C 10
  223.  0.00011     1.57102  416.   RY ( 8) C 13
  224.  0.00010     2.00964  261.   RY ( 9) C  7
  225.  0.00010     2.00691  468.   RY ( 3) H 16
  226.  0.00010     2.16205  473.   RY ( 3) H 17
  227.  0.00010     2.05396  503.   RY ( 3) H 23
  228.  0.00010     2.12796  463.   RY ( 3) H 15
  229.  0.00010     2.04972  488.   RY ( 3) H 20
  230.  0.00009     2.87234  445.   RY (11) C 14
  231.  0.00009     2.30615  211.   RY (11) C  5
  232.  0.00009     2.48051  212.   RY (12) C  5
  233.  0.00009     2.15958  498.   RY ( 3) H 22
  234.  0.00008     2.15261  493.   RY ( 3) H 21
  235.  0.00008     2.20838  132.   RY (10) C  2
  236.  0.00008     2.73462  237.   RY (11) C  6
  237.  0.00008     2.30904  446.   RY (12) C 14
  238.  0.00007     2.39307  363.   RY ( 7) C 11
  239.  0.00007     2.12022  183.   RY ( 9) C  4
  240.  0.00007     2.54503  464.   RY ( 4) H 15
  241.  0.00007     2.40599  389.   RY ( 7) C 12
  242.  0.00007     3.40122  315.   RY (11) C  9
  243.  0.00007     2.50633  474.   RY ( 4) H 17
  244.  0.00007     2.29624  478.   RY ( 3) H 18
  245.  0.00007     2.29624  483.   RY ( 3) H 19
  246.  0.00006     3.07363  157.   RY ( 9) C  3
  247.  0.00006     2.92672  238.   RY (12) C  6
  248.  0.00006     2.19541  213.   RY (13) C  5
  249.  0.00006     2.60500  469.   RY ( 4) H 16
  250.  0.00006     2.60412  504.   RY ( 4) H 23
  251.  0.00005     2.12330  287.   RY ( 9) C  8
  252.  0.00005     2.66521  158.   RY (10) C  3
  253.  0.00005     2.02834  447.   RY (13) C 14
  254.  0.00005     2.58891  489.   RY ( 4) H 20
  255.  0.00005     2.09501  417.   RY ( 9) C 13
  256.  0.00005     2.56257  494.   RY ( 4) H 21
  257.  0.00005     2.56356  499.   RY ( 4) H 22
  258.  0.00005     3.45596  338.   RY ( 8) C 10
  259.  0.00004     3.53817  262.   RY (10) C  7
  260.  0.00004     3.62917  316.   RY (12) C  9
  261.  0.00004     3.63997  239.   RY (13) C  6
  262.  0.00004     1.64097  263.   RY (11) C  7
  263.  0.00004     2.17412  317.   RY (13) C  9
  264.  0.00004     3.04033  418.   RY (10) C 13
  265.  0.00003     1.23438   98.   RY ( 6)Br  1
  266.  0.00003     2.21467  288.   RY (10) C  8
  267.  0.00003     2.33147  184.   RY (10) C  4
  268.  0.00003     2.83580  133.   RY (11) C  2
  269.  0.00003     3.38632  264.   RY (12) C  7
  270.  0.00003     1.76909  339.   RY ( 9) C 10
  271.  0.00003     2.15729  364.   RY ( 8) C 11
  272.  0.00002     2.62805  340.   RY (10) C 10
  273.  0.00002     2.18161  390.   RY ( 8) C 12
  274.  0.00002     3.23666  185.   RY (11) C  4
  275.  0.00002     2.15749  240.   RY (14) C  6
  276.  0.00002     1.15455   99.   RY ( 7)Br  1
  277.  0.00002     3.81152  214.   RY (14) C  5
  278.  0.00002     2.82876  215.   RY (15) C  5
  279.  0.00002     2.74582  289.   RY (11) C  8
  280.  0.00002     3.27138  290.   RY (12) C  8
  281.  0.00002     2.61282  318.   RY (14) C  9
  282.  0.00002     2.89403  419.   RY (11) C 13
  283.  0.00002     3.83166  448.   RY (14) C 14
  284.  0.00002     1.69912  341.   RY (11) C 10
  285.  0.00002     2.41077  241.   RY (15) C  6
  286.  0.00002     2.09302  342.   RY (12) C 10
  287.  0.00002     2.81635  449.   RY (15) C 14
  288.  0.00002     3.53195  450.   RY (16) C 14
  289.  0.00002     2.44134  479.   RY ( 4) H 18
  290.  0.00002     2.44135  484.   RY ( 4) H 19
  291.  0.00001     2.95016  186.   RY (12) C  4
  292.  0.00001     2.12702  187.   RY (13) C  4
  293.  0.00001     3.72853  216.   RY (16) C  5
  294.  0.00001     3.10326  242.   RY (16) C  6
  295.  0.00001     3.28004  265.   RY (13) C  7
  296.  0.00001     3.21062  291.   RY (13) C  8
  297.  0.00001     2.77473  292.   RY (14) C  8
  298.  0.00001     3.23838  365.   RY ( 9) C 11
  299.  0.00001     2.76702  420.   RY (12) C 13
  300.  0.00001     3.51321  391.   RY ( 9) C 12
  301.  0.00001     3.50065  159.   RY (11) C  3
  302.  0.00001     2.31073  319.   RY (15) C  9
  303.  0.00001     1.48897  100.   RY ( 8)Br  1
  304.  0.00001     2.85112  134.   RY (12) C  2
  305.  0.00001     2.99869  343.   RY (13) C 10
  306.  0.00001     2.91347  135.   RY (13) C  2
  307.  0.00001     3.02721  266.   RY (14) C  7
  308.  0.00001     3.70544  293.   RY (15) C  8
  309.  0.00001     1.38376  366.   RY (10) C 11
  310.  0.00001     2.56307  367.   RY (11) C 11
  311.  0.00001     2.68420  392.   RY (10) C 12
  312.  0.00001     2.17043  421.   RY (13) C 13
  313.  0.00001     1.24016  393.   RY (11) C 12
  314.  0.00001     2.32030  217.   RY (17) C  5
  315.  0.00001     3.49518  243.   RY (17) C  6
  316.  0.00001     3.37904  320.   RY (16) C  9
  317.  0.00001     3.04226  321.   RY (17) C  9
  318.  0.00001     1.02866  101.   RY ( 9)Br  1
  319.  0.00001     1.42182  102.   RY (10)Br  1
  320.  0.00001     2.27848  136.   RY (14) C  2
  321.  0.00001     1.91393  188.   RY (14) C  4
  322.  0.00001     3.48714  189.   RY (15) C  4
  323.  0.00001     3.29224  422.   RY (14) C 13
  324.  0.00001     2.64126  451.   RY (17) C 14
  325.  0.00001     3.02666  465.   RY ( 5) H 15
  326.  0.00001     3.06194  475.   RY ( 5) H 17
  327.  0.00000     3.75412  103.   RY (11)Br  1
  328.  0.00000     2.14070  104.   RY (12)Br  1
  329.  0.00000     3.68614  137.   RY (15) C  2
  330.  0.00000     2.30838  138.   RY (16) C  2
  331.  0.00000     2.62358  160.   RY (12) C  3
  332.  0.00000     3.66373  190.   RY (16) C  4
  333.  0.00001     3.97374  218.   RY (18) C  5
  334.  0.00001     3.58775  244.   RY (18) C  6
  335.  0.00001     2.52185  267.   RY (15) C  7
  336.  0.00001     3.22216  344.   RY (14) C 10
  337.  0.00001     2.35194  480.   RY ( 5) H 18
  338.  0.00001     2.35192  485.   RY ( 5) H 19
  339.  0.00000     3.17243  268.   RY (16) C  7
  340.  0.00000     2.35329  105.   RY (13)Br  1
  341.  0.00000     1.78582  106.   RY (14)Br  1
  342.  0.00000     2.31884  107.   RY (15)Br  1
  343.  0.00000     5.09476  108.   RY (16)Br  1
  344.  0.00000     2.24648  109.   RY (17)Br  1
  345.  0.00000     2.87063  110.   RY (18)Br  1
  346.  0.00000     1.68595  111.   RY (19)Br  1
  347.  0.00000     4.13160  139.   RY (17) C  2
  348.  0.00000     2.70470  161.   RY (13) C  3
  349.  0.00000     1.72977  162.   RY (14) C  3
  350.  0.00000     3.98984  163.   RY (15) C  3
  351.  0.00000     1.70087  112.   RY (20)Br  1
  352.  0.00000     2.60028  113.   RY (21)Br  1
  353.  0.00000     1.67282  114.   RY (22)Br  1
  354.  0.00000     3.90839  115.   RY (23)Br  1
  355.  0.00000     1.72528  116.   RY (24)Br  1
  356.  0.00000     2.53499  117.   RY (25)Br  1
  357.  0.00000     3.92355  118.   RY (26)Br  1
  358.  0.00000     2.92498  119.   RY (27)Br  1
  359.  0.00000     2.07886  120.   RY (28)Br  1
  360.  0.00000     2.81690  121.   RY (29)Br  1
  361.  0.00000     2.40352  122.   RY (30)Br  1
  362.  0.00000     2.11636  140.   RY (18) C  2
  363.  0.00000     3.29042  141.   RY (19) C  2
  364.  0.00000     3.67566  142.   RY (20) C  2
  365.  0.00000     4.64653  143.   RY (21) C  2
  366.  0.00000     4.14582  164.   RY (16) C  3
  367.  0.00000     3.05122  144.   RY (22) C  2
  368.  0.00000     3.93377  145.   RY (23) C  2
  369.  0.00000     2.64334  146.   RY (24) C  2
  370.  0.00000     3.40460  147.   RY (25) C  2
  371.  0.00000    15.68108  148.   RY (26) C  2
  372.  0.00000     2.78954  165.   RY (17) C  3
  373.  0.00000     2.17419  166.   RY (18) C  3
  374.  0.00000     3.52409  167.   RY (19) C  3
  375.  0.00000     3.52182  168.   RY (20) C  3
  376.  0.00000     1.90613  191.   RY (17) C  4
  377.  0.00000     3.31435  169.   RY (21) C  3
  378.  0.00000     7.68826  170.   RY (22) C  3
  379.  0.00000     3.09201  171.   RY (23) C  3
  380.  0.00000     2.97351  172.   RY (24) C  3
  381.  0.00000     7.79343  173.   RY (25) C  3
  382.  0.00000     9.84820  174.   RY (26) C  3
  383.  0.00000     3.01950  192.   RY (18) C  4
  384.  0.00000    17.05656  193.   RY (19) C  4
  385.  0.00000     3.92015  194.   RY (20) C  4
  386.  0.00000     3.26474  195.   RY (21) C  4
  387.  0.00000     3.62988  196.   RY (22) C  4
  388.  0.00000     4.97654  197.   RY (23) C  4
  389.  0.00000     3.11392  198.   RY (24) C  4
  390.  0.00000     3.71757  199.   RY (25) C  4
  391.  0.00000     3.22598  200.   RY (26) C  4
  392.  0.00000     2.49686  219.   RY (19) C  5
  393.  0.00000     4.47312  220.   RY (20) C  5
  394.  0.00000     2.60990  221.   RY (21) C  5
  395.  0.00000     4.63466  222.   RY (22) C  5
  396.  0.00000     5.16053  223.   RY (23) C  5
  397.  0.00000     3.25864  224.   RY (24) C  5
  398.  0.00000     3.79622  245.   RY (19) C  6
  399.  0.00000     3.43623  269.   RY (17) C  7
  400.  0.00000     3.16698  270.   RY (18) C  7
  401.  0.00000     2.39546  294.   RY (16) C  8
  402.  0.00000     3.29774  322.   RY (18) C  9
  403.  0.00001     3.40260  368.   RY (12) C 11
  404.  0.00001     3.06374  470.   RY ( 5) H 16
  405.  0.00001     3.05250  490.   RY ( 5) H 20
  406.  0.00001     3.01355  495.   RY ( 5) H 21
  407.  0.00001     3.01487  500.   RY ( 5) H 22
  408.  0.00001     3.06947  505.   RY ( 5) H 23
  409.  0.00000     2.89807  295.   RY (17) C  8
  410.  0.00000     3.40489  345.   RY (15) C 10
  411.  0.00000     3.29695  394.   RY (12) C 12
  412.  0.00000     1.75468  423.   RY (15) C 13
  413.  0.00000     3.93748  452.   RY (18) C 14
  414.  0.00000     3.36535  225.   RY (25) C  5
  415.  0.00000    16.69751  226.   RY (26) C  5
  416.  0.00000    19.31837  246.   RY (20) C  6
  417.  0.00000     3.78734  247.   RY (21) C  6
  418.  0.00000     3.01732  248.   RY (22) C  6
  419.  0.00000     3.88837  249.   RY (23) C  6
  420.  0.00000     2.60201  250.   RY (24) C  6
  421.  0.00000     3.42438  251.   RY (25) C  6
  422.  0.00000     2.63250  252.   RY (26) C  6
  423.  0.00000     5.09878  271.   RY (19) C  7
  424.  0.00000     3.16529  272.   RY (20) C  7
  425.  0.00000    11.58394  273.   RY (21) C  7
  426.  0.00000     3.15304  274.   RY (22) C  7
  427.  0.00000     4.06085  275.   RY (23) C  7
  428.  0.00000     9.84032  276.   RY (24) C  7
  429.  0.00000     2.90380  277.   RY (25) C  7
  430.  0.00000     2.12161  278.   RY (26) C  7
  431.  0.00000     5.85929  296.   RY (18) C  8
  432.  0.00000     3.42784  297.   RY (19) C  8
  433.  0.00000     8.30161  298.   RY (20) C  8
  434.  0.00000     2.57772  299.   RY (21) C  8
  435.  0.00000    10.70493  300.   RY (22) C  8
  436.  0.00000     3.23912  301.   RY (23) C  8
  437.  0.00000     5.81767  302.   RY (24) C  8
  438.  0.00000     3.48050  303.   RY (25) C  8
  439.  0.00000     4.38004  369.   RY (13) C 11
  440.  0.00000     3.68845  304.   RY (26) C  8
  441.  0.00000     3.55788  323.   RY (19) C  9
  442.  0.00000     3.82135  324.   RY (20) C  9
  443.  0.00000     2.90244  325.   RY (21) C  9
  444.  0.00000     3.74937  326.   RY (22) C  9
  445.  0.00000     2.64375  327.   RY (23) C  9
  446.  0.00000     3.38371  328.   RY (24) C  9
  447.  0.00000    19.70123  329.   RY (25) C  9
  448.  0.00000     2.77988  346.   RY (16) C 10
  449.  0.00000     2.72897  330.   RY (26) C  9
  450.  0.00000     3.22057  347.   RY (17) C 10
  451.  0.00000     2.35872  348.   RY (18) C 10
  452.  0.00000     3.86158  349.   RY (19) C 10
  453.  0.00000    16.99444  350.   RY (20) C 10
  454.  0.00000     3.39232  351.   RY (21) C 10
  455.  0.00000     2.67701  352.   RY (22) C 10
  456.  0.00000     3.98777  353.   RY (23) C 10
  457.  0.00000     4.86783  354.   RY (24) C 10
  458.  0.00000     2.80563  355.   RY (25) C 10
  459.  0.00000     3.34216  356.   RY (26) C 10
  460.  0.00000     3.12075  370.   RY (14) C 11
  461.  0.00000     1.78632  371.   RY (15) C 11
  462.  0.00000     1.86383  372.   RY (16) C 11
  463.  0.00000     3.58448  373.   RY (17) C 11
  464.  0.00000     2.65009  374.   RY (18) C 11
  465.  0.00000     2.70872  395.   RY (13) C 12
  466.  0.00000     4.67042  396.   RY (14) C 12
  467.  0.00000     4.70336  424.   RY (16) C 13
  468.  0.00000     3.42374  425.   RY (17) C 13
  469.  0.00000     3.25285  375.   RY (19) C 11
  470.  0.00000    10.96759  376.   RY (20) C 11
  471.  0.00000     3.11679  377.   RY (21) C 11
  472.  0.00000     4.12679  378.   RY (22) C 11
  473.  0.00000     7.16099  379.   RY (23) C 11
  474.  0.00000     3.01730  380.   RY (24) C 11
  475.  0.00000     3.31225  381.   RY (25) C 11
  476.  0.00000     5.45576  382.   RY (26) C 11
  477.  0.00000     3.05812  397.   RY (15) C 12
  478.  0.00000     1.85482  398.   RY (16) C 12
  479.  0.00000     2.05259  399.   RY (17) C 12
  480.  0.00000    11.69754  400.   RY (18) C 12
  481.  0.00000     2.92052  401.   RY (19) C 12
  482.  0.00000     3.08164  402.   RY (20) C 12
  483.  0.00000     5.24236  403.   RY (21) C 12
  484.  0.00000     3.27857  404.   RY (22) C 12
  485.  0.00000     2.92326  405.   RY (23) C 12
  486.  0.00000     1.99849  426.   RY (18) C 13
  487.  0.00000     3.11346  406.   RY (24) C 12
  488.  0.00000     3.29530  407.   RY (25) C 12
  489.  0.00000     8.15336  408.   RY (26) C 12
  490.  0.00000     3.21070  427.   RY (19) C 13
  491.  0.00000    15.79479  428.   RY (20) C 13
  492.  0.00000     3.18631  429.   RY (21) C 13
  493.  0.00000     5.08569  430.   RY (22) C 13
  494.  0.00000     3.70928  431.   RY (23) C 13
  495.  0.00000     2.81193  432.   RY (24) C 13
  496.  0.00000     3.34596  433.   RY (25) C 13
  497.  0.00000     4.14830  434.   RY (26) C 13
  498.  0.00000     4.85307  453.   RY (19) C 14
  499.  0.00000     1.88572  454.   RY (20) C 14
  500.  0.00000     4.67746  455.   RY (21) C 14
  501.  0.00000     3.21516  456.   RY (22) C 14
  502.  0.00000     3.97297  457.   RY (23) C 14
  503.  0.00000     3.22381  458.   RY (24) C 14
  504.  0.00000     3.37321  459.   RY (25) C 14
  505.  0.00000    18.03845  460.   RY (26) C 14

 NBO analysis completed in 8.90 CPU seconds (9 wall seconds)
 Maximum scratch memory used by NBO was 2826281 words (21.56 MB)
 Maximum scratch memory used by G16NBO was 394526 words (3.01 MB)

 Opening RunExU unformatted file "/home/rpaton/opt/tzvp/popn/Gau-2152369.EUF"
 Read unf file /home/rpaton/opt/tzvp/popn/Gau-2152369.EUF:
 Label Gaussian matrix elements                                         IVers= 2 NLab= 2 Version=ES64L-G16RevC.01
 Title arbr34_wb97xd_popncreated by GaussianPrep                       
 NAtoms=    23 NBasis=   505 NBsUse=   505 ICharg=     0 Multip=     1 NE=   122 Len12L=8 Len4L=8 IOpCl= 0 ICGU=111
 GAUSSIAN SCALARS                    NI= 1 NR= 1 NTot=       1 LenBuf=    2 NRI=1 N=    1000
 ALPHA ORBITAL ENERGIES              NI= 0 NR= 1 NTot=     505 LenBuf= 2048 NRI=1 N=     505
 ALPHA MO COEFFICIENTS               NI= 0 NR= 1 NTot=  255025 LenBuf= 2048 NRI=1 N=     505     505
 Store file  10524 Len=  255025.
 NPA CHARGES                         NI= 0 NR= 1 NTot=      23 LenBuf= 2048 NRI=1 N=      23
 Recovered energy= -3075.03480508     dipole=      0.818926067230     -0.127762700713      0.000001153457
 Unable to Open any file for archive entry.
 1\1\GINC-DYNAMO\SP\RwB97XD\def2TZVP\C13H9Br1\RPATON\23-Sep-2024\0\\# p
 op=(nbo6read,savenbos,hirshfeld) wb97xd/def2tzvp\\arbr34_wb97xd_popncr
 eated by GaussianPrep\\0,1\Br,0,3.819441,-0.111666,-0.000001\C,0,1.940
 451,0.143434,0.000003\C,0,1.434452,1.435857,0.000001\C,0,0.06234,1.635
 844,0.\C,0,-0.781567,0.536872,0.\C,0,-0.25577,-0.758021,0.000002\C,0,1
 .109476,-0.967808,0.000003\C,0,-1.369891,-1.772021,-0.000002\C,0,-2.60
 3024,-0.905689,0.\C,0,-3.93455,-1.275751,0.000001\C,0,-4.907833,-0.284
 097,0.\C,0,-4.550283,1.059384,0.\C,0,-3.215154,1.435071,-0.000002\C,0,
 -2.24421,0.445415,-0.000002\H,0,2.110761,2.279434,0.\H,0,-0.333704,2.6
 4375,-0.000001\H,0,1.527701,-1.965881,0.000002\H,0,-1.327123,-2.420471
 ,-0.879096\H,0,-1.327126,-2.420471,0.879091\H,0,-4.219932,-2.321068,0.
 \H,0,-5.954802,-0.559597,0.\H,0,-5.321985,1.81873,0.000001\H,0,-2.9408
 36,2.48295,0.\\Version=ES64L-G16RevC.01\State=1-A\HF=-3075.0348051\RMS
 D=5.927e-09\Dipole=-0.8189261,-0.1277627,-0.0000012\Quadrupole=-1.0228
 219,6.4560204,-5.4331985,0.8414573,-0.0000077,0.0000081\PG=C01 [X(C13H
 9Br1)]\\@
 The archive entry for this job was punched.


 FORGIVE MY NONSENSE AS I ALSO FORGIVE THOSE WHO THINK THEY TALK SENSE

                                                       -- ROBERT FROST
 Job cpu time:       0 days  1 hours 18 minutes 33.2 seconds.
 Elapsed time:       0 days  0 hours  3 minutes 18.3 seconds.
 File lengths (MBytes):  RWF=    139 Int=      0 D2E=      0 Chk=     14 Scr=      1
 Normal termination of Gaussian 16 at Mon Sep 23 02:57:00 2024.
