 Entering Gaussian System, Link 0=/usr/local/Gaussian/G16C/g16/g16
 Input=arbr41_wb97xd_popn.com
 Output=arbr41_wb97xd_popn.log
 Initial command:
 /usr/local/Gaussian/G16C/g16/l1.exe "/home/rpaton/opt/tzvp/popn/Gau-2185152.inp" -scrdir="/home/rpaton/opt/tzvp/popn/"
 Entering Link 1 = /usr/local/Gaussian/G16C/g16/l1.exe PID=   2185153.
  
 Copyright (c) 1988-2019, Gaussian, Inc.  All Rights Reserved.
  
 This is part of the Gaussian(R) 16 program.  It is based on
 the Gaussian(R) 09 system (copyright 2009, Gaussian, Inc.),
 the Gaussian(R) 03 system (copyright 2003, Gaussian, Inc.),
 the Gaussian(R) 98 system (copyright 1998, Gaussian, Inc.),
 the Gaussian(R) 94 system (copyright 1995, Gaussian, Inc.),
 the Gaussian 92(TM) system (copyright 1992, Gaussian, Inc.),
 the Gaussian 90(TM) system (copyright 1990, Gaussian, Inc.),
 the Gaussian 88(TM) system (copyright 1988, Gaussian, Inc.),
 the Gaussian 86(TM) system (copyright 1986, Carnegie Mellon
 University), and the Gaussian 82(TM) system (copyright 1983,
 Carnegie Mellon University). Gaussian is a federally registered
 trademark of Gaussian, Inc.
  
 This software contains proprietary and confidential information,
 including trade secrets, belonging to Gaussian, Inc.
  
 This software is provided under written license and may be
 used, copied, transmitted, or stored only in accord with that
 written license.
  
 The following legend is applicable only to US Government
 contracts under FAR:
  
                    RESTRICTED RIGHTS LEGEND
  
 Use, reproduction and disclosure by the US Government is
 subject to restrictions as set forth in subparagraphs (a)
 and (c) of the Commercial Computer Software - Restricted
 Rights clause in FAR 52.227-19.
  
 Gaussian, Inc.
 340 Quinnipiac St., Bldg. 40, Wallingford CT 06492
  
  
 ---------------------------------------------------------------
 Warning -- This program may not be used in any manner that
 competes with the business of Gaussian, Inc. or will provide
 assistance to any competitor of Gaussian, Inc.  The licensee
 of this program is prohibited from giving any competitor of
 Gaussian, Inc. access to this program.  By using this program,
 the user acknowledges that Gaussian, Inc. is engaged in the
 business of creating and licensing software in the field of
 computational chemistry and represents and warrants to the
 licensee that it is not a competitor of Gaussian, Inc. and that
 it will not use this program in any manner prohibited above.
 ---------------------------------------------------------------
  

 Cite this work as:
 Gaussian 16, Revision C.01,
 M. J. Frisch, G. W. Trucks, H. B. Schlegel, G. E. Scuseria, 
 M. A. Robb, J. R. Cheeseman, G. Scalmani, V. Barone, 
 G. A. Petersson, H. Nakatsuji, X. Li, M. Caricato, A. V. Marenich, 
 J. Bloino, B. G. Janesko, R. Gomperts, B. Mennucci, H. P. Hratchian, 
 J. V. Ortiz, A. F. Izmaylov, J. L. Sonnenberg, D. Williams-Young, 
 F. Ding, F. Lipparini, F. Egidi, J. Goings, B. Peng, A. Petrone, 
 T. Henderson, D. Ranasinghe, V. G. Zakrzewski, J. Gao, N. Rega, 
 G. Zheng, W. Liang, M. Hada, M. Ehara, K. Toyota, R. Fukuda, 
 J. Hasegawa, M. Ishida, T. Nakajima, Y. Honda, O. Kitao, H. Nakai, 
 T. Vreven, K. Throssell, J. A. Montgomery, Jr., J. E. Peralta, 
 F. Ogliaro, M. J. Bearpark, J. J. Heyd, E. N. Brothers, K. N. Kudin, 
 V. N. Staroverov, T. A. Keith, R. Kobayashi, J. Normand, 
 K. Raghavachari, A. P. Rendell, J. C. Burant, S. S. Iyengar, 
 J. Tomasi, M. Cossi, J. M. Millam, M. Klene, C. Adamo, R. Cammi, 
 J. W. Ochterski, R. L. Martin, K. Morokuma, O. Farkas, 
 J. B. Foresman, and D. J. Fox, Gaussian, Inc., Wallingford CT, 2019.
 
 ******************************************
 Gaussian 16:  ES64L-G16RevC.01  3-Jul-2019
                23-Sep-2024 
 ******************************************
 %chk=arbr41_wb97xd_popn.chk
 %mem=48GB
 %nprocshared=24
 Will use up to   24 processors via shared memory.
 ---------------------------------------------------
 # pop=(nbo6read,savenbos,hirshfeld) wb97xd/def2tzvp
 ---------------------------------------------------
 1/38=1,163=2,172=1/1;
 2/12=2,17=6,18=5,40=1/2;
 3/5=44,7=101,11=2,25=1,30=1,74=-58/1,2,3;
 4//1;
 5/5=2,38=5/2;
 6/7=2,8=2,9=2,10=2,28=1,40=2,73=1,79=1,113=1,114=1,124=2103,126=1/1,12;
 99/5=1,9=1/99;
 -----------------------------------------
 arbr41_wb97xd_popncreated by GaussianPrep
 -----------------------------------------
 Symbolic Z-matrix:
 Charge =  0 Multiplicity = 1
 N                    -3.1226   -2.4225   -1.15683 
 C                    -2.79168  -1.68746  -0.34044 
 C                    -2.38173  -0.7358    0.69614 
 C                    -3.36766   0.45447   0.81361 
 C                    -2.80117   1.53923  -0.11624 
 C                    -1.32651   1.23949  -0.12771 
 C                    -0.27048   2.03902  -0.52864 
 C                     1.0237    1.54182  -0.46979 
 C                     1.24557   0.24899  -0.01757 
 Br                    3.01824  -0.41379   0.06208 
 C                     0.19922  -0.56795   0.38171 
 C                    -1.08025  -0.04907   0.32434 
 H                    -2.30394  -1.28989   1.63292 
 H                    -4.3911    0.17081   0.57738 
 H                    -3.34177   0.80651   1.84562 
 H                    -3.21026   1.44243  -1.12603 
 H                    -3.03079   2.54575   0.23319 
 H                    -0.44178   3.04793  -0.88322 
 H                     1.85978   2.15712  -0.77233 
 H                     0.38547  -1.57699   0.72492 
 
                          Input orientation:                          
 ---------------------------------------------------------------------
 Center     Atomic      Atomic             Coordinates (Angstroms)
 Number     Number       Type             X           Y           Z
 ---------------------------------------------------------------------
      1          7           0       -3.122595   -2.422497   -1.156833
      2          6           0       -2.791680   -1.687459   -0.340437
      3          6           0       -2.381735   -0.735795    0.696140
      4          6           0       -3.367663    0.454468    0.813612
      5          6           0       -2.801165    1.539228   -0.116235
      6          6           0       -1.326507    1.239489   -0.127705
      7          6           0       -0.270479    2.039015   -0.528637
      8          6           0        1.023702    1.541820   -0.469789
      9          6           0        1.245572    0.248994   -0.017571
     10         35           0        3.018243   -0.413791    0.062081
     11          6           0        0.199215   -0.567946    0.381705
     12          6           0       -1.080254   -0.049069    0.324341
     13          1           0       -2.303940   -1.289890    1.632920
     14          1           0       -4.391104    0.170811    0.577384
     15          1           0       -3.341773    0.806512    1.845622
     16          1           0       -3.210264    1.442433   -1.126034
     17          1           0       -3.030789    2.545752    0.233194
     18          1           0       -0.441776    3.047927   -0.883224
     19          1           0        1.859783    2.157123   -0.772325
     20          1           0        0.385470   -1.576992    0.724922
 ---------------------------------------------------------------------
                    Distance matrix (angstroms):
                    1          2          3          4          5
     1  N    0.000000
     2  C    1.147296   0.000000
     3  C    2.612919   1.465678   0.000000
     4  C    3.495660   2.500287   1.550026   0.000000
     5  C    4.108701   3.234481   2.451857   1.536958   0.000000
     6  C    4.206564   3.280093   2.386205   2.380893   1.504856
     7  C    5.332381   4.503164   3.695545   3.728937   2.612324
     8  C    5.777510   5.000211   4.259568   4.702503   3.841174
     9  C    5.245538   4.489265   3.825774   4.692017   4.248590
    10  Br   6.574994   5.961498   5.446603   6.488333   6.140976
    11  C    4.103764   3.274179   2.605445   3.735571   3.700055
    12  C    3.463841   2.460738   1.517788   2.392734   2.382925
    13  H    3.120211   2.071253   1.091160   2.201263   3.363136
    14  H    3.367769   2.617961   2.207623   1.087978   2.209429
    15  H    4.414666   3.361748   2.149812   1.090711   2.162871
    16  H    3.866047   3.254013   2.958286   2.182447   1.093812
    17  H    5.159855   4.278586   3.377002   2.196324   1.089917
    18  H    6.098130   5.314184   4.535899   4.262170   2.903646
    19  H    6.778264   6.050078   5.340022   5.721925   4.747282
    20  H    4.069693   3.352831   2.892380   4.268572   4.535749
                    6          7          8          9         10
     6  C    0.000000
     7  C    1.383902   0.000000
     8  C    2.394140   1.387649   0.000000
     9  C    2.758405   2.400786   1.387489   0.000000
    10  Br   4.652548   4.144985   2.843500   1.894199   0.000000
    11  C    2.419535   2.800996   2.419904   1.386245   2.841275
    12  C    1.387576   2.396540   2.754669   2.369644   4.123043
    13  H    3.233100   4.459697   4.849038   4.206105   5.617893
    14  H    3.321292   4.657577   5.682989   5.668527   7.450216
    15  H    2.853557   4.072962   4.995916   4.982574   6.717139
    16  H    2.141585   3.058616   4.285674   4.744203   6.606927
    17  H    2.177418   2.908003   4.235677   4.860581   6.736391
    18  H    2.150350   1.083041   2.141708   3.380906   4.984860
    19  H    3.377874   2.147405   1.081276   2.141930   2.940725
    20  H    3.404468   3.882935   3.400245   2.150650   2.953623
                   11         12         13         14         15
    11  C    0.000000
    12  C    1.381870   0.000000
    13  H    2.890074   2.179317   0.000000
    14  H    4.653502   3.327778   2.757546   0.000000
    15  H    4.070723   2.856708   2.348881   1.764551   0.000000
    16  H    4.235499   2.977433   3.987335   2.431674   3.041781
    17  H    4.488886   3.247459   4.147251   2.758490   2.391985
    18  H    3.884000   3.384856   5.349326   5.099840   4.569521
    19  H    3.393416   3.835854   5.916392   6.696323   5.977791
    20  H    1.081972   2.154846   2.853036   5.088442   4.563924
                   16         17         18         19         20
    16  H    0.000000
    17  H    1.759837   0.000000
    18  H    3.209532   2.863836   0.000000
    19  H    5.132375   5.007973   2.470426   0.000000
    20  H    5.047006   5.376769   4.965918   4.284736   0.000000
 Stoichiometry    C10H8BrN
 Framework group  C1[X(C10H8BrN)]
 Deg. of freedom    54
 Full point group                 C1      NOp   1
 Largest Abelian subgroup         C1      NOp   1
 Largest concise Abelian subgroup C1      NOp   1
                         Standard orientation:                         
 ---------------------------------------------------------------------
 Center     Atomic      Atomic             Coordinates (Angstroms)
 Number     Number       Type             X           Y           Z
 ---------------------------------------------------------------------
      1          7           0       -3.122595   -2.422497   -1.156833
      2          6           0       -2.791680   -1.687459   -0.340437
      3          6           0       -2.381735   -0.735795    0.696140
      4          6           0       -3.367663    0.454468    0.813612
      5          6           0       -2.801165    1.539228   -0.116235
      6          6           0       -1.326507    1.239489   -0.127705
      7          6           0       -0.270479    2.039015   -0.528637
      8          6           0        1.023702    1.541820   -0.469789
      9          6           0        1.245572    0.248994   -0.017571
     10         35           0        3.018243   -0.413791    0.062081
     11          6           0        0.199215   -0.567946    0.381705
     12          6           0       -1.080254   -0.049069    0.324341
     13          1           0       -2.303940   -1.289890    1.632920
     14          1           0       -4.391104    0.170811    0.577384
     15          1           0       -3.341773    0.806512    1.845622
     16          1           0       -3.210264    1.442433   -1.126034
     17          1           0       -3.030789    2.545752    0.233194
     18          1           0       -0.441776    3.047927   -0.883224
     19          1           0        1.859783    2.157123   -0.772325
     20          1           0        0.385470   -1.576992    0.724922
 ---------------------------------------------------------------------
 Rotational constants (GHZ):           1.4484339           0.3559343           0.3039228
 Standard basis: def2TZVP (5D, 7F)
 There are   499 symmetry adapted cartesian basis functions of A   symmetry.
 There are   437 symmetry adapted basis functions of A   symmetry.
   437 basis functions,   739 primitive gaussians,   499 cartesian basis functions
    55 alpha electrons       55 beta electrons
       nuclear repulsion energy       873.9384350637 Hartrees.
 NAtoms=   20 NActive=   20 NUniq=   20 SFac= 1.00D+00 NAtFMM=   60 NAOKFM=F Big=F
 Integral buffers will be    131072 words long.
 Raffenetti 2 integral format.
 Two-electron integral symmetry is turned on.
 Nuclear repulsion after empirical dispersion term =      873.9251535489 Hartrees.
 One-electron integrals computed using PRISM.
   1 Symmetry operations used in ECPInt.
 ECPInt:  NShTT=   14365 NPrTT=   47610 LenC2=   13629 LenP2D=   33850.
 LDataN:  DoStor=T MaxTD1= 6 Len=  172
 NBasis=   437 RedAO= T EigKep=  5.93D-06  NBF=   437
 NBsUse=   437 1.00D-06 EigRej= -1.00D+00 NBFU=   437
 ExpMin= 9.52D-02 ExpMax= 5.65D+05 ExpMxC= 5.46D+03 IAcc=3 IRadAn=         5 AccDes= 0.00D+00
 Harris functional with IExCor= 4639 and IRadAn=       5 diagonalized for initial guess.
 HarFok:  IExCor= 4639 AccDes= 0.00D+00 IRadAn=         5 IDoV= 1 UseB2=F ITyADJ=14
 ICtDFT=  3500011 ScaDFX=  1.000000  1.000000  1.000000  1.000000
 FoFCou: FMM=F IPFlag=           0 FMFlag=      100000 FMFlg1=           0
         NFxFlg=           0 DoJE=T BraDBF=F KetDBF=T FulRan=T
         wScrn=  0.000000 ICntrl=       500 IOpCl=  0 I1Cent=   200000004 NGrid=           0
         NMat0=    1 NMatS0=      1 NMatT0=    0 NMatD0=    1 NMtDS0=    0 NMtDT0=    0
 Petite list used in FoFCou.
 Requested convergence on RMS density matrix=1.00D-08 within 128 cycles.
 Requested convergence on MAX density matrix=1.00D-06.
 Requested convergence on             energy=1.00D-06.
 No special actions if energy rises.
 Integral accuracy reduced to 1.0D-05 until final iterations.
 Initial convergence to 1.0D-05 achieved.  Increase integral accuracy.
 SCF Done:  E(RwB97XD) =  -3014.84446767     A.U. after   18 cycles
            NFock= 18  Conv=0.36D-08     -V/T= 2.0019

 **********************************************************************

            Population analysis using the SCF Density.

 **********************************************************************

 Orbital symmetries:
       Occupied  (A) (A) (A) (A) (A) (A) (A) (A) (A) (A) (A) (A)
                 (A) (A) (A) (A) (A) (A) (A) (A) (A) (A) (A) (A)
                 (A) (A) (A) (A) (A) (A) (A) (A) (A) (A) (A) (A)
                 (A) (A) (A) (A) (A) (A) (A) (A) (A) (A) (A) (A)
                 (A) (A) (A) (A) (A) (A) (A)
       Virtual   (A) (A) (A) (A) (A) (A) (A) (A) (A) (A) (A) (A)
                 (A) (A) (A) (A) (A) (A) (A) (A) (A) (A) (A) (A)
                 (A) (A) (A) (A) (A) (A) (A) (A) (A) (A) (A) (A)
                 (A) (A) (A) (A) (A) (A) (A) (A) (A) (A) (A) (A)
                 (A) (A) (A) (A) (A) (A) (A) (A) (A) (A) (A) (A)
                 (A) (A) (A) (A) (A) (A) (A) (A) (A) (A) (A) (A)
                 (A) (A) (A) (A) (A) (A) (A) (A) (A) (A) (A) (A)
                 (A) (A) (A) (A) (A) (A) (A) (A) (A) (A) (A) (A)
                 (A) (A) (A) (A) (A) (A) (A) (A) (A) (A) (A) (A)
                 (A) (A) (A) (A) (A) (A) (A) (A) (A) (A) (A) (A)
                 (A) (A) (A) (A) (A) (A) (A) (A) (A) (A) (A) (A)
                 (A) (A) (A) (A) (A) (A) (A) (A) (A) (A) (A) (A)
                 (A) (A) (A) (A) (A) (A) (A) (A) (A) (A) (A) (A)
                 (A) (A) (A) (A) (A) (A) (A) (A) (A) (A) (A) (A)
                 (A) (A) (A) (A) (A) (A) (A) (A) (A) (A) (A) (A)
                 (A) (A) (A) (A) (A) (A) (A) (A) (A) (A) (A) (A)
                 (A) (A) (A) (A) (A) (A) (A) (A) (A) (A) (A) (A)
                 (A) (A) (A) (A) (A) (A) (A) (A) (A) (A) (A) (A)
                 (A) (A) (A) (A) (A) (A) (A) (A) (A) (A) (A) (A)
                 (A) (A) (A) (A) (A) (A) (A) (A) (A) (A) (A) (A)
                 (A) (A) (A) (A) (A) (A) (A) (A) (A) (A) (A) (A)
                 (A) (A) (A) (A) (A) (A) (A) (A) (A) (A) (A) (A)
                 (A) (A) (A) (A) (A) (A) (A) (A) (A) (A) (A) (A)
                 (A) (A) (A) (A) (A) (A) (A) (A) (A) (A) (A) (A)
                 (A) (A) (A) (A) (A) (A) (A) (A) (A) (A) (A) (A)
                 (A) (A) (A) (A) (A) (A) (A) (A) (A) (A) (A) (A)
                 (A) (A) (A) (A) (A) (A) (A) (A) (A) (A) (A) (A)
                 (A) (A) (A) (A) (A) (A) (A) (A) (A) (A) (A) (A)
                 (A) (A) (A) (A) (A) (A) (A) (A) (A) (A) (A) (A)
                 (A) (A) (A) (A) (A) (A) (A) (A) (A) (A) (A) (A)
                 (A) (A) (A) (A) (A) (A) (A) (A) (A) (A) (A) (A)
                 (A) (A) (A) (A) (A) (A) (A) (A) (A) (A)
 The electronic state is 1-A.
 Alpha  occ. eigenvalues -- -483.13478 -62.68319 -56.47436 -56.47079 -56.47071
 Alpha  occ. eigenvalues --  -14.43329 -10.35748 -10.35274 -10.32433 -10.32075
 Alpha  occ. eigenvalues --  -10.31602 -10.31471 -10.31421 -10.31231 -10.31065
 Alpha  occ. eigenvalues --  -10.30906  -8.82436  -6.64599  -6.63450  -6.63424
 Alpha  occ. eigenvalues --   -2.74991  -2.74651  -2.74633  -2.73703  -2.73703
 Alpha  occ. eigenvalues --   -1.02358  -1.00454  -0.96159  -0.90714  -0.88127
 Alpha  occ. eigenvalues --   -0.84603  -0.81725  -0.73477  -0.72507  -0.69008
 Alpha  occ. eigenvalues --   -0.63339  -0.61870  -0.58123  -0.56199  -0.55327
 Alpha  occ. eigenvalues --   -0.53749  -0.51857  -0.50252  -0.48516  -0.47078
 Alpha  occ. eigenvalues --   -0.46566  -0.46036  -0.45018  -0.44125  -0.41636
 Alpha  occ. eigenvalues --   -0.41370  -0.40178  -0.37886  -0.35510  -0.32506
 Alpha virt. eigenvalues --    0.02611   0.03512   0.06626   0.08490   0.10453
 Alpha virt. eigenvalues --    0.11563   0.12316   0.13889   0.14442   0.15747
 Alpha virt. eigenvalues --    0.16127   0.17349   0.17662   0.19110   0.19788
 Alpha virt. eigenvalues --    0.21074   0.21366   0.22929   0.24108   0.24737
 Alpha virt. eigenvalues --    0.25333   0.26494   0.27457   0.28495   0.28822
 Alpha virt. eigenvalues --    0.28847   0.30111   0.30535   0.31667   0.32490
 Alpha virt. eigenvalues --    0.32856   0.33836   0.34970   0.35731   0.36274
 Alpha virt. eigenvalues --    0.36749   0.37122   0.38093   0.38691   0.39870
 Alpha virt. eigenvalues --    0.40425   0.42499   0.42835   0.43034   0.43770
 Alpha virt. eigenvalues --    0.44664   0.45348   0.46232   0.47258   0.47831
 Alpha virt. eigenvalues --    0.48381   0.48832   0.49063   0.49603   0.49689
 Alpha virt. eigenvalues --    0.50339   0.52205   0.53121   0.54143   0.54234
 Alpha virt. eigenvalues --    0.55605   0.56579   0.57677   0.58298   0.58985
 Alpha virt. eigenvalues --    0.60411   0.61677   0.62198   0.63360   0.64105
 Alpha virt. eigenvalues --    0.65213   0.65774   0.67667   0.68443   0.70127
 Alpha virt. eigenvalues --    0.72749   0.73169   0.74313   0.75140   0.76760
 Alpha virt. eigenvalues --    0.78486   0.79271   0.80010   0.80539   0.81019
 Alpha virt. eigenvalues --    0.83822   0.85020   0.86865   0.88041   0.88640
 Alpha virt. eigenvalues --    0.90134   0.90981   0.92541   0.94096   0.95761
 Alpha virt. eigenvalues --    0.97749   0.98733   0.99541   0.99881   1.02936
 Alpha virt. eigenvalues --    1.03441   1.04868   1.06323   1.07650   1.08273
 Alpha virt. eigenvalues --    1.08676   1.11326   1.12965   1.16412   1.16731
 Alpha virt. eigenvalues --    1.18231   1.18772   1.19674   1.20111   1.22141
 Alpha virt. eigenvalues --    1.25855   1.26642   1.27337   1.27819   1.29305
 Alpha virt. eigenvalues --    1.30125   1.31641   1.32899   1.34025   1.35451
 Alpha virt. eigenvalues --    1.36098   1.38009   1.38201   1.39848   1.41780
 Alpha virt. eigenvalues --    1.42876   1.43263   1.44468   1.46433   1.46794
 Alpha virt. eigenvalues --    1.48003   1.50361   1.51509   1.51826   1.52825
 Alpha virt. eigenvalues --    1.54256   1.55403   1.56946   1.59036   1.59526
 Alpha virt. eigenvalues --    1.61220   1.61294   1.61860   1.63595   1.64103
 Alpha virt. eigenvalues --    1.65507   1.67072   1.67822   1.68637   1.70501
 Alpha virt. eigenvalues --    1.71012   1.71602   1.72495   1.74011   1.74920
 Alpha virt. eigenvalues --    1.77448   1.78282   1.79840   1.80381   1.82608
 Alpha virt. eigenvalues --    1.84859   1.85738   1.87454   1.87843   1.89462
 Alpha virt. eigenvalues --    1.91667   1.91779   1.94250   1.95790   1.97541
 Alpha virt. eigenvalues --    1.99002   2.00319   2.01389   2.03060   2.05856
 Alpha virt. eigenvalues --    2.07118   2.08861   2.10562   2.12302   2.14289
 Alpha virt. eigenvalues --    2.15464   2.17380   2.20807   2.23495   2.23944
 Alpha virt. eigenvalues --    2.26496   2.28204   2.29160   2.30408   2.33271
 Alpha virt. eigenvalues --    2.36350   2.36588   2.38593   2.40276   2.41945
 Alpha virt. eigenvalues --    2.44828   2.45530   2.46247   2.47952   2.51075
 Alpha virt. eigenvalues --    2.51586   2.54754   2.57153   2.58844   2.60787
 Alpha virt. eigenvalues --    2.61572   2.62492   2.64003   2.67429   2.68547
 Alpha virt. eigenvalues --    2.69149   2.69972   2.70169   2.72291   2.73954
 Alpha virt. eigenvalues --    2.75591   2.76736   2.79307   2.79851   2.80106
 Alpha virt. eigenvalues --    2.81224   2.83805   2.84566   2.85689   2.86890
 Alpha virt. eigenvalues --    2.88197   2.88576   2.90510   2.92392   2.92712
 Alpha virt. eigenvalues --    2.94956   2.95379   2.96325   2.98447   2.99747
 Alpha virt. eigenvalues --    3.01744   3.02981   3.04631   3.05410   3.06662
 Alpha virt. eigenvalues --    3.07373   3.10211   3.11121   3.12299   3.12815
 Alpha virt. eigenvalues --    3.14701   3.17489   3.18926   3.19620   3.20237
 Alpha virt. eigenvalues --    3.20856   3.23521   3.24742   3.26635   3.27440
 Alpha virt. eigenvalues --    3.28957   3.29553   3.30179   3.31601   3.33031
 Alpha virt. eigenvalues --    3.33804   3.35336   3.35518   3.37210   3.38422
 Alpha virt. eigenvalues --    3.40052   3.40940   3.41719   3.42817   3.44927
 Alpha virt. eigenvalues --    3.46111   3.47693   3.49481   3.50591   3.51778
 Alpha virt. eigenvalues --    3.53630   3.54701   3.55846   3.57657   3.58206
 Alpha virt. eigenvalues --    3.61184   3.62424   3.63043   3.63223   3.64075
 Alpha virt. eigenvalues --    3.65906   3.68008   3.70879   3.71948   3.75263
 Alpha virt. eigenvalues --    3.75457   3.79816   3.82986   3.85133   3.86678
 Alpha virt. eigenvalues --    3.88623   3.89419   3.93784   3.94509   3.99358
 Alpha virt. eigenvalues --    4.01501   4.02655   4.05579   4.06072   4.07322
 Alpha virt. eigenvalues --    4.07572   4.08635   4.10349   4.10949   4.12024
 Alpha virt. eigenvalues --    4.14492   4.19059   4.19660   4.21996   4.22865
 Alpha virt. eigenvalues --    4.26455   4.27410   4.28395   4.29905   4.31278
 Alpha virt. eigenvalues --    4.32827   4.34784   4.36073   4.38292   4.43535
 Alpha virt. eigenvalues --    4.44166   4.46504   4.47557   4.50758   4.51650
 Alpha virt. eigenvalues --    4.53883   4.56644   4.59050   4.63147   4.64975
 Alpha virt. eigenvalues --    4.66869   4.68186   4.71283   4.73543   4.76896
 Alpha virt. eigenvalues --    4.79362   4.81120   4.84824   4.85928   4.88877
 Alpha virt. eigenvalues --    4.92001   4.96266   5.01022   5.03044   5.04998
 Alpha virt. eigenvalues --    5.19147   5.21072   5.26568   5.28674   5.31301
 Alpha virt. eigenvalues --    5.33251   5.36799   5.46269   5.57949   5.66108
 Alpha virt. eigenvalues --    5.74846   5.80673   5.89929   5.91274   6.21498
 Alpha virt. eigenvalues --    7.85736  22.21282  22.58068  22.63148  22.77959
 Alpha virt. eigenvalues --   22.83432  22.88482  22.94711  23.08468  23.55256
 Alpha virt. eigenvalues --   23.73278  32.24573
          Condensed to atoms (all electrons):
               1          2          3          4          5          6
     1  N    6.111115   0.912613  -0.030148  -0.001629   0.000609   0.000811
     2  C    0.912613   5.352900   0.122847   0.013841  -0.001341   0.006042
     3  C   -0.030148   0.122847   5.011261   0.264407  -0.040578  -0.068247
     4  C   -0.001629   0.013841   0.264407   4.884803   0.381669  -0.060257
     5  C    0.000609  -0.001341  -0.040578   0.381669   4.949547   0.281617
     6  C    0.000811   0.006042  -0.068247  -0.060257   0.281617   5.227474
     7  C   -0.000212   0.002554   0.005364  -0.000034  -0.071956   0.308872
     8  C    0.000076  -0.000182   0.000261   0.000950   0.010054   0.075578
     9  C   -0.000250   0.000571   0.004764  -0.000763  -0.004801  -0.130843
    10  Br   0.000001   0.000109  -0.001263   0.000033  -0.000002  -0.002197
    11  C    0.001776   0.004779  -0.085396   0.007523   0.018186   0.045879
    12  C   -0.002880  -0.020059   0.271951  -0.040920  -0.085054   0.422017
    13  H   -0.000244  -0.058543   0.440910  -0.032409   0.007994  -0.000311
    14  H    0.000696  -0.005574  -0.038524   0.436666  -0.038985   0.009780
    15  H   -0.000120   0.003892  -0.033412   0.411329  -0.031573  -0.002133
    16  H    0.000048   0.002442  -0.003443  -0.019511   0.379803  -0.017264
    17  H    0.000000  -0.000340   0.009077  -0.035611   0.427262  -0.045763
    18  H   -0.000001  -0.000040  -0.000114  -0.000226  -0.005261  -0.062777
    19  H    0.000000  -0.000008   0.000134   0.000004   0.000053   0.015938
    20  H    0.000273  -0.001088   0.000400   0.000195  -0.000068   0.015983
               7          8          9         10         11         12
     1  N   -0.000212   0.000076  -0.000250   0.000001   0.001776  -0.002880
     2  C    0.002554  -0.000182   0.000571   0.000109   0.004779  -0.020059
     3  C    0.005364   0.000261   0.004764  -0.001263  -0.085396   0.271951
     4  C   -0.000034   0.000950  -0.000763   0.000033   0.007523  -0.040920
     5  C   -0.071956   0.010054  -0.004801  -0.000002   0.018186  -0.085054
     6  C    0.308872   0.075578  -0.130843  -0.002197   0.045879   0.422017
     7  C    5.218115   0.308867   0.116929   0.019413  -0.117609   0.035906
     8  C    0.308867   5.139299   0.329277  -0.084753   0.067240  -0.126261
     9  C    0.116929   0.329277   4.921369   0.362240   0.299298   0.090016
    10  Br   0.019413  -0.084753   0.362240  34.835855  -0.078415   0.016819
    11  C   -0.117609   0.067240   0.299298  -0.078415   5.424568   0.245399
    12  C    0.035906  -0.126261   0.090016   0.016819   0.245399   5.180312
    13  H   -0.001500   0.000407  -0.000102   0.000013   0.001742  -0.040794
    14  H   -0.000290  -0.000001   0.000028  -0.000000  -0.000589   0.006586
    15  H    0.001596  -0.000180  -0.000027   0.000000   0.000611   0.003565
    16  H    0.005800  -0.000534   0.000200  -0.000003   0.000125  -0.009514
    17  H   -0.000291   0.000078   0.000214  -0.000001  -0.000812   0.006303
    18  H    0.452416  -0.057998   0.010580  -0.000259  -0.003653   0.016815
    19  H   -0.068085   0.459021  -0.069742  -0.004357   0.018234  -0.005406
    20  H   -0.006603   0.016799  -0.063864  -0.003689   0.447030  -0.057795
              13         14         15         16         17         18
     1  N   -0.000244   0.000696  -0.000120   0.000048   0.000000  -0.000001
     2  C   -0.058543  -0.005574   0.003892   0.002442  -0.000340  -0.000040
     3  C    0.440910  -0.038524  -0.033412  -0.003443   0.009077  -0.000114
     4  C   -0.032409   0.436666   0.411329  -0.019511  -0.035611  -0.000226
     5  C    0.007994  -0.038985  -0.031573   0.379803   0.427262  -0.005261
     6  C   -0.000311   0.009780  -0.002133  -0.017264  -0.045763  -0.062777
     7  C   -0.001500  -0.000290   0.001596   0.005800  -0.000291   0.452416
     8  C    0.000407  -0.000001  -0.000180  -0.000534   0.000078  -0.057998
     9  C   -0.000102   0.000028  -0.000027   0.000200   0.000214   0.010580
    10  Br   0.000013  -0.000000   0.000000  -0.000003  -0.000001  -0.000259
    11  C    0.001742  -0.000589   0.000611   0.000125  -0.000812  -0.003653
    12  C   -0.040794   0.006586   0.003565  -0.009514   0.006303   0.016815
    13  H    0.557288   0.000951  -0.009682  -0.000375   0.000081   0.000006
    14  H    0.000951   0.514946  -0.020517  -0.005677   0.000225  -0.000004
    15  H   -0.009682  -0.020517   0.564416   0.005548  -0.009202   0.000014
    16  H   -0.000375  -0.005677   0.005548   0.563221  -0.028139   0.000512
    17  H    0.000081   0.000225  -0.009202  -0.028139   0.553384   0.001367
    18  H    0.000006  -0.000004   0.000014   0.000512   0.001367   0.534488
    19  H   -0.000000   0.000000  -0.000001  -0.000002  -0.000017  -0.006919
    20  H    0.001019  -0.000009  -0.000047   0.000013   0.000008   0.000022
              19         20
     1  N    0.000000   0.000273
     2  C   -0.000008  -0.001088
     3  C    0.000134   0.000400
     4  C    0.000004   0.000195
     5  C    0.000053  -0.000068
     6  C    0.015938   0.015983
     7  C   -0.068085  -0.006603
     8  C    0.459021   0.016799
     9  C   -0.069742  -0.063864
    10  Br  -0.004357  -0.003689
    11  C    0.018234   0.447030
    12  C   -0.005406  -0.057795
    13  H   -0.000000   0.001019
    14  H    0.000000  -0.000009
    15  H   -0.000001  -0.000047
    16  H   -0.000002   0.000013
    17  H   -0.000017   0.000008
    18  H   -0.006919   0.000022
    19  H    0.520472   0.000123
    20  H    0.000123   0.511142
 Mulliken charges:
               1
     1  N    0.007468
     2  C   -0.335416
     3  C    0.169749
     4  C   -0.210061
     5  C   -0.177173
     6  C   -0.020197
     7  C   -0.209250
     8  C   -0.137998
     9  C    0.134904
    10  Br  -0.059544
    11  C   -0.295915
    12  C    0.092994
    13  H    0.133550
    14  H    0.140295
    15  H    0.115923
    16  H    0.126750
    17  H    0.122176
    18  H    0.121031
    19  H    0.140558
    20  H    0.140156
 Sum of Mulliken charges =  -0.00000
 Mulliken charges with hydrogens summed into heavy atoms:
               1
     1  N    0.007468
     2  C   -0.335416
     3  C    0.303299
     4  C    0.046156
     5  C    0.071752
     6  C   -0.020197
     7  C   -0.088219
     8  C    0.002561
     9  C    0.134904
    10  Br  -0.059544
    11  C   -0.155759
    12  C    0.092994
 Electronic spatial extent (au):  <R**2>=           3288.6218
 Charge=             -0.0000 electrons
 Dipole moment (field-independent basis, Debye):
    X=             -0.7290    Y=              3.6673    Z=              2.4764  Tot=              4.4847
 Quadrupole moment (field-independent basis, Debye-Ang):
   XX=            -84.6421   YY=            -84.1896   ZZ=            -84.1282
   XY=            -10.2664   XZ=             -8.9648   YZ=             -8.5441
 Traceless Quadrupole moment (field-independent basis, Debye-Ang):
   XX=             -0.3221   YY=              0.1304   ZZ=              0.1918
   XY=            -10.2664   XZ=             -8.9648   YZ=             -8.5441
 Octapole moment (field-independent basis, Debye-Ang**2):
  XXX=            100.7603  YYY=             24.0949  ZZZ=             10.7025  XYY=             58.0424
  XXY=             34.3041  XXZ=             25.4887  XZZ=             34.1774  YZZ=              1.6914
  YYZ=             12.1670  XYZ=             16.7390
 Hexadecapole moment (field-independent basis, Debye-Ang**3):
 XXXX=          -2847.4167 YYYY=           -898.7326 ZZZZ=           -246.2159 XXXY=           -182.1058
 XXXZ=            -78.8637 YYYX=           -132.9899 YYYZ=            -60.0507 ZZZX=            -18.2180
 ZZZY=            -15.3997 XXYY=           -698.2821 XXZZ=           -537.9308 YYZZ=           -201.4904
 XXYZ=            -62.6630 YYXZ=            -50.5207 ZZXY=            -37.1844
 N-N= 8.739251535489D+02 E-N=-8.922598716291D+03  KE= 3.009118375062D+03
 There are a total of      460254 grid points.
 ElSum from          density=      109.9999611320
 ElSum from atomic densities=      109.9998894915

 Hirshfeld populations at iteration   1 (CX, CA, CB, DipXYZ):
               1          2          3          4          5          6
     1  N    0.000000   3.614139   3.614139   0.031036   0.065848   0.068782
     2  C    0.000000   2.965607   2.965607   0.058622   0.135769   0.157272
     3  C    0.000000   2.994712   2.994712  -0.012066  -0.026080  -0.004866
     4  C    0.000000   3.019047   3.019047  -0.009354   0.000070  -0.003843
     5  C    0.000000   3.023889   3.023889  -0.010984   0.010108   0.002346
     6  C    0.000000   2.999714   2.999714  -0.055894   0.042198  -0.019025
     7  C    0.000000   3.017555   3.017555  -0.017205   0.058796  -0.027011
     8  C    0.000000   3.021129   3.021129   0.026375   0.044240  -0.021723
     9  C    0.000000   2.997855   2.997855   0.050385  -0.020490  -0.001338
    10  Br   0.000000  17.518914  17.518914  -0.049076   0.015038  -0.009392
    11  C    0.000000   3.021454   3.021454  -0.013217  -0.058168   0.014421
    12  C    0.000000   3.000202   3.000202  -0.043120  -0.055909   0.021846
    13  H    0.000000   0.469366   0.469366   0.008282  -0.079606   0.142232
    14  H    0.000000   0.477613   0.477613  -0.147252  -0.031495  -0.029312
    15  H    0.000000   0.478954   0.478954  -0.000967   0.050027   0.143614
    16  H    0.000000   0.477957   0.477957  -0.060322  -0.008850  -0.138332
    17  H    0.000000   0.478441   0.478441  -0.035487   0.139166   0.049285
    18  H    0.000000   0.474568   0.474568  -0.023616   0.149902  -0.054233
    19  H    0.000000   0.475101   0.475101   0.109026   0.107419  -0.050135
    20  H    0.000000   0.473765   0.473765   0.010032  -0.151466   0.052157
       Tot   0.000000  54.999981  54.999981  -0.184802   0.386518   0.292745

 Dip from Atomic Chgs             -0.102078   1.056341   0.681512
         Total Dipole             -0.286879   1.442859   0.974257

 Hirshfeld charges, spin densities, dipoles, and CM5 charges using IRadAn=      5:
              Q-H        S-H        Dx         Dy         Dz        Q-CM5   
     1  N   -0.228278   0.000000   0.031036   0.065848   0.068782  -0.354819
     2  C    0.068787   0.000000   0.058622   0.135769   0.157272   0.183404
     3  C    0.010577   0.000000  -0.012066  -0.026080  -0.004866  -0.041537
     4  C   -0.038094   0.000000  -0.009354   0.000070  -0.003843  -0.142831
     5  C   -0.047777   0.000000  -0.010984   0.010108   0.002346  -0.149894
     6  C    0.000571   0.000000  -0.055894   0.042198  -0.019025  -0.010994
     7  C   -0.035110   0.000000  -0.017205   0.058796  -0.027011  -0.088253
     8  C   -0.042258   0.000000   0.026375   0.044240  -0.021723  -0.096174
     9  C    0.004290   0.000000   0.050385  -0.020490  -0.001338  -0.017086
    10  Br  -0.037828   0.000000  -0.049076   0.015038  -0.009392  -0.022820
    11  C   -0.042908   0.000000  -0.013217  -0.058168   0.014421  -0.093755
    12  C   -0.000404   0.000000  -0.043120  -0.055909   0.021846  -0.008412
    13  H    0.061268   0.000000   0.008282  -0.079606   0.142232   0.121405
    14  H    0.044775   0.000000  -0.147252  -0.031495  -0.029312   0.100818
    15  H    0.042091   0.000000  -0.000967   0.050027   0.143614   0.098108
    16  H    0.044086   0.000000  -0.060322  -0.008850  -0.138332   0.099869
    17  H    0.043118   0.000000  -0.035487   0.139166   0.049285   0.098228
    18  H    0.050864   0.000000  -0.023616   0.149902  -0.054233   0.107429
    19  H    0.049797   0.000000   0.109026   0.107419  -0.050135   0.107055
    20  H    0.052471   0.000000   0.010032  -0.151466   0.052157   0.110299
       Tot   0.000039   0.000000  -0.184802   0.386518   0.292745   0.000039
 Hirshfeld charges with hydrogens summed into heavy atoms:
              Q-H       Q-CM5   
     1  N   -0.228278  -0.354819
     2  C    0.068787   0.183404
     3  C    0.071845   0.079868
     4  C    0.048772   0.056095
     5  C    0.039427   0.048203
     6  C    0.000571  -0.010994
     7  C    0.015754   0.019176
     8  C    0.007539   0.010881
     9  C    0.004290  -0.017086
    10  Br  -0.037828  -0.022820
    11  C    0.009563   0.016544
    12  C   -0.000404  -0.008412
 
 EQQ= 0.000000000000E+00 EQD= 0.000000000000E+00 EDD= 0.725937915660E-02
 EQQ+QD+DD= 0.725937915660E-02
 
 Running external command "gaunbo6 R"
         input file       "/home/rpaton/opt/tzvp/popn/Gau-2185153.EIn"
         output file      "/home/rpaton/opt/tzvp/popn/Gau-2185153.EOu"
         message file     "/home/rpaton/opt/tzvp/popn/Gau-2185153.EMs"
         fchk file        "/home/rpaton/opt/tzvp/popn/Gau-2185153.EFC"
         mat. el file     "/home/rpaton/opt/tzvp/popn/Gau-2185153.EUF"

 Writing WrtUnf unformatted file "/home/rpaton/opt/tzvp/popn/Gau-2185153.EUF"
 Gaussian matrix elements                                         Version   2 NLab=11 Len12L=8 Len4L=8
 Write SHELL TO ATOM MAP                   from file      0 offset           0 length                 169 to matrix element file.
 Write SHELL TYPES                         from file      0 offset           0 length                 169 to matrix element file.
 Write NUMBER OF PRIMITIVES PER SHELL      from file      0 offset           0 length                 169 to matrix element file.
 Write PRIMITIVE EXPONENTS                 from file      0 offset           0 length                 307 to matrix element file.
 Write CONTRACTION COEFFICIENTS            from file      0 offset           0 length                 307 to matrix element file.
 Write P(S=P) CONTRACTION COEFFICIENTS     from file      0 offset           0 length                 307 to matrix element file.
 Write COORDINATES OF EACH SHELL           from file      0 offset           0 length                 507 to matrix element file.
 Write BONDS PER ATOM                      from file      0 offset           0 length                  20 to matrix element file.
 Write BONDED ATOMS                        from file      0 offset           0 length                  42 to matrix element file.
 Write BOND TYPES                          from file      0 offset           0 length                  42 to matrix element file.
 Write ONIOM CHARGE/MULT                   from file      0 offset           0 length                  32 to matrix element file.
 Write ONIOM ATOM LAYERS                   from file      0 offset           0 length                  20 to matrix element file.
 Write ONIOM ATOM MODIFIERS                from file      0 offset           0 length                  20 to matrix element file.
 Write ONIOM ATOM TYPES                    from file      0 offset           0 length                  20 to matrix element file.
 Write ONIOM LINK ATOMS                    from file      0 offset           0 length                  20 to matrix element file.
 Write ONIOM LINK CHARGES                  from file      0 offset           0 length                  20 to matrix element file.
 Write ONIOM LINK DISTANCES                from file      0 offset           0 length                  80 to matrix element file.
 Write SYMINF INTS                         from file      0 offset           0 length                  26 to matrix element file.
 Write ROTTR TO SO                         from file      0 offset           0 length                  12 to matrix element file.
 Write GAUSSIAN SCALARS                    from file    501 offset           0 to matrix element file.
 Write OPTIMIZATION FLAGS                  from file      0 offset           0 length                  20 to matrix element file.
 Write INTEGER ISO                         from file      0 offset           0 length                  20 to matrix element file.
 Write INTEGER SPIN                        from file      0 offset           0 length                  20 to matrix element file.
 Write REAL ZEFFECTIVE                     from file      0 offset           0 length                  20 to matrix element file.
 Write REAL QUADRUPOLEMOMENT               from file      0 offset           0 length                  20 to matrix element file.
 Write REAL GFACTOR                        from file      0 offset           0 length                  20 to matrix element file.
 Write REAL ZNUCLEAR                       from file      0 offset           0 length                  20 to matrix element file.
 Write MULLIKEN CHARGES                    from file      0 offset           0 length                  20 to matrix element file.
 Write TYPE 6 CHARGES                      from file      0 offset           0 length                  20 to matrix element file.
 Write TYPE 7 CHARGES                      from file      0 offset           0 length                  20 to matrix element file.
 Write NUCLEAR GRADIENT                    from file  10584 offset           0 length                  60 to matrix element file.
 Array NUCLEAR FORCE CONSTANTS              on  file  10585 does not exist.
 Write ELECTRIC DIPOLE MOMENT              from file      0 offset           0 length                   3 to matrix element file.
 Write NON-ADIABATIC COUPLING              from file  10810 offset           0 length                  60 to matrix element file.
 Write FINITE EM FIELD                     from file  10521 offset           0 length                  35 to matrix element file.
 Write OVERLAP                             from file  10514 offset           0 length               95703 to matrix element file.
 Write CORE HAMILTONIAN ALPHA              from file  10515 offset           0 length               95703 to matrix element file.
 Write CORE HAMILTONIAN BETA               from file  10515 offset       95703 length               95703 to matrix element file.
 Write KINETIC ENERGY                      from file  10516 offset           0 length               95703 to matrix element file.
 Write ORTHOGONAL BASIS                    from file  10685 offset           0 length              190969 to matrix element file.
 Write DIPOLE INTEGRALS                    from file  10518 offset           0 length              287109 to matrix element file.
 Array DIP VEL INTEGRALS                    on  file  10572 does not exist.
 Array R X DEL INTEGRALS                    on  file  10572 does not exist.
 Write ALPHA ORBITAL ENERGIES              from file      0 offset           0 length                 437 to matrix element file.
 Write ALPHA MO COEFFICIENTS               from file  10524 offset           0 length              190969 to matrix element file.
 Write ALPHA DENSITY MATRIX                from file      0 offset           0 length               95703 to matrix element file.
 Write ALPHA FOCK MATRIX                   from file  10536 offset           0 length               95703 to matrix element file.
 Write ENERGY-WEIGHTED DENSITY             from file  10571 offset           0 length               95703 to matrix element file.
 Write ALPHA SCF DENSITY MATRIX            from file      0 offset           0 length               95703 to matrix element file.
 Write INTEGER PARAMETERS                  from file      0 offset           0 length                   2 to matrix element file.
 No 2e integrals to process.
 Perform NBO analysis...

 *********************************** NBO 7.0 ***********************************
             N A T U R A L   A T O M I C   O R B I T A L   A N D
          N A T U R A L   B O N D   O R B I T A L   A N A L Y S I S
 **************************** Robert Paton (I101709) ***************************
  (c) Copyright 1996-2019 Board of Regents of the University of Wisconsin System
      on behalf of the Theoretical Chemistry Institute.  All rights reserved.

          Cite this program [NBO 7.0.5 (4-Jun-2019)] as:

          NBO 7.0.  E. D. Glendening, J. K. Badenhoop, A. E. Reed,
          J. E. Carpenter, J. A. Bohmann, C. M. Morales, P. Karafiloglou,
          C. R. Landis, and F. Weinhold, Theoretical Chemistry Institute,
          University of Wisconsin, Madison, WI (2018)

       /AONBO  / : Checkpoint the AO to NBO transformation
                   NBOs sorted by occupancy
       /BNDIDX / : Print bond indices based on the NAO density matrix

 Filename set to /home/rpaton/opt/tzvp/popn/Gau-2185153

 Job title:  arbr41_wb97xd_popncreated by GaussianPrep


 NATURAL POPULATIONS:  Natural atomic orbital occupancies

  NAO Atom No lang   Type(AO)    Occupancy      Energy
 -------------------------------------------------------
   1    N  1  s      Cor( 1s)     1.99999     -14.43294
   2    N  1  s      Val( 2s)     1.58517      -0.42724
   3    N  1  s      Ryd( 3s)     0.00427       1.80503
   4    N  1  s      Ryd( 4s)     0.00003       2.32747
   5    N  1  s      Ryd( 5s)     0.00000      30.67990
   6    N  1  px     Val( 2p)     1.13211      -0.15784
   7    N  1  px     Ryd( 3p)     0.00045       0.74561
   8    N  1  px     Ryd( 4p)     0.00002       2.73559
   9    N  1  py     Val( 2p)     1.27014      -0.16682
  10    N  1  py     Ryd( 3p)     0.00095       0.72600
  11    N  1  py     Ryd( 4p)     0.00006       3.56532
  12    N  1  pz     Val( 2p)     1.30716      -0.16854
  13    N  1  pz     Ryd( 3p)     0.00111       0.72033
  14    N  1  pz     Ryd( 4p)     0.00007       3.72734
  15    N  1  dxy    Ryd( 3d)     0.00284       1.59969
  16    N  1  dxy    Ryd( 4d)     0.00000       4.77765
  17    N  1  dxz    Ryd( 3d)     0.00345       1.65522
  18    N  1  dxz    Ryd( 4d)     0.00000       4.83992
  19    N  1  dyz    Ryd( 3d)     0.00745       2.08172
  20    N  1  dyz    Ryd( 4d)     0.00000       5.04023
  21    N  1  dx2y2  Ryd( 3d)     0.00276       1.58774
  22    N  1  dx2y2  Ryd( 4d)     0.00000       4.78587
  23    N  1  dz2    Ryd( 3d)     0.00429       1.71473
  24    N  1  dz2    Ryd( 4d)     0.00000       4.99437
  25    N  1  f(0)   Ryd( 4f)     0.00010       4.65727
  26    N  1  f(c1)  Ryd( 4f)     0.00006       4.55732
  27    N  1  f(s1)  Ryd( 4f)     0.00017       4.97052
  28    N  1  f(c2)  Ryd( 4f)     0.00014       4.68468
  29    N  1  f(s2)  Ryd( 4f)     0.00014       4.72170
  30    N  1  f(c3)  Ryd( 4f)     0.00005       4.43936
  31    N  1  f(s3)  Ryd( 4f)     0.00005       4.40431

  32    C  2  s      Cor( 1s)     1.99998     -10.32418
  33    C  2  s      Val( 2s)     0.88019      -0.08373
  34    C  2  s      Ryd( 3s)     0.01067       1.65141
  35    C  2  s      Ryd( 4s)     0.00011       1.97762
  36    C  2  s      Ryd( 5s)     0.00001      18.15108
  37    C  2  px     Val( 2p)     0.91804      -0.07576
  38    C  2  px     Ryd( 3p)     0.00238       0.88522
  39    C  2  px     Ryd( 4p)     0.00012       1.34063
  40    C  2  py     Val( 2p)     0.93828      -0.00169
  41    C  2  py     Ryd( 3p)     0.00678       0.99659
  42    C  2  py     Ryd( 4p)     0.00022       1.85075
  43    C  2  pz     Val( 2p)     0.94113       0.02278
  44    C  2  pz     Ryd( 3p)     0.00815       0.95157
  45    C  2  pz     Ryd( 4p)     0.00025       1.85485
  46    C  2  dxy    Ryd( 4d)     0.00042       3.32987
  47    C  2  dxy    Ryd( 3d)     0.00009       1.95497
  48    C  2  dxz    Ryd( 4d)     0.00044       3.32616
  49    C  2  dxz    Ryd( 3d)     0.00007       1.97146
  50    C  2  dyz    Ryd( 4d)     0.00064       3.68751
  51    C  2  dyz    Ryd( 3d)     0.00020       2.95474
  52    C  2  dx2y2  Ryd( 4d)     0.00037       3.29830
  53    C  2  dx2y2  Ryd( 3d)     0.00013       1.89035
  54    C  2  dz2    Ryd( 4d)     0.00069       3.49787
  55    C  2  dz2    Ryd( 3d)     0.00005       2.18392
  56    C  2  f(0)   Ryd( 4f)     0.00039       3.35448
  57    C  2  f(c1)  Ryd( 4f)     0.00028       3.21105
  58    C  2  f(s1)  Ryd( 4f)     0.00095       3.54606
  59    C  2  f(c2)  Ryd( 4f)     0.00072       3.34798
  60    C  2  f(s2)  Ryd( 4f)     0.00075       3.38182
  61    C  2  f(c3)  Ryd( 4f)     0.00023       3.13106
  62    C  2  f(s3)  Ryd( 4f)     0.00020       3.12592

  63    C  3  s      Cor( 1s)     1.99999     -10.35255
  64    C  3  s      Val( 2s)     1.01331      -0.21058
  65    C  3  s      Ryd( 3s)     0.00069       1.57565
  66    C  3  s      Ryd( 4s)     0.00024       5.25038
  67    C  3  s      Ryd( 5s)     0.00000      16.61166
  68    C  3  px     Val( 2p)     1.06311      -0.12408
  69    C  3  px     Ryd( 3p)     0.00105       0.80261
  70    C  3  px     Ryd( 4p)     0.00034       1.67766
  71    C  3  py     Val( 2p)     1.09756      -0.12706
  72    C  3  py     Ryd( 3p)     0.00173       0.86966
  73    C  3  py     Ryd( 4p)     0.00058       1.77225
  74    C  3  pz     Val( 2p)     1.15349      -0.14700
  75    C  3  pz     Ryd( 3p)     0.00183       0.95849
  76    C  3  pz     Ryd( 4p)     0.00061       1.83344
  77    C  3  dxy    Ryd( 3d)     0.00078       2.49689
  78    C  3  dxy    Ryd( 4d)     0.00018       4.07086
  79    C  3  dxz    Ryd( 3d)     0.00063       1.97296
  80    C  3  dxz    Ryd( 4d)     0.00017       3.44076
  81    C  3  dyz    Ryd( 3d)     0.00159       2.29749
  82    C  3  dyz    Ryd( 4d)     0.00017       4.04360
  83    C  3  dx2y2  Ryd( 3d)     0.00043       2.14935
  84    C  3  dx2y2  Ryd( 4d)     0.00033       3.66607
  85    C  3  dz2    Ryd( 3d)     0.00097       2.32305
  86    C  3  dz2    Ryd( 4d)     0.00014       3.69667
  87    C  3  f(0)   Ryd( 4f)     0.00005       3.60295
  88    C  3  f(c1)  Ryd( 4f)     0.00001       3.56635
  89    C  3  f(s1)  Ryd( 4f)     0.00032       4.03596
  90    C  3  f(c2)  Ryd( 4f)     0.00004       3.67688
  91    C  3  f(s2)  Ryd( 4f)     0.00011       3.77711
  92    C  3  f(c3)  Ryd( 4f)     0.00011       3.83546
  93    C  3  f(s3)  Ryd( 4f)     0.00015       3.72822

  94    C  4  s      Cor( 1s)     1.99999     -10.31584
  95    C  4  s      Val( 2s)     1.05867      -0.23930
  96    C  4  s      Ryd( 3s)     0.00042       1.33563
  97    C  4  s      Ryd( 4s)     0.00004       4.30073
  98    C  4  s      Ryd( 5s)     0.00000      19.59696
  99    C  4  px     Val( 2p)     1.13916      -0.12459
 100    C  4  px     Ryd( 3p)     0.00151       1.05790
 101    C  4  px     Ryd( 4p)     0.00026       1.61689
 102    C  4  py     Val( 2p)     0.99767      -0.09702
 103    C  4  py     Ryd( 3p)     0.00087       0.98976
 104    C  4  py     Ryd( 4p)     0.00006       1.53008
 105    C  4  pz     Val( 2p)     1.15747      -0.13140
 106    C  4  pz     Ryd( 3p)     0.00096       1.01599
 107    C  4  pz     Ryd( 4p)     0.00009       1.55800
 108    C  4  dxy    Ryd( 3d)     0.00100       2.38225
 109    C  4  dxy    Ryd( 4d)     0.00013       3.60458
 110    C  4  dxz    Ryd( 3d)     0.00089       1.93723
 111    C  4  dxz    Ryd( 4d)     0.00025       3.16719
 112    C  4  dyz    Ryd( 3d)     0.00083       2.03058
 113    C  4  dyz    Ryd( 4d)     0.00011       3.45916
 114    C  4  dx2y2  Ryd( 3d)     0.00046       1.91402
 115    C  4  dx2y2  Ryd( 4d)     0.00022       3.40702
 116    C  4  dz2    Ryd( 3d)     0.00109       2.02137
 117    C  4  dz2    Ryd( 4d)     0.00014       3.49129
 118    C  4  f(0)   Ryd( 4f)     0.00019       3.65256
 119    C  4  f(c1)  Ryd( 4f)     0.00003       3.43976
 120    C  4  f(s1)  Ryd( 4f)     0.00022       3.66692
 121    C  4  f(c2)  Ryd( 4f)     0.00002       3.50902
 122    C  4  f(s2)  Ryd( 4f)     0.00005       3.52479
 123    C  4  f(c3)  Ryd( 4f)     0.00021       3.64005
 124    C  4  f(s3)  Ryd( 4f)     0.00008       3.70205

 125    C  5  s      Cor( 1s)     1.99999     -10.30889
 126    C  5  s      Val( 2s)     1.05158      -0.22163
 127    C  5  s      Ryd( 3s)     0.00053       1.54793
 128    C  5  s      Ryd( 4s)     0.00003       3.58414
 129    C  5  s      Ryd( 5s)     0.00000      19.64977
 130    C  5  px     Val( 2p)     1.04722      -0.09603
 131    C  5  px     Ryd( 3p)     0.00074       0.94619
 132    C  5  px     Ryd( 4p)     0.00019       1.44321
 133    C  5  py     Val( 2p)     1.15380      -0.12292
 134    C  5  py     Ryd( 3p)     0.00203       1.04842
 135    C  5  py     Ryd( 4p)     0.00020       1.52656
 136    C  5  pz     Val( 2p)     1.16236      -0.12726
 137    C  5  pz     Ryd( 3p)     0.00084       0.97753
 138    C  5  pz     Ryd( 4p)     0.00010       1.44634
 139    C  5  dxy    Ryd( 3d)     0.00033       2.03443
 140    C  5  dxy    Ryd( 4d)     0.00025       3.42357
 141    C  5  dxz    Ryd( 3d)     0.00048       1.79189
 142    C  5  dxz    Ryd( 4d)     0.00012       3.23908
 143    C  5  dyz    Ryd( 3d)     0.00141       2.14317
 144    C  5  dyz    Ryd( 4d)     0.00010       3.41913
 145    C  5  dx2y2  Ryd( 3d)     0.00118       2.32983
 146    C  5  dx2y2  Ryd( 4d)     0.00013       3.84098
 147    C  5  dz2    Ryd( 3d)     0.00107       2.00706
 148    C  5  dz2    Ryd( 4d)     0.00013       3.51512
 149    C  5  f(0)   Ryd( 4f)     0.00015       3.64096
 150    C  5  f(c1)  Ryd( 4f)     0.00018       3.70690
 151    C  5  f(s1)  Ryd( 4f)     0.00006       3.44638
 152    C  5  f(c2)  Ryd( 4f)     0.00012       3.65738
 153    C  5  f(s2)  Ryd( 4f)     0.00003       3.47828
 154    C  5  f(c3)  Ryd( 4f)     0.00019       3.67597
 155    C  5  f(s3)  Ryd( 4f)     0.00009       3.77845

 156    C  6  s      Cor( 1s)     1.99999     -10.31404
 157    C  6  s      Val( 2s)     0.91385      -0.10729
 158    C  6  s      Ryd( 3s)     0.00113       1.58922
 159    C  6  s      Ryd( 4s)     0.00009       1.66375
 160    C  6  s      Ryd( 5s)     0.00000      20.30502
 161    C  6  px     Val( 2p)     1.03725      -0.03053
 162    C  6  px     Ryd( 3p)     0.00350       1.46487
 163    C  6  px     Ryd( 4p)     0.00017       2.07414
 164    C  6  py     Val( 2p)     1.05054      -0.04632
 165    C  6  py     Ryd( 3p)     0.00229       1.13776
 166    C  6  py     Ryd( 4p)     0.00018       2.02010
 167    C  6  pz     Val( 2p)     0.99308      -0.10943
 168    C  6  pz     Ryd( 3p)     0.00177       0.85043
 169    C  6  pz     Ryd( 4p)     0.00013       1.50272
 170    C  6  dxy    Ryd( 3d)     0.00068       2.98012
 171    C  6  dxy    Ryd( 4d)     0.00047       4.02159
 172    C  6  dxz    Ryd( 3d)     0.00039       2.18035
 173    C  6  dxz    Ryd( 4d)     0.00022       3.31180
 174    C  6  dyz    Ryd( 3d)     0.00061       2.38377
 175    C  6  dyz    Ryd( 4d)     0.00015       3.40476
 176    C  6  dx2y2  Ryd( 3d)     0.00099       2.95382
 177    C  6  dx2y2  Ryd( 4d)     0.00050       4.15278
 178    C  6  dz2    Ryd( 3d)     0.00081       2.82522
 179    C  6  dz2    Ryd( 4d)     0.00011       3.44688
 180    C  6  f(0)   Ryd( 4f)     0.00041       3.41128
 181    C  6  f(c1)  Ryd( 4f)     0.00042       3.38123
 182    C  6  f(s1)  Ryd( 4f)     0.00038       3.36905
 183    C  6  f(c2)  Ryd( 4f)     0.00021       3.53383
 184    C  6  f(s2)  Ryd( 4f)     0.00023       3.47691
 185    C  6  f(c3)  Ryd( 4f)     0.00031       3.82587
 186    C  6  f(s3)  Ryd( 4f)     0.00036       3.84728

 187    C  7  s      Cor( 1s)     1.99999     -10.31062
 188    C  7  s      Val( 2s)     0.96555      -0.13599
 189    C  7  s      Ryd( 3s)     0.00086       1.67475
 190    C  7  s      Ryd( 4s)     0.00003       1.82245
 191    C  7  s      Ryd( 5s)     0.00000      20.45341
 192    C  7  px     Val( 2p)     1.04386      -0.03517
 193    C  7  px     Ryd( 3p)     0.00286       1.13488
 194    C  7  px     Ryd( 4p)     0.00011       1.80513
 195    C  7  py     Val( 2p)     1.14984      -0.08120
 196    C  7  py     Ryd( 3p)     0.00367       1.23095
 197    C  7  py     Ryd( 4p)     0.00012       1.95727
 198    C  7  pz     Val( 2p)     1.01098      -0.12111
 199    C  7  pz     Ryd( 3p)     0.00135       0.85304
 200    C  7  pz     Ryd( 4p)     0.00019       1.34621
 201    C  7  dxy    Ryd( 3d)     0.00148       2.60493
 202    C  7  dxy    Ryd( 4d)     0.00020       3.65572
 203    C  7  dxz    Ryd( 3d)     0.00040       2.05092
 204    C  7  dxz    Ryd( 4d)     0.00012       3.07581
 205    C  7  dyz    Ryd( 3d)     0.00057       2.04657
 206    C  7  dyz    Ryd( 4d)     0.00009       3.03322
 207    C  7  dx2y2  Ryd( 3d)     0.00058       2.61794
 208    C  7  dx2y2  Ryd( 4d)     0.00041       3.84932
 209    C  7  dz2    Ryd( 3d)     0.00081       2.10876
 210    C  7  dz2    Ryd( 4d)     0.00002       3.22616
 211    C  7  f(0)   Ryd( 4f)     0.00042       3.39679
 212    C  7  f(c1)  Ryd( 4f)     0.00028       3.48865
 213    C  7  f(s1)  Ryd( 4f)     0.00031       3.26489
 214    C  7  f(c2)  Ryd( 4f)     0.00021       3.52835
 215    C  7  f(s2)  Ryd( 4f)     0.00011       3.45874
 216    C  7  f(c3)  Ryd( 4f)     0.00018       3.81690
 217    C  7  f(s3)  Ryd( 4f)     0.00039       3.90962

 218    C  8  s      Cor( 1s)     1.99999     -10.31213
 219    C  8  s      Val( 2s)     0.97850      -0.15085
 220    C  8  s      Ryd( 3s)     0.00089       1.48319
 221    C  8  s      Ryd( 4s)     0.00007       2.09297
 222    C  8  s      Ryd( 5s)     0.00000      21.24076
 223    C  8  px     Val( 2p)     1.12736      -0.06638
 224    C  8  px     Ryd( 3p)     0.00488       1.18636
 225    C  8  px     Ryd( 4p)     0.00023       1.94901
 226    C  8  py     Val( 2p)     1.08875      -0.07478
 227    C  8  py     Ryd( 3p)     0.00275       1.00515
 228    C  8  py     Ryd( 4p)     0.00014       1.89070
 229    C  8  pz     Val( 2p)     1.00948      -0.12432
 230    C  8  pz     Ryd( 3p)     0.00150       0.76536
 231    C  8  pz     Ryd( 4p)     0.00017       1.39555
 232    C  8  dxy    Ryd( 3d)     0.00080       2.33508
 233    C  8  dxy    Ryd( 4d)     0.00035       3.76233
 234    C  8  dxz    Ryd( 3d)     0.00043       1.76900
 235    C  8  dxz    Ryd( 4d)     0.00013       3.01545
 236    C  8  dyz    Ryd( 3d)     0.00079       1.87259
 237    C  8  dyz    Ryd( 4d)     0.00007       3.18058
 238    C  8  dx2y2  Ryd( 3d)     0.00196       2.32360
 239    C  8  dx2y2  Ryd( 4d)     0.00015       3.63849
 240    C  8  dz2    Ryd( 3d)     0.00092       1.93288
 241    C  8  dz2    Ryd( 4d)     0.00004       3.26571
 242    C  8  f(0)   Ryd( 4f)     0.00046       3.33252
 243    C  8  f(c1)  Ryd( 4f)     0.00032       3.36782
 244    C  8  f(s1)  Ryd( 4f)     0.00038       3.31165
 245    C  8  f(c2)  Ryd( 4f)     0.00017       3.40341
 246    C  8  f(s2)  Ryd( 4f)     0.00022       3.44930
 247    C  8  f(c3)  Ryd( 4f)     0.00019       3.69224
 248    C  8  f(s3)  Ryd( 4f)     0.00047       3.87241

 249    C  9  s      Cor( 1s)     1.99999     -10.35734
 250    C  9  s      Val( 2s)     0.97709      -0.20322
 251    C  9  s      Ryd( 3s)     0.00094       2.27274
 252    C  9  s      Ryd( 4s)     0.00038       2.28705
 253    C  9  s      Ryd( 5s)     0.00000      16.64194
 254    C  9  px     Val( 2p)     0.95881      -0.10855
 255    C  9  px     Ryd( 3p)     0.00493       1.37199
 256    C  9  px     Ryd( 4p)     0.00091       2.16629
 257    C  9  py     Val( 2p)     1.05004      -0.07510
 258    C  9  py     Ryd( 3p)     0.00442       1.16997
 259    C  9  py     Ryd( 4p)     0.00026       1.96885
 260    C  9  pz     Val( 2p)     1.06870      -0.14895
 261    C  9  pz     Ryd( 3p)     0.00176       0.94034
 262    C  9  pz     Ryd( 4p)     0.00039       1.31628
 263    C  9  dxy    Ryd( 3d)     0.00178       2.13866
 264    C  9  dxy    Ryd( 4d)     0.00034       3.95161
 265    C  9  dxz    Ryd( 3d)     0.00144       1.49320
 266    C  9  dxz    Ryd( 4d)     0.00019       3.35663
 267    C  9  dyz    Ryd( 3d)     0.00065       1.91402
 268    C  9  dyz    Ryd( 4d)     0.00017       3.57548
 269    C  9  dx2y2  Ryd( 3d)     0.00191       2.17892
 270    C  9  dx2y2  Ryd( 4d)     0.00033       3.96276
 271    C  9  dz2    Ryd( 3d)     0.00172       1.91876
 272    C  9  dz2    Ryd( 4d)     0.00013       3.50199
 273    C  9  f(0)   Ryd( 4f)     0.00054       3.28123
 274    C  9  f(c1)  Ryd( 4f)     0.00047       3.22640
 275    C  9  f(s1)  Ryd( 4f)     0.00046       3.37314
 276    C  9  f(c2)  Ryd( 4f)     0.00024       3.38931
 277    C  9  f(s2)  Ryd( 4f)     0.00019       3.41739
 278    C  9  f(c3)  Ryd( 4f)     0.00025       3.67331
 279    C  9  f(s3)  Ryd( 4f)     0.00059       3.70771

 280   Br 10  s      Cor( 1s)     2.00000    -468.48111
 281   Br 10  s      Cor( 2s)     2.00000     -71.63483
 282   Br 10  s      Cor( 3s)     1.99999     -14.52618
 283   Br 10  s      Val( 4s)     1.85984      -0.77224
 284   Br 10  s      Ryd( 5s)     0.00120       1.22461
 285   Br 10  s      Ryd( 6s)     0.00000       7.51159
 286   Br 10  px     Cor( 2p)     2.00000     -42.05191
 287   Br 10  px     Cor( 3p)     2.00000     -21.06650
 288   Br 10  px     Val( 4p)     1.25563      -0.26965
 289   Br 10  px     Ryd( 5p)     0.00216       0.60454
 290   Br 10  px     Ryd( 6p)     0.00003       1.67430
 291   Br 10  py     Cor( 2p)     2.00000     -42.04637
 292   Br 10  py     Cor( 3p)     2.00000     -21.06046
 293   Br 10  py     Val( 4p)     1.86782      -0.35876
 294   Br 10  py     Ryd( 5p)     0.00103       0.57913
 295   Br 10  py     Ryd( 6p)     0.00001       1.58459
 296   Br 10  pz     Cor( 2p)     2.00000     -42.04561
 297   Br 10  pz     Cor( 3p)     2.00000     -21.05962
 298   Br 10  pz     Val( 4p)     1.94369      -0.37110
 299   Br 10  pz     Ryd( 5p)     0.00126       0.54966
 300   Br 10  pz     Ryd( 6p)     0.00003       1.54113
 301   Br 10  dxy    Cor( 3d)     1.99999      -2.74643
 302   Br 10  dxy    Ryd( 4d)     0.00143       1.38053
 303   Br 10  dxy    Ryd( 5d)     0.00003       1.46463
 304   Br 10  dxy    Ryd( 6d)     0.00000       4.45497
 305   Br 10  dxz    Cor( 3d)     1.99999      -2.74533
 306   Br 10  dxz    Ryd( 4d)     0.00189       0.89446
 307   Br 10  dxz    Ryd( 5d)     0.00002       1.36943
 308   Br 10  dxz    Ryd( 6d)     0.00000       4.20842
 309   Br 10  dyz    Cor( 3d)     2.00000      -2.73820
 310   Br 10  dyz    Ryd( 4d)     0.00033       0.72320
 311   Br 10  dyz    Ryd( 5d)     0.00003       1.27147
 312   Br 10  dyz    Ryd( 6d)     0.00000       4.10821
 313   Br 10  dx2y2  Cor( 3d)     1.99999      -2.74646
 314   Br 10  dx2y2  Ryd( 5d)     0.00151       1.46214
 315   Br 10  dx2y2  Ryd( 4d)     0.00003       1.45310
 316   Br 10  dx2y2  Ryd( 6d)     0.00001       4.47707
 317   Br 10  dz2    Cor( 3d)     1.99999      -2.74034
 318   Br 10  dz2    Ryd( 4d)     0.00062       1.06260
 319   Br 10  dz2    Ryd( 5d)     0.00003       1.31908
 320   Br 10  dz2    Ryd( 6d)     0.00000       4.28518
 321   Br 10  f(0)   Ryd( 4f)     0.00007       1.80737
 322   Br 10  f(c1)  Ryd( 4f)     0.00006       2.01239
 323   Br 10  f(s1)  Ryd( 4f)     0.00002       1.70136
 324   Br 10  f(c2)  Ryd( 4f)     0.00007       1.86950
 325   Br 10  f(s2)  Ryd( 4f)     0.00005       1.86341
 326   Br 10  f(c3)  Ryd( 4f)     0.00012       2.21708
 327   Br 10  f(s3)  Ryd( 4f)     0.00012       2.17919

 328    C 11  s      Cor( 1s)     1.99999     -10.31461
 329    C 11  s      Val( 2s)     0.96775      -0.13791
 330    C 11  s      Ryd( 3s)     0.00105       1.54653
 331    C 11  s      Ryd( 4s)     0.00012       2.08706
 332    C 11  s      Ryd( 5s)     0.00000      21.04662
 333    C 11  px     Val( 2p)     1.05553      -0.04991
 334    C 11  px     Ryd( 3p)     0.00392       1.04991
 335    C 11  px     Ryd( 4p)     0.00031       1.87965
 336    C 11  py     Val( 2p)     1.16761      -0.09689
 337    C 11  py     Ryd( 3p)     0.00364       1.17892
 338    C 11  py     Ryd( 4p)     0.00019       1.89942
 339    C 11  pz     Val( 2p)     1.01055      -0.12639
 340    C 11  pz     Ryd( 3p)     0.00145       0.78286
 341    C 11  pz     Ryd( 4p)     0.00016       1.41417
 342    C 11  dxy    Ryd( 3d)     0.00193       2.34533
 343    C 11  dxy    Ryd( 4d)     0.00015       3.79760
 344    C 11  dxz    Ryd( 3d)     0.00039       1.83485
 345    C 11  dxz    Ryd( 4d)     0.00018       3.22065
 346    C 11  dyz    Ryd( 3d)     0.00089       1.80056
 347    C 11  dyz    Ryd( 4d)     0.00006       3.15268
 348    C 11  dx2y2  Ryd( 3d)     0.00096       2.38190
 349    C 11  dx2y2  Ryd( 4d)     0.00041       3.87274
 350    C 11  dz2    Ryd( 3d)     0.00102       1.90612
 351    C 11  dz2    Ryd( 4d)     0.00004       3.34941
 352    C 11  f(0)   Ryd( 4f)     0.00050       3.35097
 353    C 11  f(c1)  Ryd( 4f)     0.00031       3.45069
 354    C 11  f(s1)  Ryd( 4f)     0.00037       3.24641
 355    C 11  f(c2)  Ryd( 4f)     0.00023       3.47238
 356    C 11  f(s2)  Ryd( 4f)     0.00015       3.42365
 357    C 11  f(c3)  Ryd( 4f)     0.00021       3.75244
 358    C 11  f(s3)  Ryd( 4f)     0.00047       3.88280

 359    C 12  s      Cor( 1s)     1.99999     -10.32056
 360    C 12  s      Val( 2s)     0.90616      -0.10988
 361    C 12  s      Ryd( 3s)     0.00118       1.29515
 362    C 12  s      Ryd( 4s)     0.00021       2.26015
 363    C 12  s      Ryd( 5s)     0.00000      20.01514
 364    C 12  px     Val( 2p)     1.02091      -0.02778
 365    C 12  px     Ryd( 3p)     0.00346       1.37167
 366    C 12  px     Ryd( 4p)     0.00033       2.42826
 367    C 12  py     Val( 2p)     1.03507      -0.05280
 368    C 12  py     Ryd( 3p)     0.00311       1.13174
 369    C 12  py     Ryd( 4p)     0.00020       1.96460
 370    C 12  pz     Val( 2p)     1.01908      -0.12095
 371    C 12  pz     Ryd( 3p)     0.00177       0.82385
 372    C 12  pz     Ryd( 4p)     0.00010       1.54122
 373    C 12  dxy    Ryd( 3d)     0.00061       2.92827
 374    C 12  dxy    Ryd( 4d)     0.00059       4.12121
 375    C 12  dxz    Ryd( 3d)     0.00030       2.11987
 376    C 12  dxz    Ryd( 4d)     0.00036       3.40945
 377    C 12  dyz    Ryd( 3d)     0.00070       2.30347
 378    C 12  dyz    Ryd( 4d)     0.00011       3.47125
 379    C 12  dx2y2  Ryd( 3d)     0.00093       3.16334
 380    C 12  dx2y2  Ryd( 4d)     0.00043       4.15478
 381    C 12  dz2    Ryd( 3d)     0.00084       2.89843
 382    C 12  dz2    Ryd( 4d)     0.00011       3.58035
 383    C 12  f(0)   Ryd( 4f)     0.00045       3.39276
 384    C 12  f(c1)  Ryd( 4f)     0.00040       3.44338
 385    C 12  f(s1)  Ryd( 4f)     0.00034       3.36556
 386    C 12  f(c2)  Ryd( 4f)     0.00020       3.50279
 387    C 12  f(s2)  Ryd( 4f)     0.00018       3.48478
 388    C 12  f(c3)  Ryd( 4f)     0.00017       3.85986
 389    C 12  f(s3)  Ryd( 4f)     0.00052       3.92502

 390    H 13  s      Val( 1s)     0.74244       0.03258
 391    H 13  s      Ryd( 2s)     0.00065       1.16027
 392    H 13  s      Ryd( 3s)     0.00004       1.82077
 393    H 13  px     Ryd( 2p)     0.00012       2.44954
 394    H 13  py     Ryd( 2p)     0.00030       2.63625
 395    H 13  pz     Ryd( 2p)     0.00070       2.84642

 396    H 14  s      Val( 1s)     0.77247       0.04184
 397    H 14  s      Ryd( 2s)     0.00034       0.79200
 398    H 14  s      Ryd( 3s)     0.00003       1.93482
 399    H 14  px     Ryd( 2p)     0.00077       2.91076
 400    H 14  py     Ryd( 2p)     0.00015       2.43492
 401    H 14  pz     Ryd( 2p)     0.00009       2.34175

 402    H 15  s      Val( 1s)     0.78555       0.02851
 403    H 15  s      Ryd( 2s)     0.00044       0.82499
 404    H 15  s      Ryd( 3s)     0.00002       1.88329
 405    H 15  px     Ryd( 2p)     0.00005       2.35379
 406    H 15  py     Ryd( 2p)     0.00018       2.47434
 407    H 15  pz     Ryd( 2p)     0.00078       2.88973

 408    H 16  s      Val( 1s)     0.77502       0.03600
 409    H 16  s      Ryd( 2s)     0.00080       0.79922
 410    H 16  s      Ryd( 3s)     0.00003       1.96931
 411    H 16  px     Ryd( 2p)     0.00020       2.54226
 412    H 16  py     Ryd( 2p)     0.00007       2.35897
 413    H 16  pz     Ryd( 2p)     0.00070       2.87377

 414    H 17  s      Val( 1s)     0.77546       0.03803
 415    H 17  s      Ryd( 2s)     0.00037       0.93838
 416    H 17  s      Ryd( 3s)     0.00003       1.78328
 417    H 17  px     Ryd( 2p)     0.00014       2.47062
 418    H 17  py     Ryd( 2p)     0.00071       2.91590
 419    H 17  pz     Ryd( 2p)     0.00013       2.37765

 420    H 18  s      Val( 1s)     0.77909       0.05055
 421    H 18  s      Ryd( 2s)     0.00041       0.73730
 422    H 18  s      Ryd( 3s)     0.00010       2.01411
 423    H 18  px     Ryd( 2p)     0.00007       2.59770
 424    H 18  py     Ryd( 2p)     0.00058       2.91482
 425    H 18  pz     Ryd( 2p)     0.00017       2.30463

 426    H 19  s      Val( 1s)     0.76868       0.05489
 427    H 19  s      Ryd( 2s)     0.00050       0.62991
 428    H 19  s      Ryd( 3s)     0.00009       2.11303
 429    H 19  px     Ryd( 2p)     0.00043       2.81209
 430    H 19  py     Ryd( 2p)     0.00025       2.65562
 431    H 19  pz     Ryd( 2p)     0.00015       2.27683

 432    H 20  s      Val( 1s)     0.76541       0.05110
 433    H 20  s      Ryd( 2s)     0.00074       0.65064
 434    H 20  s      Ryd( 3s)     0.00010       2.11672
 435    H 20  px     Ryd( 2p)     0.00010       2.59165
 436    H 20  py     Ryd( 2p)     0.00055       2.92925
 437    H 20  pz     Ryd( 2p)     0.00017       2.30406


 Summary of Natural Population Analysis:

                                     Natural Population
             Natural    ---------------------------------------------
  Atom No    Charge        Core      Valence    Rydberg      Total
 --------------------------------------------------------------------
    N  1   -0.32301      1.99999     5.29457    0.02845     7.32301
    C  2    0.28706      1.99998     3.67765    0.03531     5.71294
    C  3   -0.34073      1.99999     4.32748    0.01326     6.34073
    C  4   -0.36309      1.99999     4.35297    0.01013     6.36309
    C  5   -0.42564      1.99999     4.41497    0.01069     6.42564
    C  6   -0.01122      1.99999     3.99471    0.01652     6.01122
    C  7   -0.18600      1.99999     4.17023    0.01578     6.18600
    C  8   -0.22258      1.99999     4.20410    0.01849     6.22258
    C  9   -0.08002      1.99999     4.05463    0.02539     6.08002
   Br 10    0.06091     27.99995     6.92698    0.01216    34.93909
    C 11   -0.22052      1.99999     4.20144    0.01909     6.22052
    C 12    0.00117      1.99999     3.98121    0.01763     5.99883
    H 13    0.25575      0.00000     0.74244    0.00181     0.74425
    H 14    0.22617      0.00000     0.77247    0.00137     0.77383
    H 15    0.21298      0.00000     0.78555    0.00147     0.78702
    H 16    0.22319      0.00000     0.77502    0.00179     0.77681
    H 17    0.22316      0.00000     0.77546    0.00138     0.77684
    H 18    0.21959      0.00000     0.77909    0.00132     0.78041
    H 19    0.22989      0.00000     0.76868    0.00143     0.77011
    H 20    0.23293      0.00000     0.76541    0.00166     0.76707
 ====================================================================
 * Total *  0.00000     49.99981    59.76506    0.23513   110.00000

                                 Natural Population
 ---------------------------------------------------------
   Core                      49.99981 ( 99.9996% of   50)
   Valence                   59.76506 ( 99.6084% of   60)
   Natural Minimal Basis    109.76487 ( 99.7862% of  110)
   Natural Rydberg Basis      0.23513 (  0.2138% of  110)
 ---------------------------------------------------------

    Atom No         Natural Electron Configuration
 ----------------------------------------------------------------------------
      N  1      [core]2s( 1.59)2p( 3.71)3d( 0.02)
      C  2      [core]2s( 0.88)2p( 2.80)3s( 0.01)3p( 0.02)
      C  3      [core]2s( 1.01)2p( 3.31)
      C  4      [core]2s( 1.06)2p( 3.29)
      C  5      [core]2s( 1.05)2p( 3.36)
      C  6      [core]2s( 0.91)2p( 3.08)3p( 0.01)
      C  7      [core]2s( 0.97)2p( 3.20)3p( 0.01)
      C  8      [core]2s( 0.98)2p( 3.23)3p( 0.01)
      C  9      [core]2s( 0.98)2p( 3.08)3p( 0.01)3d( 0.01)
     Br 10      [core]4s( 1.86)4p( 5.07)
      C 11      [core]2s( 0.97)2p( 3.23)3p( 0.01)3d( 0.01)
      C 12      [core]2s( 0.91)2p( 3.08)3p( 0.01)
      H 13            1s( 0.74)
      H 14            1s( 0.77)
      H 15            1s( 0.79)
      H 16            1s( 0.78)
      H 17            1s( 0.78)
      H 18            1s( 0.78)
      H 19            1s( 0.77)
      H 20            1s( 0.77)


 Wiberg bond index matrix in the NAO basis:

     Atom    1       2       3       4       5       6       7       8       9
     ---- ------  ------  ------  ------  ------  ------  ------  ------  ------
   1.  N  0.0000  2.9164  0.0316  0.0238  0.0012  0.0030  0.0007  0.0016  0.0005
   2.  C  2.9164  0.0000  1.0302  0.0103  0.0011  0.0093  0.0005  0.0037  0.0004
   3.  C  0.0316  1.0302  0.0000  0.9763  0.0054  0.0081  0.0094  0.0014  0.0086
   4.  C  0.0238  0.0103  0.9763  0.0000  1.0106  0.0064  0.0076  0.0007  0.0007
   5.  C  0.0012  0.0011  0.0054  1.0106  0.0000  1.0189  0.0071  0.0091  0.0019
   6.  C  0.0030  0.0093  0.0081  0.0064  1.0189  0.0000  1.4100  0.0088  0.0968
   7.  C  0.0007  0.0005  0.0094  0.0076  0.0071  1.4100  0.0000  1.4363  0.0106
   8.  C  0.0016  0.0037  0.0014  0.0007  0.0091  0.0088  1.4363  0.0000  1.4078
   9.  C  0.0005  0.0004  0.0086  0.0007  0.0019  0.0968  0.0106  1.4078  0.0000
  10. Br  0.0002  0.0001  0.0014  0.0005  0.0008  0.0139  0.0167  0.0432  1.0456
  11.  C  0.0024  0.0071  0.0056  0.0071  0.0096  0.0096  0.1139  0.0103  1.4098
  12.  C  0.0201  0.0122  0.9816  0.0074  0.0090  1.3801  0.0096  0.1051  0.0119
  13.  H  0.0247  0.0029  0.8789  0.0017  0.0061  0.0095  0.0001  0.0024  0.0003
  14.  H  0.0006  0.0017  0.0006  0.9279  0.0009  0.0071  0.0002  0.0006  0.0005
  15.  H  0.0020  0.0076  0.0011  0.9270  0.0017  0.0004  0.0001  0.0001  0.0000
  16.  H  0.0001  0.0009  0.0002  0.0020  0.9078  0.0018  0.0096  0.0001  0.0050
  17.  H  0.0003  0.0003  0.0069  0.0009  0.9211  0.0013  0.0038  0.0003  0.0022
  18.  H  0.0001  0.0001  0.0003  0.0003  0.0022  0.0028  0.9196  0.0028  0.0082
  19.  H  0.0000  0.0000  0.0005  0.0002  0.0003  0.0081  0.0030  0.9156  0.0024
  20.  H  0.0002  0.0001  0.0023  0.0003  0.0003  0.0106  0.0007  0.0097  0.0028

     Atom   10      11      12      13      14      15      16      17      18
     ---- ------  ------  ------  ------  ------  ------  ------  ------  ------
   1.  N  0.0002  0.0024  0.0201  0.0247  0.0006  0.0020  0.0001  0.0003  0.0001
   2.  C  0.0001  0.0071  0.0122  0.0029  0.0017  0.0076  0.0009  0.0003  0.0001
   3.  C  0.0014  0.0056  0.9816  0.8789  0.0006  0.0011  0.0002  0.0069  0.0003
   4.  C  0.0005  0.0071  0.0074  0.0017  0.9279  0.9270  0.0020  0.0009  0.0003
   5.  C  0.0008  0.0096  0.0090  0.0061  0.0009  0.0017  0.9078  0.9211  0.0022
   6.  C  0.0139  0.0096  1.3801  0.0095  0.0071  0.0004  0.0018  0.0013  0.0028
   7.  C  0.0167  0.1139  0.0096  0.0001  0.0002  0.0001  0.0096  0.0038  0.9196
   8.  C  0.0432  0.0103  0.1051  0.0024  0.0006  0.0001  0.0001  0.0003  0.0028
   9.  C  1.0456  1.4098  0.0119  0.0003  0.0005  0.0000  0.0050  0.0022  0.0082
  10. Br  0.0000  0.0443  0.0158  0.0000  0.0001  0.0000  0.0008  0.0003  0.0010
  11.  C  0.0443  0.0000  1.4105  0.0037  0.0002  0.0001  0.0001  0.0001  0.0006
  12.  C  0.0158  1.4105  0.0000  0.0021  0.0066  0.0002  0.0119  0.0100  0.0107
  13.  H  0.0000  0.0037  0.0021  0.0000  0.0000  0.0031  0.0001  0.0000  0.0002
  14.  H  0.0001  0.0002  0.0066  0.0000  0.0000  0.0002  0.0023  0.0000  0.0000
  15.  H  0.0000  0.0001  0.0002  0.0031  0.0002  0.0000  0.0089  0.0031  0.0000
  16.  H  0.0008  0.0001  0.0119  0.0001  0.0023  0.0089  0.0000  0.0002  0.0001
  17.  H  0.0003  0.0001  0.0100  0.0000  0.0000  0.0031  0.0002  0.0000  0.0001
  18.  H  0.0010  0.0006  0.0107  0.0002  0.0000  0.0000  0.0001  0.0001  0.0000
  19.  H  0.0042  0.0097  0.0010  0.0000  0.0000  0.0000  0.0000  0.0000  0.0031
  20.  H  0.0042  0.9116  0.0032  0.0001  0.0000  0.0000  0.0001  0.0003  0.0006

     Atom   19      20
     ---- ------  ------
   1.  N  0.0000  0.0002
   2.  C  0.0000  0.0001
   3.  C  0.0005  0.0023
   4.  C  0.0002  0.0003
   5.  C  0.0003  0.0003
   6.  C  0.0081  0.0106
   7.  C  0.0030  0.0007
   8.  C  0.9156  0.0097
   9.  C  0.0024  0.0028
  10. Br  0.0042  0.0042
  11.  C  0.0097  0.9116
  12.  C  0.0010  0.0032
  13.  H  0.0000  0.0001
  14.  H  0.0000  0.0000
  15.  H  0.0000  0.0000
  16.  H  0.0000  0.0001
  17.  H  0.0000  0.0003
  18.  H  0.0031  0.0006
  19.  H  0.0000  0.0003
  20.  H  0.0003  0.0000


 Wiberg bond index, Totals by atom:

     Atom    1
     ---- ------
   1.  N  3.0293
   2.  C  4.0048
   3.  C  3.9504
   4.  C  3.9119
   5.  C  3.9151
   6.  C  4.0065
   7.  C  3.9594
   8.  C  3.9593
   9.  C  4.0158
  10. Br  1.1930
  11.  C  3.9561
  12.  C  4.0089
  13.  H  0.9360
  14.  H  0.9497
  15.  H  0.9556
  16.  H  0.9518
  17.  H  0.9511
  18.  H  0.9528
  19.  H  0.9484
  20.  H  0.9474


 NBI: Natural Binding Index (NCU strength parameters)

     Atom    1       2       3       4       5       6       7       8       9
     ---- ------  ------  ------  ------  ------  ------  ------  ------  ------
   1.  N  0.0000  1.7077  0.1778  0.1544  0.0340  0.0546  0.0257  0.0396  0.0222
   2.  C  1.7077  0.0000  1.0150  0.1013  0.0331  0.0967  0.0218  0.0606  0.0193
   3.  C  0.1778  1.0150  0.0000  0.9881  0.0733  0.0900  0.0971  0.0371  0.0926
   4.  C  0.1544  0.1013  0.9881  0.0000  1.0053  0.0803  0.0873  0.0259  0.0256
   5.  C  0.0340  0.0331  0.0733  1.0053  0.0000  1.0094  0.0844  0.0954  0.0438
   6.  C  0.0546  0.0967  0.0900  0.0803  1.0094  0.0000  1.1874  0.0940  0.3111
   7.  C  0.0257  0.0218  0.0971  0.0873  0.0844  1.1874  0.0000  1.1985  0.1028
   8.  C  0.0396  0.0606  0.0371  0.0259  0.0954  0.0940  1.1985  0.0000  1.1865
   9.  C  0.0222  0.0193  0.0926  0.0256  0.0438  0.3111  0.1028  1.1865  0.0000
  10. Br  0.0131  0.0077  0.0368  0.0230  0.0276  0.1177  0.1291  0.2079  1.0225
  11.  C  0.0490  0.0840  0.0749  0.0844  0.0979  0.0982  0.3374  0.1013  1.1873
  12.  C  0.1417  0.1105  0.9908  0.0861  0.0946  1.1748  0.0980  0.3241  0.1092
  13.  H  0.1573  0.0539  0.9375  0.0414  0.0779  0.0973  0.0101  0.0486  0.0179
  14.  H  0.0244  0.0408  0.0236  0.9633  0.0306  0.0844  0.0145  0.0237  0.0221
  15.  H  0.0448  0.0872  0.0334  0.9628  0.0417  0.0202  0.0086  0.0081  0.0039
  16.  H  0.0091  0.0305  0.0132  0.0447  0.9528  0.0421  0.0980  0.0088  0.0704
  17.  H  0.0162  0.0165  0.0831  0.0299  0.9597  0.0364  0.0619  0.0159  0.0469
  18.  H  0.0101  0.0087  0.0181  0.0169  0.0466  0.0528  0.9590  0.0528  0.0908
  19.  H  0.0035  0.0050  0.0213  0.0151  0.0180  0.0900  0.0547  0.9569  0.0490
  20.  H  0.0136  0.0110  0.0483  0.0169  0.0171  0.1029  0.0261  0.0984  0.0525

     Atom   10      11      12      13      14      15      16      17      18
     ---- ------  ------  ------  ------  ------  ------  ------  ------  ------
   1.  N  0.0131  0.0490  0.1417  0.1573  0.0244  0.0448  0.0091  0.0162  0.0101
   2.  C  0.0077  0.0840  0.1105  0.0539  0.0408  0.0872  0.0305  0.0165  0.0087
   3.  C  0.0368  0.0749  0.9908  0.9375  0.0236  0.0334  0.0132  0.0831  0.0181
   4.  C  0.0230  0.0844  0.0861  0.0414  0.9633  0.9628  0.0447  0.0299  0.0169
   5.  C  0.0276  0.0979  0.0946  0.0779  0.0306  0.0417  0.9528  0.9597  0.0466
   6.  C  0.1177  0.0982  1.1748  0.0973  0.0844  0.0202  0.0421  0.0364  0.0528
   7.  C  0.1291  0.3374  0.0980  0.0101  0.0145  0.0086  0.0980  0.0619  0.9590
   8.  C  0.2079  0.1013  0.3241  0.0486  0.0237  0.0081  0.0088  0.0159  0.0528
   9.  C  1.0225  1.1873  0.1092  0.0179  0.0221  0.0039  0.0704  0.0469  0.0908
  10. Br  0.0000  0.2105  0.1257  0.0070  0.0102  0.0017  0.0276  0.0185  0.0319
[...]
   85.  0.00473     1.13911  291.   RY ( 2) C  9
   86.  0.00463     1.73039  372.   RY ( 1) C 12
   87.  0.00459     1.45976  264.   RY ( 1) C  8
   88.  0.00405     1.70311  238.   RY ( 1) C  7
   89.  0.00399     1.77658  212.   RY ( 1) C  6
   90.  0.00324     0.75146  316.   RY ( 1)Br 10
   91.  0.00300     1.99550   82.   RY ( 1) N  1
   92.  0.00279     0.99716  292.   RY ( 3) C  9
   93.  0.00279     1.25219  134.   RY ( 1) C  3
   94.  0.00261     1.29612  373.   RY ( 2) C 12
   95.  0.00250     1.34247  347.   RY ( 2) C 11
   96.  0.00239     1.36778  213.   RY ( 2) C  6
   97.  0.00197     1.26300  186.   RY ( 1) C  5
   98.  0.00191     1.26187  265.   RY ( 2) C  8
   99.  0.00184     1.70726  109.   RY ( 2) C  2
  100.  0.00175     0.99891  374.   RY ( 3) C 12
  101.  0.00168     1.16908  214.   RY ( 3) C  6
  102.  0.00165     1.41099  239.   RY ( 2) C  7
  103.  0.00155     1.34497  160.   RY ( 1) C  4
  104.  0.00131     1.35647  110.   RY ( 3) C  2
  105.  0.00131     0.65697  266.   RY ( 3) C  8
  106.  0.00130     0.60580  348.   RY ( 3) C 11
  107.  0.00129     1.78122  135.   RY ( 2) C  3
  108.  0.00115     1.02708  317.   RY ( 2)Br 10
  109.  0.00114     1.57362  187.   RY ( 2) C  5
  110.  0.00112     1.57117  161.   RY ( 2) C  4
  111.  0.00112     2.33433  136.   RY ( 3) C  3
  112.  0.00102     0.64416  240.   RY ( 3) C  7
  113.  0.00090     1.76364  349.   RY ( 4) C 11
  114.  0.00083     1.64961  137.   RY ( 4) C  3
  115.  0.00082     0.80734  413.   RY ( 1) H 16
  116.  0.00076     1.68748  267.   RY ( 4) C  8
  117.  0.00075     1.46773  375.   RY ( 4) C 12
  118.  0.00074     0.65035  433.   RY ( 1) H 20
  119.  0.00066     1.16041  398.   RY ( 1) H 13
  120.  0.00065     1.68719  188.   RY ( 3) C  5
  121.  0.00061     1.68279  241.   RY ( 4) C  7
  122.  0.00061     1.48077  215.   RY ( 4) C  6
  123.  0.00060     1.04755  293.   RY ( 4) C  9
  124.  0.00056     2.38996  138.   RY ( 5) C  3
  125.  0.00053     1.89551  294.   RY ( 5) C  9
  126.  0.00051     0.63679  428.   RY ( 1) H 19
  127.  0.00050     2.47386  111.   RY ( 4) C  2
  128.  0.00049     2.99410  376.   RY ( 5) C 12
  129.  0.00047     2.51474  295.   RY ( 6) C  9
  130.  0.00046     0.85441  408.   RY ( 1) H 15
  131.  0.00044     3.13204  216.   RY ( 5) C  6
  132.  0.00041     0.73237  423.   RY ( 1) H 18
  133.  0.00040     1.24303  162.   RY ( 3) C  4
  134.  0.00039     0.98172  418.   RY ( 1) H 17
  135.  0.00039     2.17966  189.   RY ( 4) C  5
  136.  0.00039     2.75282  377.   RY ( 6) C 12
  137.  0.00038     2.32681  139.   RY ( 6) C  3
  138.  0.00038     2.56390  268.   RY ( 5) C  8
  139.  0.00037     2.57629  350.   RY ( 5) C 11
  140.  0.00036     0.83674  403.   RY ( 1) H 14
  141.  0.00036     3.43246  378.   RY ( 7) C 12
  142.  0.00035     3.06987  242.   RY ( 5) C  7
  143.  0.00033     2.52677  351.   RY ( 6) C 11
  144.  0.00032     2.80419  217.   RY ( 6) C  6
  145.  0.00032     1.97095  269.   RY ( 6) C  8
  146.  0.00032     1.74198  163.   RY ( 4) C  4
  147.  0.00031     3.36476  218.   RY ( 7) C  6
  148.  0.00030     3.22720  140.   RY ( 7) C  3
  149.  0.00027     1.14079  296.   RY ( 7) C  9
  150.  0.00026     3.32073  243.   RY ( 6) C  7
  151.  0.00026     3.60343  297.   RY ( 8) C  9
  152.  0.00024     2.96673  298.   RY ( 9) C  9
  153.  0.00023     2.36196  379.   RY ( 8) C 12
  154.  0.00022     2.47009  352.   RY ( 7) C 11
  155.  0.00022     2.14075  190.   RY ( 5) C  5
  156.  0.00021     0.85086  318.   RY ( 3)Br 10
  157.  0.00021     1.10568   83.   RY ( 2) N  1
  158.  0.00021     3.22990  219.   RY ( 8) C  6
  159.  0.00020     1.84284  112.   RY ( 5) C  2
  160.  0.00019     3.19367  164.   RY ( 5) C  4
  161.  0.00018     2.80957  380.   RY ( 9) C 12
  162.  0.00016     2.42437  270.   RY ( 7) C  8
  163.  0.00016     2.70141  141.   RY ( 8) C  3
  164.  0.00016     0.99556  319.   RY ( 4)Br 10
  165.  0.00016     2.79041  381.   RY (10) C 12
  166.  0.00015     1.54730  353.   RY ( 8) C 11
  167.  0.00015     2.96519  165.   RY ( 6) C  4
  168.  0.00015     2.02704  191.   RY ( 6) C  5
  169.  0.00014     2.62031  142.   RY ( 9) C  3
  170.  0.00013     3.01862  220.   RY ( 9) C  6
  171.  0.00013     1.73951  271.   RY ( 8) C  8
  172.  0.00012     2.20243  434.   RY ( 2) H 20
  173.  0.00012     2.04329  113.   RY ( 6) C  2
  174.  0.00012     2.39908  399.   RY ( 2) H 13
  175.  0.00012     2.42169  414.   RY ( 2) H 16
  176.  0.00012     2.41975  419.   RY ( 2) H 17
  177.  0.00012     2.56551  166.   RY ( 7) C  4
  178.  0.00012     2.20169  424.   RY ( 2) H 18
  179.  0.00011     2.06831  354.   RY ( 9) C 11
  180.  0.00011     1.03942   84.   RY ( 3) N  1
  181.  0.00011     2.19726  429.   RY ( 2) H 19
  182.  0.00011     0.51641  320.   RY ( 5)Br 10
  183.  0.00011     2.42645  404.   RY ( 2) H 14
  184.  0.00011     2.14971  435.   RY ( 3) H 20
  185.  0.00010     2.41781  409.   RY ( 2) H 15
  186.  0.00010     2.62718  382.   RY (11) C 12
  187.  0.00010     2.96516  143.   RY (10) C  3
  188.  0.00010     2.02019  425.   RY ( 3) H 18
  189.  0.00010     2.50434  244.   RY ( 7) C  7
  190.  0.00010     2.47154  400.   RY ( 3) H 13
  191.  0.00010     2.09712  430.   RY ( 3) H 19
  192.  0.00009     3.16540  192.   RY ( 7) C  5
  193.  0.00008     2.49227  114.   RY ( 7) C  2
  194.  0.00008     2.15067  144.   RY (11) C  3
  195.  0.00007     1.72997  167.   RY ( 8) C  4
  196.  0.00007     2.21085  299.   RY (10) C  9
  197.  0.00007     2.88870  168.   RY ( 9) C  4
  198.  0.00007     2.94958  272.   RY ( 9) C  8
  199.  0.00007     2.53258  436.   RY ( 4) H 20
  200.  0.00007     2.53678  431.   RY ( 4) H 19
  201.  0.00006     2.31407  420.   RY ( 3) H 17
  202.  0.00006     1.71772  193.   RY ( 8) C  5
  203.  0.00006     3.28159  145.   RY (12) C  3
  204.  0.00006     2.30459  415.   RY ( 3) H 16
  205.  0.00006     2.97950  221.   RY (10) C  6
  206.  0.00005     3.22780  222.   RY (11) C  6
  207.  0.00005     3.10165  383.   RY (12) C 12
  208.  0.00005     1.93698  194.   RY ( 9) C  5
  209.  0.00005     2.69591  223.   RY (12) C  6
  210.  0.00005     2.26501  245.   RY ( 8) C  7
  211.  0.00005     2.69961  355.   RY (10) C 11
  212.  0.00005     2.57717  426.   RY ( 4) H 18
  213.  0.00005     2.49148  115.   RY ( 8) C  2
  214.  0.00005     2.65590  273.   RY (10) C  8
  215.  0.00005     2.41700  405.   RY ( 3) H 14
  216.  0.00005     2.49637  410.   RY ( 3) H 15
  217.  0.00004     2.50567  146.   RY (13) C  3
  218.  0.00004     3.60824  384.   RY (13) C 12
  219.  0.00004     1.09392   85.   RY ( 4) N  1
  220.  0.00004     2.66077  224.   RY (13) C  6
  221.  0.00004     1.78121  246.   RY ( 9) C  7
  222.  0.00004     2.46051  401.   RY ( 4) H 13
  223.  0.00003     2.98995  247.   RY (10) C  7
  224.  0.00003     1.24981  321.   RY ( 6)Br 10
  225.  0.00003     2.75575  300.   RY (11) C  9
  226.  0.00003     3.07903  385.   RY (14) C 12
  227.  0.00003     2.55074  356.   RY (11) C 11
  228.  0.00003     2.24697  406.   RY ( 4) H 14
  229.  0.00003     2.30285  169.   RY (10) C  4
  230.  0.00002     2.61769  116.   RY ( 9) C  2
  231.  0.00002     2.34862  225.   RY (14) C  6
  232.  0.00002     3.42308  357.   RY (12) C 11
  233.  0.00002     2.25951  195.   RY (10) C  5
  234.  0.00002     2.70729  386.   RY (15) C 12
  235.  0.00002     1.86432  170.   RY (11) C  4
  236.  0.00002     1.54050   86.   RY ( 5) N  1
  237.  0.00002     2.75931  147.   RY (14) C  3
  238.  0.00002     3.40685  387.   RY (16) C 12
  239.  0.00002     2.31441  421.   RY ( 4) H 17
  240.  0.00002     2.34145  248.   RY (11) C  7
  241.  0.00002     1.13758  322.   RY ( 7)Br 10
  242.  0.00002     2.39928  358.   RY (13) C 11
  243.  0.00002     2.28068  411.   RY ( 4) H 15
  244.  0.00002     2.50525  416.   RY ( 4) H 16
  245.  0.00002     2.42120  117.   RY (10) C  2
  246.  0.00002     2.95803  196.   RY (11) C  5
  247.  0.00002     2.42038  402.   RY ( 5) H 13
  248.  0.00001     2.81323   87.   RY ( 6) N  1
  249.  0.00001     2.68145  118.   RY (11) C  2
  250.  0.00001     3.00697  148.   RY (15) C  3
  251.  0.00001     2.67359  171.   RY (12) C  4
  252.  0.00001     2.83657  197.   RY (12) C  5
  253.  0.00001     2.44757  249.   RY (12) C  7
  254.  0.00001     2.48017  301.   RY (12) C  9
  255.  0.00001     3.18829  149.   RY (16) C  3
  256.  0.00001     2.58924  226.   RY (15) C  6
  257.  0.00001     3.12461  274.   RY (11) C  8
  258.  0.00001     3.15655  388.   RY (17) C 12
  259.  0.00001     4.14619  150.   RY (17) C  3
  260.  0.00001     3.02109  302.   RY (13) C  9
  261.  0.00001     1.47773  323.   RY ( 8)Br 10
  262.  0.00001     3.07260  359.   RY (14) C 11
  263.  0.00001     2.78822  389.   RY (18) C 12
  264.  0.00001     2.67236  119.   RY (12) C  2
  265.  0.00001     1.83853  172.   RY (13) C  4
  266.  0.00001     2.95714  198.   RY (13) C  5
  267.  0.00001     3.10577  199.   RY (14) C  5
  268.  0.00001     2.48677  407.   RY ( 5) H 14
  269.  0.00001     3.01750  432.   RY ( 5) H 19
  270.  0.00001     3.05466  437.   RY ( 5) H 20
  271.  0.00000     1.61044   88.   RY ( 7) N  1
  272.  0.00001     1.70733   89.   RY ( 8) N  1
  273.  0.00001     2.87973  120.   RY (13) C  2
  274.  0.00001     4.96314  151.   RY (18) C  3
  275.  0.00001     2.58556  173.   RY (14) C  4
  276.  0.00001     3.22699  227.   RY (16) C  6
  277.  0.00001     1.69305  250.   RY (13) C  7
  278.  0.00000     3.23303  174.   RY (15) C  4
  279.  0.00000     2.76317  200.   RY (15) C  5
  280.  0.00000     2.91723  228.   RY (17) C  6
  281.  0.00000     3.65184  251.   RY (14) C  7
  282.  0.00001     3.65669  275.   RY (12) C  8
  283.  0.00001     1.40631  324.   RY ( 9)Br 10
  284.  0.00000     3.20216   90.   RY ( 9) N  1
  285.  0.00000     3.73441   91.   RY (10) N  1
  286.  0.00000     3.84114  121.   RY (14) C  2
  287.  0.00000     7.19874   92.   RY (11) N  1
  288.  0.00000     3.52849   93.   RY (12) N  1
  289.  0.00000     3.38986  122.   RY (15) C  2
  290.  0.00000     2.58783  123.   RY (16) C  2
  291.  0.00000     4.55622  152.   RY (19) C  3
  292.  0.00000     5.56334   94.   RY (13) N  1
  293.  0.00000     4.83294   95.   RY (14) N  1
  294.  0.00000     7.08107   96.   RY (15) N  1
  295.  0.00000     4.67956   97.   RY (16) N  1
  296.  0.00000    12.24095   98.   RY (17) N  1
  297.  0.00000     4.75438   99.   RY (18) N  1
  298.  0.00000     5.35732  100.   RY (19) N  1
  299.  0.00000     5.92516  101.   RY (20) N  1
  300.  0.00000     4.46510  102.   RY (21) N  1
  301.  0.00000     8.39696  103.   RY (22) N  1
  302.  0.00000     5.54012  104.   RY (23) N  1
  303.  0.00000     4.12148  105.   RY (24) N  1
  304.  0.00000     4.11915  106.   RY (25) N  1
  305.  0.00000     4.86799  107.   RY (26) N  1
  306.  0.00000     3.67373  124.   RY (17) C  2
  307.  0.00000    11.14726  125.   RY (18) C  2
  308.  0.00000     2.79222  126.   RY (19) C  2
  309.  0.00000     3.00290  127.   RY (20) C  2
  310.  0.00000     4.08601  128.   RY (21) C  2
  311.  0.00000     3.21523  129.   RY (22) C  2
  312.  0.00000     5.30822  130.   RY (23) C  2
  313.  0.00000     2.89492  131.   RY (24) C  2
  314.  0.00000     2.60755  132.   RY (25) C  2
  315.  0.00000     3.60754  133.   RY (26) C  2
  316.  0.00000     7.63878  153.   RY (20) C  3
  317.  0.00000     3.80389  154.   RY (21) C  3
  318.  0.00000     6.55869  155.   RY (22) C  3
  319.  0.00000     4.15629  156.   RY (23) C  3
  320.  0.00000     3.99899  157.   RY (24) C  3
  321.  0.00000     4.02763  158.   RY (25) C  3
  322.  0.00000     3.73977  159.   RY (26) C  3
  323.  0.00000     2.96817  175.   RY (16) C  4
  324.  0.00000     3.57013  176.   RY (17) C  4
  325.  0.00000    11.15353  177.   RY (18) C  4
  326.  0.00000     2.93911  178.   RY (19) C  4
  327.  0.00000     3.36924  179.   RY (20) C  4
  328.  0.00000     4.27261  180.   RY (21) C  4
  329.  0.00000     7.09677  181.   RY (22) C  4
  330.  0.00000     3.87219  182.   RY (23) C  4
  331.  0.00000     3.59425  183.   RY (24) C  4
  332.  0.00000     2.09904  201.   RY (16) C  5
  333.  0.00000     4.76206  184.   RY (25) C  4
  334.  0.00000     4.20993  185.   RY (26) C  4
  335.  0.00000     3.77686  202.   RY (17) C  5
  336.  0.00000     4.16070  203.   RY (18) C  5
  337.  0.00000     3.92967  204.   RY (19) C  5
  338.  0.00000     4.13413  229.   RY (18) C  6
  339.  0.00000     2.60459  230.   RY (19) C  6
  340.  0.00000     3.52577  252.   RY (15) C  7
  341.  0.00000     6.96484  205.   RY (20) C  5
  342.  0.00000     5.80132  206.   RY (21) C  5
  343.  0.00000     5.68386  207.   RY (22) C  5
  344.  0.00000     4.20786  208.   RY (23) C  5
  345.  0.00000     8.05672  209.   RY (24) C  5
  346.  0.00000     3.17300  210.   RY (25) C  5
  347.  0.00000     2.87095  211.   RY (26) C  5
  348.  0.00000     3.87054  231.   RY (20) C  6
  349.  0.00000     2.47537  232.   RY (21) C  6
  350.  0.00000     4.92912  233.   RY (22) C  6
  351.  0.00000     3.51623  234.   RY (23) C  6
  352.  0.00000     4.29611  235.   RY (24) C  6
  353.  0.00000     9.83549  236.   RY (25) C  6
  354.  0.00000     9.47133  237.   RY (26) C  6
  355.  0.00000     5.63444  253.   RY (16) C  7
  356.  0.00000     3.13122  254.   RY (17) C  7
  357.  0.00000    11.55725  255.   RY (18) C  7
  358.  0.00000     3.68159  256.   RY (19) C  7
  359.  0.00000     3.27244  257.   RY (20) C  7
  360.  0.00000     4.77267  258.   RY (21) C  7
  361.  0.00000     3.35901  259.   RY (22) C  7
  362.  0.00000     2.68546  260.   RY (23) C  7
  363.  0.00000     2.89662  276.   RY (13) C  8
  364.  0.00000     2.15896  277.   RY (14) C  8
  365.  0.00000     2.66231  303.   RY (14) C  9
  366.  0.00000     2.36784  304.   RY (15) C  9
  367.  0.00001     1.01422  325.   RY (10)Br 10
  368.  0.00001     3.27184  360.   RY (15) C 11
  369.  0.00001     2.62623  361.   RY (16) C 11
  370.  0.00001     2.50327  417.   RY ( 5) H 16
  371.  0.00000     3.05683  305.   RY (16) C  9
  372.  0.00000     3.76077  326.   RY (11)Br 10
  373.  0.00000     3.08505  261.   RY (24) C  7
  374.  0.00000     5.11195  262.   RY (25) C  7
  375.  0.00000     4.07993  263.   RY (26) C  7
  376.  0.00000     4.32174  278.   RY (15) C  8
  377.  0.00000     3.05415  279.   RY (16) C  8
  378.  0.00000     3.30484  280.   RY (17) C  8
  379.  0.00000     3.54165  281.   RY (18) C  8
  380.  0.00000     3.82663  282.   RY (19) C  8
  381.  0.00000     3.68564  283.   RY (20) C  8
  382.  0.00000     4.08565  284.   RY (21) C  8
  383.  0.00000    15.20198  285.   RY (22) C  8
  384.  0.00000     3.27350  286.   RY (23) C  8
  385.  0.00000     3.13966  287.   RY (24) C  8
  386.  0.00000     3.40237  288.   RY (25) C  8
  387.  0.00000     2.48137  289.   RY (26) C  8
  388.  0.00000     2.67274  306.   RY (17) C  9
  389.  0.00000     3.41073  307.   RY (18) C  9
  390.  0.00000     2.01927  327.   RY (12)Br 10
  391.  0.00000     3.59074  390.   RY (19) C 12
  392.  0.00000     2.37646  412.   RY ( 5) H 15
  393.  0.00001     2.45515  422.   RY ( 5) H 17
  394.  0.00001     3.03503  427.   RY ( 5) H 18
  395.  0.00000     5.63944  308.   RY (19) C  9
  396.  0.00000    15.37324  309.   RY (20) C  9
  397.  0.00000     3.70722  310.   RY (21) C  9
  398.  0.00000     3.15540  311.   RY (22) C  9
  399.  0.00000     3.36508  312.   RY (23) C  9
  400.  0.00000     2.42999  313.   RY (24) C  9
  401.  0.00000     3.72056  314.   RY (25) C  9
  402.  0.00000     3.44227  315.   RY (26) C  9
  403.  0.00000     3.02529  328.   RY (13)Br 10
  404.  0.00000     2.33000  329.   RY (14)Br 10
  405.  0.00000     1.79025  330.   RY (15)Br 10
  406.  0.00000     2.33091  331.   RY (16)Br 10
  407.  0.00000     1.66962  332.   RY (17)Br 10
  408.  0.00000     2.83784  362.   RY (17) C 11
  409.  0.00000     3.00269  363.   RY (18) C 11
  410.  0.00000     3.60914  364.   RY (19) C 11
  411.  0.00000     3.13151  333.   RY (18)Br 10
  412.  0.00000     2.86050  334.   RY (19)Br 10
  413.  0.00000     2.22506  335.   RY (20)Br 10
  414.  0.00000     2.85038  336.   RY (21)Br 10
  415.  0.00000     1.75760  337.   RY (22)Br 10
  416.  0.00000     4.14419  338.   RY (23)Br 10
  417.  0.00000     3.87611  339.   RY (24)Br 10
  418.  0.00000     2.05004  340.   RY (25)Br 10
  419.  0.00000     3.88884  341.   RY (26)Br 10
  420.  0.00000     1.83460  342.   RY (27)Br 10
  421.  0.00000     1.62707  343.   RY (28)Br 10
  422.  0.00000     2.78560  344.   RY (29)Br 10
  423.  0.00000     2.45398  345.   RY (30)Br 10
  424.  0.00000    12.90285  365.   RY (20) C 11
  425.  0.00000     4.17115  366.   RY (21) C 11
  426.  0.00000     3.41356  367.   RY (22) C 11
  427.  0.00000     5.20670  368.   RY (23) C 11
  428.  0.00000     3.27485  369.   RY (24) C 11
  429.  0.00000     6.86064  370.   RY (25) C 11
  430.  0.00000     3.97835  391.   RY (20) C 12
  431.  0.00000     4.77501  392.   RY (21) C 12
  432.  0.00000     2.74157  393.   RY (22) C 12
  433.  0.00000     3.50467  371.   RY (26) C 11
  434.  0.00000     4.98150  394.   RY (23) C 12
  435.  0.00000     7.25899  395.   RY (24) C 12
  436.  0.00000     4.78154  396.   RY (25) C 12
  437.  0.00000    10.74722  397.   RY (26) C 12

 NBO analysis completed in 8.58 CPU seconds (8 wall seconds)
 Maximum scratch memory used by NBO was 2285629 words (17.44 MB)
 Maximum scratch memory used by G16NBO was 297909 words (2.27 MB)

 Opening RunExU unformatted file "/home/rpaton/opt/tzvp/popn/Gau-2185153.EUF"
 Read unf file /home/rpaton/opt/tzvp/popn/Gau-2185153.EUF:
 Label Gaussian matrix elements                                         IVers= 2 NLab= 2 Version=ES64L-G16RevC.01
 Title arbr41_wb97xd_popncreated by GaussianPrep                       
 NAtoms=    20 NBasis=   437 NBsUse=   437 ICharg=     0 Multip=     1 NE=   110 Len12L=8 Len4L=8 IOpCl= 0 ICGU=111
 GAUSSIAN SCALARS                    NI= 1 NR= 1 NTot=       1 LenBuf=    2 NRI=1 N=    1000
 ALPHA ORBITAL ENERGIES              NI= 0 NR= 1 NTot=     437 LenBuf= 2048 NRI=1 N=     437
 ALPHA MO COEFFICIENTS               NI= 0 NR= 1 NTot=  190969 LenBuf= 2048 NRI=1 N=     437     437
 Store file  10524 Len=  190969.
 NPA CHARGES                         NI= 0 NR= 1 NTot=      20 LenBuf= 2048 NRI=1 N=      20
 Recovered energy= -3014.84446767     dipole=     -0.286803379777      1.442810213903      0.974294269124
 Unable to Open any file for archive entry.
 1\1\GINC-DYNAMO\SP\RwB97XD\def2TZVP\C10H8Br1N1\RPATON\23-Sep-2024\0\\#
  pop=(nbo6read,savenbos,hirshfeld) wb97xd/def2tzvp\\arbr41_wb97xd_popn
 created by GaussianPrep\\0,1\N,0,-3.122595,-2.422497,-1.156833\C,0,-2.
 79168,-1.687459,-0.340437\C,0,-2.381735,-0.735795,0.69614\C,0,-3.36766
 3,0.454468,0.813612\C,0,-2.801165,1.539228,-0.116235\C,0,-1.326507,1.2
 39489,-0.127705\C,0,-0.270479,2.039015,-0.528637\C,0,1.023702,1.54182,
 -0.469789\C,0,1.245572,0.248994,-0.017571\Br,0,3.018243,-0.413791,0.06
 2081\C,0,0.199215,-0.567946,0.381705\C,0,-1.080254,-0.049069,0.324341\
 H,0,-2.30394,-1.28989,1.63292\H,0,-4.391104,0.170811,0.577384\H,0,-3.3
 41773,0.806512,1.845622\H,0,-3.210264,1.442433,-1.126034\H,0,-3.030789
 ,2.545752,0.233194\H,0,-0.441776,3.047927,-0.883224\H,0,1.859783,2.157
 123,-0.772325\H,0,0.38547,-1.576992,0.724922\\Version=ES64L-G16RevC.01
 \State=1-A\HF=-3014.8444677\RMSD=3.599e-09\Dipole=-0.2868033,1.4428102
 ,0.9742943\Quadrupole=-0.2395112,0.0969496,0.1425616,-7.632795,-6.6651
 075,-6.3522956\PG=C01 [X(C10H8Br1N1)]\\@
 The archive entry for this job was punched.


 NOTHING RESEMBLES A NEW PHENOMENON AS MUCH AS A MISTAKE.

                               -- ENRICO FERMI (?)
 Job cpu time:       0 days  0 hours 59 minutes 24.7 seconds.
 Elapsed time:       0 days  0 hours  2 minutes 30.3 seconds.
 File lengths (MBytes):  RWF=    106 Int=      0 D2E=      0 Chk=     11 Scr=      1
 Normal termination of Gaussian 16 at Mon Sep 23 03:55:10 2024.
