 Entering Gaussian System, Link 0=/usr/local/Gaussian/G16C/g16/g16
 Input=arbr39_wb97xd_popn.com
 Output=arbr39_wb97xd_popn.log
 Initial command:
 /usr/local/Gaussian/G16C/g16/l1.exe "/home/rpaton/opt/tzvp/popn/Gau-2183373.inp" -scrdir="/home/rpaton/opt/tzvp/popn/"
 Entering Link 1 = /usr/local/Gaussian/G16C/g16/l1.exe PID=   2183374.
  
 Copyright (c) 1988-2019, Gaussian, Inc.  All Rights Reserved.
  
 This is part of the Gaussian(R) 16 program.  It is based on
 the Gaussian(R) 09 system (copyright 2009, Gaussian, Inc.),
 the Gaussian(R) 03 system (copyright 2003, Gaussian, Inc.),
 the Gaussian(R) 98 system (copyright 1998, Gaussian, Inc.),
 the Gaussian(R) 94 system (copyright 1995, Gaussian, Inc.),
 the Gaussian 92(TM) system (copyright 1992, Gaussian, Inc.),
 the Gaussian 90(TM) system (copyright 1990, Gaussian, Inc.),
 the Gaussian 88(TM) system (copyright 1988, Gaussian, Inc.),
 the Gaussian 86(TM) system (copyright 1986, Carnegie Mellon
 University), and the Gaussian 82(TM) system (copyright 1983,
 Carnegie Mellon University). Gaussian is a federally registered
 trademark of Gaussian, Inc.
  
 This software contains proprietary and confidential information,
 including trade secrets, belonging to Gaussian, Inc.
  
 This software is provided under written license and may be
 used, copied, transmitted, or stored only in accord with that
 written license.
  
 The following legend is applicable only to US Government
 contracts under FAR:
  
                    RESTRICTED RIGHTS LEGEND
  
 Use, reproduction and disclosure by the US Government is
 subject to restrictions as set forth in subparagraphs (a)
 and (c) of the Commercial Computer Software - Restricted
 Rights clause in FAR 52.227-19.
  
 Gaussian, Inc.
 340 Quinnipiac St., Bldg. 40, Wallingford CT 06492
  
  
 ---------------------------------------------------------------
 Warning -- This program may not be used in any manner that
 competes with the business of Gaussian, Inc. or will provide
 assistance to any competitor of Gaussian, Inc.  The licensee
 of this program is prohibited from giving any competitor of
 Gaussian, Inc. access to this program.  By using this program,
 the user acknowledges that Gaussian, Inc. is engaged in the
 business of creating and licensing software in the field of
 computational chemistry and represents and warrants to the
 licensee that it is not a competitor of Gaussian, Inc. and that
 it will not use this program in any manner prohibited above.
 ---------------------------------------------------------------
  

 Cite this work as:
 Gaussian 16, Revision C.01,
 M. J. Frisch, G. W. Trucks, H. B. Schlegel, G. E. Scuseria, 
 M. A. Robb, J. R. Cheeseman, G. Scalmani, V. Barone, 
 G. A. Petersson, H. Nakatsuji, X. Li, M. Caricato, A. V. Marenich, 
 J. Bloino, B. G. Janesko, R. Gomperts, B. Mennucci, H. P. Hratchian, 
 J. V. Ortiz, A. F. Izmaylov, J. L. Sonnenberg, D. Williams-Young, 
 F. Ding, F. Lipparini, F. Egidi, J. Goings, B. Peng, A. Petrone, 
 T. Henderson, D. Ranasinghe, V. G. Zakrzewski, J. Gao, N. Rega, 
 G. Zheng, W. Liang, M. Hada, M. Ehara, K. Toyota, R. Fukuda, 
 J. Hasegawa, M. Ishida, T. Nakajima, Y. Honda, O. Kitao, H. Nakai, 
 T. Vreven, K. Throssell, J. A. Montgomery, Jr., J. E. Peralta, 
 F. Ogliaro, M. J. Bearpark, J. J. Heyd, E. N. Brothers, K. N. Kudin, 
 V. N. Staroverov, T. A. Keith, R. Kobayashi, J. Normand, 
 K. Raghavachari, A. P. Rendell, J. C. Burant, S. S. Iyengar, 
 J. Tomasi, M. Cossi, J. M. Millam, M. Klene, C. Adamo, R. Cammi, 
 J. W. Ochterski, R. L. Martin, K. Morokuma, O. Farkas, 
 J. B. Foresman, and D. J. Fox, Gaussian, Inc., Wallingford CT, 2019.
 
 ******************************************
 Gaussian 16:  ES64L-G16RevC.01  3-Jul-2019
                23-Sep-2024 
 ******************************************
 %chk=arbr39_wb97xd_popn.chk
 %mem=48GB
 %nprocshared=24
 Will use up to   24 processors via shared memory.
 ---------------------------------------------------
 # pop=(nbo6read,savenbos,hirshfeld) wb97xd/def2tzvp
 ---------------------------------------------------
 1/38=1,163=2,172=1/1;
 2/12=2,17=6,18=5,40=1/2;
 3/5=44,7=101,11=2,25=1,30=1,74=-58/1,2,3;
 4//1;
 5/5=2,38=5/2;
 6/7=2,8=2,9=2,10=2,28=1,40=2,73=1,79=1,113=1,114=1,124=2103,126=1/1,12;
 99/5=1,9=1/99;
 -----------------------------------------
 arbr39_wb97xd_popncreated by GaussianPrep
 -----------------------------------------
 Symbolic Z-matrix:
 Charge =  0 Multiplicity = 1
 O                     1.72094  -2.19294   0.00013 
 C                     1.61133  -0.99325   0.00101 
 C                     0.35136  -0.21803   0.00047 
 C                    -0.94866  -0.70405   0.00028 
 C                    -1.97127   0.22202   0.00003 
 Br                   -3.77218  -0.36649  -0.00015 
 C                    -1.70798   1.59153  -0.00005 
 C                    -0.40287   2.05396   0.00007 
 C                     0.63805   1.13641   0.00029 
 C                     2.12215   1.39311   0.00019 
 C                     2.76888  -0.00365   0.00018 
 C                     3.86798  -0.2447    1.07021 
 C                     4.94084   0.02843  -0.00078 
 C                     3.86704  -0.24516  -1.07071 
 H                    -1.13724  -1.76939   0.00042 
 H                    -2.53261   2.29163  -0.00026 
 H                    -0.20973   3.11982  -0.00009 
 H                     2.41261   1.97619   0.8773 
 H                     2.41244   1.97606  -0.87706 
 H                     3.841     0.39638   1.95122 
 H                     3.86561  -1.29024   1.37933 
 H                     5.82507  -0.6067   -0.00103 
 H                     5.25669   1.0724   -0.00115 
 H                     3.8393    0.39554  -1.95198 
 H                     3.86442  -1.29084  -1.37937 
 
                          Input orientation:                          
 ---------------------------------------------------------------------
 Center     Atomic      Atomic             Coordinates (Angstroms)
 Number     Number       Type             X           Y           Z
 ---------------------------------------------------------------------
      1          8           0        1.720941   -2.192944    0.000132
      2          6           0        1.611331   -0.993249    0.001006
      3          6           0        0.351364   -0.218033    0.000468
      4          6           0       -0.948663   -0.704047    0.000275
      5          6           0       -1.971272    0.222022    0.000026
      6         35           0       -3.772177   -0.366488   -0.000154
      7          6           0       -1.707982    1.591534   -0.000054
      8          6           0       -0.402866    2.053964    0.000067
      9          6           0        0.638049    1.136408    0.000292
     10          6           0        2.122149    1.393110    0.000193
     11          6           0        2.768880   -0.003648    0.000180
     12          6           0        3.867979   -0.244700    1.070207
     13          6           0        4.940841    0.028426   -0.000781
     14          6           0        3.867042   -0.245160   -1.070709
     15          1           0       -1.137236   -1.769394    0.000418
     16          1           0       -2.532610    2.291633   -0.000259
     17          1           0       -0.209725    3.119816   -0.000093
     18          1           0        2.412607    1.976191    0.877301
     19          1           0        2.412443    1.976061   -0.877057
     20          1           0        3.840998    0.396383    1.951219
     21          1           0        3.865614   -1.290240    1.379328
     22          1           0        5.825074   -0.606700   -0.001027
     23          1           0        5.256690    1.072396   -0.001147
     24          1           0        3.839300    0.395537   -1.951978
     25          1           0        3.864416   -1.290836   -1.379372
 ---------------------------------------------------------------------
                    Distance matrix (angstroms):
                    1          2          3          4          5
     1  O    0.000000
     2  C    1.204692   0.000000
     3  C    2.403334   1.479350   0.000000
     4  C    3.056730   2.576278   1.387905   0.000000
     5  C    4.411859   3.783111   2.363956   1.379613   0.000000
     6  Br   5.788807   5.419870   4.126213   2.843621   1.894625
     7  C    5.106837   4.207011   2.741430   2.417904   1.394591
     8  C    4.748345   3.652738   2.393916   2.811498   2.411620
     9  C    3.501034   2.341520   1.384449   2.430006   2.764897
    10  C    3.608428   2.440419   2.394047   3.718596   4.257645
    11  C    2.427178   1.522902   2.427003   3.782947   4.745521
    12  C    3.090386   2.606909   3.675817   4.955380   5.954827
    13  C    3.911808   3.482737   4.596090   5.934878   6.914824
    14  C    3.089711   2.606999   3.675343   4.954654   5.954044
    15  H    2.889389   2.856050   2.150035   1.081908   2.159017
    16  H    6.180949   5.287977   3.823052   3.388656   2.144386
    17  H    5.652689   4.498172   3.384680   3.894606   3.391203
    18  H    4.316192   3.198048   3.135630   4.387595   4.802615
    19  H    4.316044   3.198371   3.135625   4.387451   4.802383
    20  H    3.873757   3.271975   4.044809   5.287531   6.133518
    21  H    2.704936   2.658903   3.924390   5.042090   6.185358
    22  H    4.400009   4.231436   5.487492   6.774437   7.840267
    23  H    4.812896   4.189933   5.072222   6.454623   7.277814
    24  H    3.872778   3.272112   4.044034   5.286300   6.132143
    25  H    2.703944   2.659021   3.923825   5.041178   6.184394
                    6          7          8          9         10
     6  Br   0.000000
     7  C    2.845128   0.000000
     8  C    4.148595   1.384619   0.000000
     9  C    4.659269   2.389770   1.387593   0.000000
    10  C    6.151363   3.835267   2.610063   1.506137   0.000000
    11  C    6.551113   4.752568   3.780706   2.416644   1.539219
    12  C    7.715730   5.967290   4.966807   3.672142   2.622074
    13  C    8.721963   6.830092   5.714719   4.443157   3.131675
    14  C    7.714822   5.966627   4.966351   3.671807   2.622101
    15  H    2.985140   3.409045   3.893246   3.405190   4.541478
    16  H    2.932939   1.081735   2.142964   3.374555   4.740688
    17  H    4.984514   2.140192   1.083210   2.156995   2.901577
    18  H    6.671553   4.230481   2.949996   2.150218   1.092551
    19  H    6.671283   4.230236   2.949810   2.150170   1.092552
    20  H    7.896218   6.002252   4.956304   3.822648   2.784674
    21  H    7.816146   6.424351   5.595175   4.267029   3.484545
    22  H    9.600257   7.847239   6.772472   5.472080   4.208431
    23  H    9.142802   6.983993   5.744045   4.619085   3.150906
    24  H    7.894611   6.001063   4.955485   3.822075   2.784732
    25  H    7.814999   6.423566   5.594661   4.266665   3.484575
                   11         12         13         14         15
    11  C    0.000000
    12  C    1.552766   0.000000
    13  C    2.172198   1.540340   0.000000
    14  C    1.552769   2.140916   1.540337   0.000000
    15  H    4.286677   5.340535   6.338389   5.339794   0.000000
    16  H    5.777033   6.967526   7.808622   6.966831   4.294067
    17  H    4.316030   5.393809   6.007081   5.393451   4.976409
    18  H    2.194546   2.662269   3.310103   3.293103   5.234474
    19  H    2.194502   3.292750   3.309673   2.662176   5.234369
    20  H    2.261861   1.089907   2.270540   3.089386   5.768798
    21  H    2.181787   1.090282   2.190820   2.663621   5.211477
    22  H    3.115124   2.260267   1.088693   2.260270   7.058727
    23  H    2.710548   2.193413   1.090703   2.193408   6.997004
    24  H    2.261873   3.089390   2.270536   1.089907   5.767555
    25  H    2.181792   2.663616   2.190812   1.090283   5.210505
                   16         17         18         19         20
    16  H    0.000000
    17  H    2.466107   0.000000
    18  H    5.032374   2.992378   0.000000
    19  H    5.032088   2.992157   1.754358   0.000000
    20  H    6.929871   5.256716   2.385245   3.540522   0.000000
    21  H    7.461256   6.161151   3.610101   4.227494   1.781113
    22  H    8.845972   7.092653   4.368949   4.368539   2.958716
    23  H    7.884144   5.837262   3.110840   3.110236   2.504578
    24  H    6.928609   5.256059   3.541008   2.385253   3.903197
    25  H    7.460427   6.160754   4.227740   3.610147   3.733643
                   21         22         23         24         25
    21  H    0.000000
    22  H    2.492407   0.000000
    23  H    3.069667   1.772688   0.000000
    24  H    3.733649   2.958714   2.504571   0.000000
    25  H    2.758700   2.492400   3.069657   1.781113   0.000000
 Stoichiometry    C12H11BrO
 Framework group  C1[X(C12H11BrO)]
 Deg. of freedom    69
 Full point group                 C1      NOp   1
 Largest Abelian subgroup         C1      NOp   1
 Largest concise Abelian subgroup C1      NOp   1
                         Standard orientation:                         
 ---------------------------------------------------------------------
 Center     Atomic      Atomic             Coordinates (Angstroms)
 Number     Number       Type             X           Y           Z
 ---------------------------------------------------------------------
      1          8           0       -1.720941   -2.192944   -0.000132
      2          6           0       -1.611331   -0.993249   -0.001006
      3          6           0       -0.351364   -0.218033   -0.000468
      4          6           0        0.948663   -0.704047   -0.000275
      5          6           0        1.971272    0.222022   -0.000026
      6         35           0        3.772177   -0.366488    0.000154
      7          6           0        1.707982    1.591534    0.000054
      8          6           0        0.402866    2.053964   -0.000067
      9          6           0       -0.638049    1.136408   -0.000292
     10          6           0       -2.122149    1.393110   -0.000193
     11          6           0       -2.768880   -0.003648   -0.000180
     12          6           0       -3.867979   -0.244700   -1.070207
     13          6           0       -4.940841    0.028426    0.000781
     14          6           0       -3.867042   -0.245160    1.070709
     15          1           0        1.137236   -1.769394   -0.000418
     16          1           0        2.532610    2.291633    0.000259
     17          1           0        0.209725    3.119816    0.000093
     18          1           0       -2.412607    1.976191   -0.877301
     19          1           0       -2.412443    1.976061    0.877057
     20          1           0       -3.840998    0.396383   -1.951219
     21          1           0       -3.865614   -1.290240   -1.379328
     22          1           0       -5.825074   -0.606700    0.001027
     23          1           0       -5.256690    1.072396    0.001147
     24          1           0       -3.839300    0.395537    1.951978
     25          1           0       -3.864416   -1.290836    1.379372
 ---------------------------------------------------------------------
 Rotational constants (GHZ):           1.6890298           0.2228875           0.2033308
 Standard basis: def2TZVP (5D, 7F)
 There are   589 symmetry adapted cartesian basis functions of A   symmetry.
 There are   517 symmetry adapted basis functions of A   symmetry.
   517 basis functions,   865 primitive gaussians,   589 cartesian basis functions
    63 alpha electrons       63 beta electrons
       nuclear repulsion energy      1115.8831907815 Hartrees.
 NAtoms=   25 NActive=   25 NUniq=   25 SFac= 1.00D+00 NAtFMM=   60 NAOKFM=F Big=F
 Integral buffers will be    131072 words long.
 Raffenetti 2 integral format.
 Two-electron integral symmetry is turned on.
 Nuclear repulsion after empirical dispersion term =     1115.8650507607 Hartrees.
 One-electron integrals computed using PRISM.
   1 Symmetry operations used in ECPInt.
 ECPInt:  NShTT=   20706 NPrTT=   67180 LenC2=   19152 LenP2D=   45818.
 LDataN:  DoStor=T MaxTD1= 6 Len=  172
 NBasis=   517 RedAO= T EigKep=  6.06D-06  NBF=   517
 NBsUse=   517 1.00D-06 EigRej= -1.00D+00 NBFU=   517
 ExpMin= 9.52D-02 ExpMax= 5.65D+05 ExpMxC= 5.46D+03 IAcc=3 IRadAn=         5 AccDes= 0.00D+00
 Harris functional with IExCor= 4639 and IRadAn=       5 diagonalized for initial guess.
 HarFok:  IExCor= 4639 AccDes= 0.00D+00 IRadAn=         5 IDoV= 1 UseB2=F ITyADJ=14
 ICtDFT=  3500011 ScaDFX=  1.000000  1.000000  1.000000  1.000000
 FoFCou: FMM=F IPFlag=           0 FMFlag=      100000 FMFlg1=           0
         NFxFlg=           0 DoJE=T BraDBF=F KetDBF=T FulRan=T
         wScrn=  0.000000 ICntrl=       500 IOpCl=  0 I1Cent=   200000004 NGrid=           0
         NMat0=    1 NMatS0=      1 NMatT0=    0 NMatD0=    1 NMtDS0=    0 NMtDT0=    0
 Petite list used in FoFCou.
 Requested convergence on RMS density matrix=1.00D-08 within 128 cycles.
 Requested convergence on MAX density matrix=1.00D-06.
 Requested convergence on             energy=1.00D-06.
 No special actions if energy rises.
 Integral accuracy reduced to 1.0D-05 until final iterations.
 Initial convergence to 1.0D-05 achieved.  Increase integral accuracy.
 SCF Done:  E(RwB97XD) =  -3113.34379355     A.U. after   19 cycles
            NFock= 19  Conv=0.97D-08     -V/T= 2.0020

 **********************************************************************

            Population analysis using the SCF Density.

 **********************************************************************

 Orbital symmetries:
       Occupied  (A) (A) (A) (A) (A) (A) (A) (A) (A) (A) (A) (A)
                 (A) (A) (A) (A) (A) (A) (A) (A) (A) (A) (A) (A)
                 (A) (A) (A) (A) (A) (A) (A) (A) (A) (A) (A) (A)
                 (A) (A) (A) (A) (A) (A) (A) (A) (A) (A) (A) (A)
                 (A) (A) (A) (A) (A) (A) (A) (A) (A) (A) (A) (A)
                 (A) (A) (A)
       Virtual   (A) (A) (A) (A) (A) (A) (A) (A) (A) (A) (A) (A)
                 (A) (A) (A) (A) (A) (A) (A) (A) (A) (A) (A) (A)
                 (A) (A) (A) (A) (A) (A) (A) (A) (A) (A) (A) (A)
                 (A) (A) (A) (A) (A) (A) (A) (A) (A) (A) (A) (A)
                 (A) (A) (A) (A) (A) (A) (A) (A) (A) (A) (A) (A)
                 (A) (A) (A) (A) (A) (A) (A) (A) (A) (A) (A) (A)
                 (A) (A) (A) (A) (A) (A) (A) (A) (A) (A) (A) (A)
                 (A) (A) (A) (A) (A) (A) (A) (A) (A) (A) (A) (A)
                 (A) (A) (A) (A) (A) (A) (A) (A) (A) (A) (A) (A)
                 (A) (A) (A) (A) (A) (A) (A) (A) (A) (A) (A) (A)
                 (A) (A) (A) (A) (A) (A) (A) (A) (A) (A) (A) (A)
                 (A) (A) (A) (A) (A) (A) (A) (A) (A) (A) (A) (A)
                 (A) (A) (A) (A) (A) (A) (A) (A) (A) (A) (A) (A)
                 (A) (A) (A) (A) (A) (A) (A) (A) (A) (A) (A) (A)
                 (A) (A) (A) (A) (A) (A) (A) (A) (A) (A) (A) (A)
                 (A) (A) (A) (A) (A) (A) (A) (A) (A) (A) (A) (A)
                 (A) (A) (A) (A) (A) (A) (A) (A) (A) (A) (A) (A)
                 (A) (A) (A) (A) (A) (A) (A) (A) (A) (A) (A) (A)
                 (A) (A) (A) (A) (A) (A) (A) (A) (A) (A) (A) (A)
                 (A) (A) (A) (A) (A) (A) (A) (A) (A) (A) (A) (A)
                 (A) (A) (A) (A) (A) (A) (A) (A) (A) (A) (A) (A)
                 (A) (A) (A) (A) (A) (A) (A) (A) (A) (A) (A) (A)
                 (A) (A) (A) (A) (A) (A) (A) (A) (A) (A) (A) (A)
                 (A) (A) (A) (A) (A) (A) (A) (A) (A) (A) (A) (A)
                 (A) (A) (A) (A) (A) (A) (A) (A) (A) (A) (A) (A)
                 (A) (A) (A) (A) (A) (A) (A) (A) (A) (A) (A) (A)
                 (A) (A) (A) (A) (A) (A) (A) (A) (A) (A) (A) (A)
                 (A) (A) (A) (A) (A) (A) (A) (A) (A) (A) (A) (A)
                 (A) (A) (A) (A) (A) (A) (A) (A) (A) (A) (A) (A)
                 (A) (A) (A) (A) (A) (A) (A) (A) (A) (A) (A) (A)
                 (A) (A) (A) (A) (A) (A) (A) (A) (A) (A) (A) (A)
                 (A) (A) (A) (A) (A) (A) (A) (A) (A) (A) (A) (A)
                 (A) (A) (A) (A) (A) (A) (A) (A) (A) (A) (A) (A)
                 (A) (A) (A) (A) (A) (A) (A) (A) (A) (A) (A) (A)
                 (A) (A) (A) (A) (A) (A) (A) (A) (A) (A) (A) (A)
                 (A) (A) (A) (A) (A) (A) (A) (A) (A) (A) (A) (A)
                 (A) (A) (A) (A) (A) (A) (A) (A) (A) (A) (A) (A)
                 (A) (A) (A) (A) (A) (A) (A) (A) (A) (A)
 The electronic state is 1-A.
 Alpha  occ. eigenvalues -- -483.13405 -62.68246 -56.47364 -56.47006 -56.46998
 Alpha  occ. eigenvalues --  -19.24133 -10.37330 -10.35752 -10.31837 -10.31796
 Alpha  occ. eigenvalues --  -10.31463 -10.31132 -10.30824 -10.30471 -10.30456
 Alpha  occ. eigenvalues --  -10.29094 -10.29094 -10.28733  -8.82363  -6.64527
 Alpha  occ. eigenvalues --   -6.63377  -6.63350  -2.74920  -2.74579  -2.74560
 Alpha  occ. eigenvalues --   -2.73629  -2.73629  -1.15114  -1.00671  -0.97368
 Alpha  occ. eigenvalues --   -0.93257  -0.88787  -0.86934  -0.80387  -0.78420
 Alpha  occ. eigenvalues --   -0.76875  -0.73248  -0.69927  -0.66617  -0.62848
 Alpha  occ. eigenvalues --   -0.59399  -0.58791  -0.58324  -0.55738  -0.55565
 Alpha  occ. eigenvalues --   -0.54528  -0.53340  -0.50803  -0.49992  -0.48652
 Alpha  occ. eigenvalues --   -0.48475  -0.46693  -0.46627  -0.44225  -0.43417
 Alpha  occ. eigenvalues --   -0.42023  -0.40375  -0.40210  -0.39084  -0.37890
 Alpha  occ. eigenvalues --   -0.35621  -0.33424  -0.32650
 Alpha virt. eigenvalues --   -0.00600   0.03438   0.06922   0.09653   0.10248
 Alpha virt. eigenvalues --    0.12311   0.13647   0.14057   0.14903   0.14957
 Alpha virt. eigenvalues --    0.16264   0.17075   0.18225   0.18896   0.19731
 Alpha virt. eigenvalues --    0.20866   0.21122   0.22259   0.23117   0.23318
 Alpha virt. eigenvalues --    0.24658   0.25070   0.25359   0.26074   0.26919
 Alpha virt. eigenvalues --    0.27302   0.27369   0.28571   0.29041   0.29578
 Alpha virt. eigenvalues --    0.30295   0.30985   0.31141   0.32860   0.33121
 Alpha virt. eigenvalues --    0.33557   0.34473   0.35280   0.35633   0.36306
 Alpha virt. eigenvalues --    0.37120   0.38168   0.38340   0.39767   0.39952
 Alpha virt. eigenvalues --    0.41331   0.41920   0.42299   0.42612   0.43373
 Alpha virt. eigenvalues --    0.44200   0.44251   0.45082   0.45620   0.45724
 Alpha virt. eigenvalues --    0.47721   0.47983   0.48498   0.48804   0.50078
 Alpha virt. eigenvalues --    0.50616   0.50769   0.51342   0.51617   0.52094
 Alpha virt. eigenvalues --    0.52981   0.53100   0.53277   0.54946   0.55652
 Alpha virt. eigenvalues --    0.56430   0.56721   0.57122   0.57841   0.58414
 Alpha virt. eigenvalues --    0.59092   0.60811   0.62239   0.62400   0.63682
 Alpha virt. eigenvalues --    0.64919   0.65187   0.65438   0.67846   0.69159
 Alpha virt. eigenvalues --    0.69306   0.71527   0.72501   0.74168   0.74433
 Alpha virt. eigenvalues --    0.74754   0.75818   0.76414   0.78047   0.78554
 Alpha virt. eigenvalues --    0.79373   0.80213   0.83235   0.84861   0.84961
 Alpha virt. eigenvalues --    0.85316   0.87603   0.88743   0.89234   0.90240
 Alpha virt. eigenvalues --    0.90958   0.93306   0.94227   0.96180   0.97854
 Alpha virt. eigenvalues --    0.98119   0.99985   1.01000   1.01337   1.01764
 Alpha virt. eigenvalues --    1.01935   1.03916   1.05225   1.05649   1.06471
 Alpha virt. eigenvalues --    1.07458   1.07716   1.09867   1.10046   1.11550
 Alpha virt. eigenvalues --    1.12721   1.14284   1.15886   1.16041   1.16737
 Alpha virt. eigenvalues --    1.19126   1.19162   1.20727   1.21775   1.21831
 Alpha virt. eigenvalues --    1.23430   1.26325   1.26652   1.26900   1.27682
 Alpha virt. eigenvalues --    1.28115   1.28710   1.30277   1.30758   1.33988
 Alpha virt. eigenvalues --    1.34577   1.34626   1.37176   1.37775   1.39341
 Alpha virt. eigenvalues --    1.40268   1.43111   1.43632   1.43715   1.45355
 Alpha virt. eigenvalues --    1.45685   1.46359   1.46641   1.49784   1.51185
 Alpha virt. eigenvalues --    1.51653   1.51924   1.54684   1.54959   1.57107
 Alpha virt. eigenvalues --    1.57368   1.58856   1.60186   1.61640   1.62856
 Alpha virt. eigenvalues --    1.62869   1.63522   1.64026   1.65777   1.66043
 Alpha virt. eigenvalues --    1.68492   1.68664   1.69208   1.70289   1.71000
 Alpha virt. eigenvalues --    1.72482   1.72771   1.73619   1.75323   1.75849
 Alpha virt. eigenvalues --    1.77228   1.78369   1.79693   1.80400   1.80427
 Alpha virt. eigenvalues --    1.82102   1.83674   1.83730   1.85468   1.87192
 Alpha virt. eigenvalues --    1.87873   1.88461   1.88767   1.89843   1.92288
 Alpha virt. eigenvalues --    1.94733   1.95509   1.96555   1.97206   1.99125
 Alpha virt. eigenvalues --    1.99725   1.99921   2.02468   2.04254   2.04849
 Alpha virt. eigenvalues --    2.07074   2.09061   2.11147   2.12112   2.14860
 Alpha virt. eigenvalues --    2.14969   2.16279   2.20826   2.21882   2.22771
 Alpha virt. eigenvalues --    2.23149   2.24533   2.25519   2.27743   2.28826
 Alpha virt. eigenvalues --    2.29543   2.29708   2.35850   2.37533   2.37687
 Alpha virt. eigenvalues --    2.39445   2.40951   2.41870   2.43406   2.45172
 Alpha virt. eigenvalues --    2.45307   2.48946   2.50265   2.50297   2.50559
 Alpha virt. eigenvalues --    2.54040   2.56727   2.57265   2.57714   2.58700
 Alpha virt. eigenvalues --    2.60670   2.61923   2.63401   2.64779   2.66761
 Alpha virt. eigenvalues --    2.67149   2.67637   2.69374   2.70377   2.71080
 Alpha virt. eigenvalues --    2.71150   2.71869   2.73565   2.74505   2.74980
 Alpha virt. eigenvalues --    2.76657   2.78271   2.78703   2.79734   2.81260
 Alpha virt. eigenvalues --    2.81499   2.83064   2.84884   2.85131   2.87271
 Alpha virt. eigenvalues --    2.87284   2.88227   2.88710   2.91042   2.92434
 Alpha virt. eigenvalues --    2.92715   2.94150   2.95041   2.96219   2.97907
 Alpha virt. eigenvalues --    2.98389   3.00830   3.01351   3.03259   3.03550
 Alpha virt. eigenvalues --    3.04002   3.07324   3.08095   3.08426   3.09003
 Alpha virt. eigenvalues --    3.09981   3.10324   3.12982   3.13006   3.15390
 Alpha virt. eigenvalues --    3.15906   3.16756   3.19599   3.22224   3.22808
 Alpha virt. eigenvalues --    3.22953   3.23936   3.24573   3.25654   3.26007
 Alpha virt. eigenvalues --    3.27804   3.29049   3.29461   3.30826   3.33131
 Alpha virt. eigenvalues --    3.33691   3.33961   3.34924   3.35884   3.37296
 Alpha virt. eigenvalues --    3.38697   3.39323   3.41130   3.41344   3.42165
 Alpha virt. eigenvalues --    3.43927   3.45571   3.45795   3.46356   3.46685
 Alpha virt. eigenvalues --    3.50083   3.50903   3.51410   3.52148   3.53326
 Alpha virt. eigenvalues --    3.54086   3.54762   3.56211   3.57495   3.58535
 Alpha virt. eigenvalues --    3.61556   3.62324   3.64134   3.64820   3.65191
 Alpha virt. eigenvalues --    3.66008   3.66462   3.71143   3.71173   3.72138
 Alpha virt. eigenvalues --    3.75383   3.76853   3.77389   3.79745   3.82657
 Alpha virt. eigenvalues --    3.84236   3.84748   3.86346   3.87509   3.89306
 Alpha virt. eigenvalues --    3.90927   3.93047   3.93190   3.94365   3.97379
 Alpha virt. eigenvalues --    3.98056   3.99259   4.05758   4.09240   4.09363
 Alpha virt. eigenvalues --    4.10188   4.10338   4.12658   4.14209   4.14788
 Alpha virt. eigenvalues --    4.15646   4.16605   4.19529   4.20288   4.21221
 Alpha virt. eigenvalues --    4.22505   4.25763   4.25898   4.26826   4.28984
 Alpha virt. eigenvalues --    4.30658   4.31399   4.31905   4.32966   4.34630
 Alpha virt. eigenvalues --    4.36903   4.39251   4.39945   4.41739   4.42818
 Alpha virt. eigenvalues --    4.43756   4.45072   4.46607   4.51910   4.52262
 Alpha virt. eigenvalues --    4.54795   4.57068   4.58743   4.59157   4.62432
 Alpha virt. eigenvalues --    4.63704   4.68293   4.69531   4.72087   4.76467
 Alpha virt. eigenvalues --    4.79578   4.80322   4.82963   4.83406   4.86500
 Alpha virt. eigenvalues --    4.91449   4.94338   4.95348   4.99919   5.02313
 Alpha virt. eigenvalues --    5.04774   5.09367   5.14474   5.17221   5.24673
 Alpha virt. eigenvalues --    5.25974   5.29740   5.29974   5.36271   5.39816
 Alpha virt. eigenvalues --    5.42789   5.52414   5.58809   5.65386   5.73450
 Alpha virt. eigenvalues --    5.81816   5.93673   6.28897   6.49507   6.58821
 Alpha virt. eigenvalues --    6.72036   6.85643   6.92505   7.19192   7.23257
 Alpha virt. eigenvalues --    7.85865  22.21484  22.50580  22.61202  22.68114
 Alpha virt. eigenvalues --   22.70536  22.78766  22.84888  22.90628  23.05412
 Alpha virt. eigenvalues --   23.10490  23.58682  23.74526  44.13371
          Condensed to atoms (all electrons):
               1          2          3          4          5          6
     1  O    7.821506   0.693844  -0.175426   0.046983   0.002273   0.000031
     2  C    0.693844   5.071735  -0.087692  -0.038867   0.004395  -0.001087
     3  C   -0.175426  -0.087692   5.908852   0.140444   0.047308   0.016001
     4  C    0.046983  -0.038867   0.140444   5.509396   0.319408  -0.089700
     5  C    0.002273   0.004395   0.047308   0.319408   4.932697   0.373425
     6  Br   0.000031  -0.001087   0.016001  -0.089700   0.373425  34.833731
     7  C    0.000314   0.001202  -0.119297   0.057333   0.321020  -0.084165
     8  C   -0.000028   0.010372   0.011339  -0.096148   0.097134   0.019752
     9  C    0.001677  -0.013539   0.461147  -0.097935  -0.097776  -0.002727
    10  C    0.008388  -0.076654  -0.077797  -0.002521  -0.003361  -0.000013
    11  C   -0.102874   0.296137  -0.167645   0.064673  -0.002398   0.000016
    12  C    0.001355  -0.019726   0.027292  -0.002433   0.000159  -0.000000
    13  C   -0.003200   0.012922  -0.008279   0.000551  -0.000023   0.000000
    14  C    0.001356  -0.019904   0.027320  -0.002428   0.000160  -0.000000
    15  H    0.009975   0.001954  -0.062013   0.449520  -0.062116  -0.003904
    16  H   -0.000001   0.000148  -0.004733   0.017999  -0.070454  -0.003273
    17  H    0.000006   0.000718   0.017729  -0.003648   0.009939  -0.000245
    18  H   -0.000203   0.003897  -0.000674   0.000653   0.000075  -0.000000
    19  H   -0.000202   0.004016  -0.000778   0.000650   0.000076  -0.000000
    20  H    0.000371  -0.001635   0.003138   0.000056  -0.000003   0.000000
    21  H    0.011945  -0.013212   0.002654  -0.000634  -0.000017  -0.000000
    22  H    0.000212   0.000227   0.000328  -0.000006   0.000000  -0.000000
    23  H   -0.000023  -0.000982  -0.000390  -0.000004   0.000001   0.000000
    24  H    0.000372  -0.001584   0.003132   0.000055  -0.000003   0.000000
    25  H    0.011968  -0.013249   0.002639  -0.000634  -0.000017  -0.000000
               7          8          9         10         11         12
     1  O    0.000314  -0.000028   0.001677   0.008388  -0.102874   0.001355
     2  C    0.001202   0.010372  -0.013539  -0.076654   0.296137  -0.019726
     3  C   -0.119297   0.011339   0.461147  -0.077797  -0.167645   0.027292
     4  C    0.057333  -0.096148  -0.097935  -0.002521   0.064673  -0.002433
     5  C    0.321020   0.097134  -0.097776  -0.003361  -0.002398   0.000159
     6  Br  -0.084165   0.019752  -0.002727  -0.000013   0.000016  -0.000000
     7  C    5.114814   0.339464   0.053801   0.009228   0.001516   0.000002
     8  C    0.339464   5.214075   0.335611  -0.090780  -0.001687  -0.000223
     9  C    0.053801   0.335611   5.185411   0.373072  -0.091221  -0.011744
    10  C    0.009228  -0.090780   0.373072   5.050801   0.283411   0.009531
    11  C    0.001516  -0.001687  -0.091221   0.283411   5.219236   0.243783
    12  C    0.000002  -0.000223  -0.011744   0.009531   0.243783   5.005950
    13  C    0.000007  -0.000100   0.002590   0.000589  -0.096521   0.325624
    14  C    0.000002  -0.000221  -0.011791   0.009520   0.244033  -0.088740
    15  H    0.015278  -0.004512   0.009886  -0.000937   0.002741  -0.000124
    16  H    0.458593  -0.066914   0.014944  -0.000077   0.000023  -0.000001
    17  H   -0.060512   0.461658  -0.068816  -0.008490   0.000433  -0.000082
    18  H   -0.000366   0.001176  -0.016702   0.363802  -0.014936  -0.004961
    19  H   -0.000363   0.001196  -0.016717   0.364005  -0.015120  -0.000951
    20  H   -0.000002  -0.000205  -0.003590  -0.004238  -0.044468   0.416266
    21  H    0.000003   0.000078   0.001158   0.005437  -0.016500   0.388724
    22  H    0.000000  -0.000003  -0.000116  -0.000319   0.003942  -0.019154
    23  H   -0.000002   0.000046   0.001709  -0.002860   0.012014  -0.031163
    24  H   -0.000002  -0.000205  -0.003589  -0.004206  -0.044562   0.019157
    25  H    0.000003   0.000078   0.001161   0.005434  -0.016394  -0.003319
              13         14         15         16         17         18
     1  O   -0.003200   0.001356   0.009975  -0.000001   0.000006  -0.000203
     2  C    0.012922  -0.019904   0.001954   0.000148   0.000718   0.003897
     3  C   -0.008279   0.027320  -0.062013  -0.004733   0.017729  -0.000674
     4  C    0.000551  -0.002428   0.449520   0.017999  -0.003648   0.000653
     5  C   -0.000023   0.000160  -0.062116  -0.070454   0.009939   0.000075
     6  Br   0.000000  -0.000000  -0.003904  -0.003273  -0.000245  -0.000000
     7  C    0.000007   0.000002   0.015278   0.458593  -0.060512  -0.000366
     8  C   -0.000100  -0.000221  -0.004512  -0.066914   0.461658   0.001176
     9  C    0.002590  -0.011791   0.009886   0.014944  -0.068816  -0.016702
    10  C    0.000589   0.009520  -0.000937  -0.000077  -0.008490   0.363802
    11  C   -0.096521   0.244033   0.002741   0.000023   0.000433  -0.014936
    12  C    0.325624  -0.088740  -0.000124  -0.000001  -0.000082  -0.004961
    13  C    4.901477   0.325712   0.000016   0.000000   0.000008  -0.000439
    14  C    0.325712   5.005753  -0.000124  -0.000001  -0.000082  -0.000951
    15  H    0.000016  -0.000124   0.487167   0.000107   0.000040   0.000035
    16  H    0.000000  -0.000001   0.000107   0.518606  -0.007058  -0.000010
    17  H    0.000008  -0.000082   0.000040  -0.007058   0.536200   0.001502
    18  H   -0.000439  -0.000951   0.000035  -0.000010   0.001502   0.572474
    19  H   -0.000451  -0.004939   0.000035  -0.000010   0.001498  -0.024472
    20  H   -0.038008   0.019145  -0.000000  -0.000000  -0.000001   0.001760
    21  H   -0.020082  -0.003310  -0.000029   0.000000  -0.000002   0.000386
    22  H    0.402166  -0.019164  -0.000000  -0.000000  -0.000000  -0.000046
    23  H    0.404793  -0.031161  -0.000000  -0.000000   0.000003  -0.000057
    24  H   -0.038044   0.416313  -0.000000  -0.000000  -0.000001   0.000301
    25  H   -0.020076   0.388664  -0.000029   0.000000  -0.000002  -0.000428
              19         20         21         22         23         24
     1  O   -0.000202   0.000371   0.011945   0.000212  -0.000023   0.000372
     2  C    0.004016  -0.001635  -0.013212   0.000227  -0.000982  -0.001584
     3  C   -0.000778   0.003138   0.002654   0.000328  -0.000390   0.003132
     4  C    0.000650   0.000056  -0.000634  -0.000006  -0.000004   0.000055
     5  C    0.000076  -0.000003  -0.000017   0.000000   0.000001  -0.000003
     6  Br  -0.000000   0.000000  -0.000000  -0.000000   0.000000   0.000000
     7  C   -0.000363  -0.000002   0.000003   0.000000  -0.000002  -0.000002
     8  C    0.001196  -0.000205   0.000078  -0.000003   0.000046  -0.000205
     9  C   -0.016717  -0.003590   0.001158  -0.000116   0.001709  -0.003589
    10  C    0.364005  -0.004238   0.005437  -0.000319  -0.002860  -0.004206
    11  C   -0.015120  -0.044468  -0.016500   0.003942   0.012014  -0.044562
    12  C   -0.000951   0.416266   0.388724  -0.019154  -0.031163   0.019157
    13  C   -0.000451  -0.038008  -0.020082   0.402166   0.404793  -0.038044
    14  C   -0.004939   0.019145  -0.003310  -0.019164  -0.031161   0.416313
    15  H    0.000035  -0.000000  -0.000029  -0.000000  -0.000000  -0.000000
    16  H   -0.000010  -0.000000   0.000000  -0.000000  -0.000000  -0.000000
    17  H    0.001498  -0.000001  -0.000002  -0.000000   0.000003  -0.000001
    18  H   -0.024472   0.001760   0.000386  -0.000046  -0.000057   0.000301
    19  H    0.572406   0.000302  -0.000429  -0.000046  -0.000056   0.001749
    20  H    0.000302   0.577915  -0.019990   0.002096  -0.007264  -0.000701
    21  H   -0.000429  -0.019990   0.544732  -0.007493   0.003966  -0.000686
    22  H   -0.000046   0.002096  -0.007493   0.568832  -0.023684   0.002097
    23  H   -0.000056  -0.007264   0.003966  -0.023684   0.584634  -0.007263
    24  H    0.001749  -0.000701  -0.000686   0.002097  -0.007263   0.577897
    25  H    0.000386  -0.000687   0.003089  -0.007493   0.003965  -0.019985
              25
     1  O    0.011968
     2  C   -0.013249
     3  C    0.002639
     4  C   -0.000634
     5  C   -0.000017
     6  Br  -0.000000
     7  C    0.000003
     8  C    0.000078
     9  C    0.001161
    10  C    0.005434
    11  C   -0.016394
    12  C   -0.003319
    13  C   -0.020076
    14  C    0.388664
    15  H   -0.000029
    16  H    0.000000
    17  H   -0.000002
    18  H   -0.000428
    19  H    0.000386
    20  H   -0.000687
    21  H    0.003089
    22  H   -0.007493
    23  H    0.003965
    24  H   -0.019985
    25  H    0.544710
 Mulliken charges:
               1
     1  O   -0.330621
     2  C    0.186564
     3  C    0.035402
     4  C   -0.272762
     5  C    0.128100
     6  Br  -0.057839
     7  C   -0.107871
     8  C   -0.230952
     9  C   -0.005902
    10  C   -0.210965
    11  C    0.242368
    12  C   -0.255223
    13  C   -0.151232
    14  C   -0.255158
    15  H    0.157035
    16  H    0.142114
    17  H    0.119205
    18  H    0.118185
    19  H    0.118218
    20  H    0.099743
    21  H    0.120211
    22  H    0.097628
    23  H    0.093779
    24  H    0.099759
    25  H    0.120216
 Sum of Mulliken charges =  -0.00000
 Mulliken charges with hydrogens summed into heavy atoms:
               1
     1  O   -0.330621
     2  C    0.186564
     3  C    0.035402
     4  C   -0.115727
     5  C    0.128100
     6  Br  -0.057839
     7  C    0.034243
     8  C   -0.111747
     9  C   -0.005902
    10  C    0.025437
    11  C    0.242368
    12  C   -0.035269
    13  C    0.040174
    14  C   -0.035182
 Electronic spatial extent (au):  <R**2>=           4844.4690
 Charge=             -0.0000 electrons
 Dipole moment (field-independent basis, Debye):
    X=             -1.5367    Y=              3.7402    Z=             -0.0004  Tot=              4.0436
 Quadrupole moment (field-independent basis, Debye-Ang):
   XX=            -91.5890   YY=            -94.5775   ZZ=            -94.9609
   XY=             -4.0948   XZ=              0.0005   YZ=              0.0017
 Traceless Quadrupole moment (field-independent basis, Debye-Ang):
   XX=              2.1201   YY=             -0.8684   ZZ=             -1.2518
   XY=             -4.0948   XZ=              0.0005   YZ=              0.0017
 Octapole moment (field-independent basis, Debye-Ang**2):
  XXX=             85.6809  YYY=             13.2445  ZZZ=              0.0068  XYY=             51.7070
  XXY=              2.0192  XXZ=              0.0057  XZZ=             30.6403  YZZ=             -7.8943
  YYZ=              0.0040  XYZ=              0.0011
 Hexadecapole moment (field-independent basis, Debye-Ang**3):
 XXXX=          -4669.8547 YYYY=           -765.2610 ZZZZ=           -233.2438 XXXY=            -30.3166
 XXXZ=              0.0101 YYYX=            -58.3064 YYYZ=              0.0016 ZZZX=              0.0180
 ZZZY=              0.0009 XXYY=           -907.8240 XXZZ=           -840.0128 YYZZ=           -168.3009
 XXYZ=             -0.0009 YYXZ=              0.0062 ZZXY=            -15.0005
 N-N= 1.115865050761D+03 E-N=-9.637404814718D+03  KE= 3.107140529235D+03
 There are a total of      575672 grid points.
 ElSum from          density=      126.0000185263
 ElSum from atomic densities=      126.0000565225

 Hirshfeld populations at iteration   1 (CX, CA, CB, DipXYZ):
               1          2          3          4          5          6
     1  O    0.000000   4.127762   4.127762   0.001079   0.118947   0.000047
     2  C    0.000000   2.924089   2.924089  -0.001964   0.028725  -0.000413
     3  C    0.000000   3.011305   3.011305  -0.018780  -0.049775   0.000029
     4  C    0.000000   3.013183   3.013183  -0.017313  -0.063917   0.000019
     5  C    0.000000   2.998092   2.998092   0.053085  -0.011298   0.000012
     6  Br   0.000000  17.518792  17.518792  -0.050741   0.006270  -0.000007
     7  C    0.000000   3.016160   3.016160   0.029869   0.044614   0.000007
     8  C    0.000000   3.018700   3.018700  -0.022766   0.062152   0.000002
     9  C    0.000000   2.994075   2.994075  -0.055255   0.045677   0.000015
    10  C    0.000000   3.025586   3.025586  -0.000654  -0.000278  -0.000003
    11  C    0.000000   2.998255   2.998255   0.019353   0.011152   0.000024
    12  C    0.000000   3.024974   3.024974  -0.012149   0.004154  -0.020316
    13  C    0.000000   3.027134   3.027134  -0.021794  -0.011797   0.000011
    14  C    0.000000   3.024962   3.024962  -0.012122   0.004160   0.020334
    15  H    0.000000   0.471021   0.471021   0.021044  -0.156241  -0.000022
    16  H    0.000000   0.474561   0.474561   0.106356   0.120326   0.000031
    17  H    0.000000   0.474730   0.474730  -0.027210   0.158566   0.000025
    18  H    0.000000   0.479502   0.479502  -0.038504   0.081275  -0.116234
    19  H    0.000000   0.479500   0.479500  -0.038486   0.081261   0.116254
    20  H    0.000000   0.484254   0.484254  -0.000742   0.081145  -0.116915
    21  H    0.000000   0.480779   0.480779  -0.015893  -0.132853  -0.049298
    22  H    0.000000   0.483285   0.483285  -0.115353  -0.089776   0.000029
    23  H    0.000000   0.484281   0.484281  -0.043576   0.137442   0.000050
    24  H    0.000000   0.484249   0.484249  -0.000643   0.081092   0.116959
    25  H    0.000000   0.480777   0.480777  -0.015874  -0.132860   0.049263
       Tot   0.000000  63.000009  63.000009  -0.279032   0.418163  -0.000097

 Dip from Atomic Chgs             -0.325515   1.053320  -0.000066
         Total Dipole             -0.604547   1.471483  -0.000163

 Hirshfeld charges, spin densities, dipoles, and CM5 charges using IRadAn=      5:
              Q-H        S-H        Dx         Dy         Dz        Q-CM5   
     1  O   -0.255523   0.000000   0.001079   0.118947   0.000047  -0.303862
     2  C    0.151823   0.000000  -0.001964   0.028725  -0.000413   0.185250
     3  C   -0.022609   0.000000  -0.018780  -0.049775   0.000029  -0.025206
     4  C   -0.026367   0.000000  -0.017313  -0.063917   0.000019  -0.076329
     5  C    0.003815   0.000000   0.053085  -0.011298   0.000012  -0.017416
     6  Br  -0.037583   0.000000  -0.050741   0.006270  -0.000007  -0.022547
     7  C   -0.032321   0.000000   0.029869   0.044614   0.000007  -0.086181
     8  C   -0.037399   0.000000  -0.022766   0.062152   0.000002  -0.090578
     9  C    0.011849   0.000000  -0.055255   0.045677   0.000015   0.001134
    10  C   -0.051172   0.000000  -0.000654  -0.000278  -0.000003  -0.148595
    11  C    0.003489   0.000000   0.019353   0.011152   0.000024  -0.013825
    12  C   -0.049947   0.000000  -0.012149   0.004154  -0.020316  -0.153386
    13  C   -0.054267   0.000000  -0.021794  -0.011797   0.000011  -0.161664
    14  C   -0.049925   0.000000  -0.012122   0.004160   0.020334  -0.153362
    15  H    0.057957   0.000000   0.021044  -0.156241  -0.000022   0.116879
    16  H    0.050877   0.000000   0.106356   0.120326   0.000031   0.108122
    17  H    0.050540   0.000000  -0.027210   0.158566   0.000025   0.107039
    18  H    0.040995   0.000000  -0.038504   0.081275  -0.116234   0.097548
    19  H    0.041001   0.000000  -0.038486   0.081261   0.116254   0.097555
    20  H    0.031492   0.000000  -0.000742   0.081145  -0.116915   0.085979
    21  H    0.038441   0.000000  -0.015893  -0.132853  -0.049298   0.096909
    22  H    0.033431   0.000000  -0.115353  -0.089776   0.000029   0.087041
    23  H    0.031439   0.000000  -0.043576   0.137442   0.000050   0.086569
    24  H    0.031501   0.000000  -0.000643   0.081092   0.116959   0.085989
    25  H    0.038446   0.000000  -0.015874  -0.132860   0.049263   0.096919
       Tot  -0.000019   0.000000  -0.279032   0.418163  -0.000097  -0.000019
 Hirshfeld charges with hydrogens summed into heavy atoms:
              Q-H       Q-CM5   
     1  O   -0.255523  -0.303862
     2  C    0.151823   0.185250
     3  C   -0.022609  -0.025206
     4  C    0.031590   0.040550
     5  C    0.003815  -0.017416
     6  Br  -0.037583  -0.022547
     7  C    0.018556   0.021941
     8  C    0.013140   0.016461
     9  C    0.011849   0.001134
    10  C    0.030824   0.046508
    11  C    0.003489  -0.013825
    12  C    0.019986   0.029503
    13  C    0.010602   0.011946
    14  C    0.020022   0.029545
 
 EQQ= 0.000000000000E+00 EQD= 0.000000000000E+00 EDD= 0.549567536450E-02
 EQQ+QD+DD= 0.549567536450E-02
 
 Running external command "gaunbo6 R"
         input file       "/home/rpaton/opt/tzvp/popn/Gau-2183374.EIn"
         output file      "/home/rpaton/opt/tzvp/popn/Gau-2183374.EOu"
         message file     "/home/rpaton/opt/tzvp/popn/Gau-2183374.EMs"
         fchk file        "/home/rpaton/opt/tzvp/popn/Gau-2183374.EFC"
         mat. el file     "/home/rpaton/opt/tzvp/popn/Gau-2183374.EUF"

 Writing WrtUnf unformatted file "/home/rpaton/opt/tzvp/popn/Gau-2183374.EUF"
 Gaussian matrix elements                                         Version   2 NLab=11 Len12L=8 Len4L=8
 Write SHELL TO ATOM MAP                   from file      0 offset           0 length                 203 to matrix element file.
 Write SHELL TYPES                         from file      0 offset           0 length                 203 to matrix element file.
 Write NUMBER OF PRIMITIVES PER SHELL      from file      0 offset           0 length                 203 to matrix element file.
 Write PRIMITIVE EXPONENTS                 from file      0 offset           0 length                 365 to matrix element file.
 Write CONTRACTION COEFFICIENTS            from file      0 offset           0 length                 365 to matrix element file.
 Write P(S=P) CONTRACTION COEFFICIENTS     from file      0 offset           0 length                 365 to matrix element file.
 Write COORDINATES OF EACH SHELL           from file      0 offset           0 length                 609 to matrix element file.
 Write BONDS PER ATOM                      from file      0 offset           0 length                  25 to matrix element file.
 Write BONDED ATOMS                        from file      0 offset           0 length                  54 to matrix element file.
 Write BOND TYPES                          from file      0 offset           0 length                  54 to matrix element file.
 Write ONIOM CHARGE/MULT                   from file      0 offset           0 length                  32 to matrix element file.
 Write ONIOM ATOM LAYERS                   from file      0 offset           0 length                  25 to matrix element file.
 Write ONIOM ATOM MODIFIERS                from file      0 offset           0 length                  25 to matrix element file.
 Write ONIOM ATOM TYPES                    from file      0 offset           0 length                  25 to matrix element file.
 Write ONIOM LINK ATOMS                    from file      0 offset           0 length                  25 to matrix element file.
 Write ONIOM LINK CHARGES                  from file      0 offset           0 length                  25 to matrix element file.
 Write ONIOM LINK DISTANCES                from file      0 offset           0 length                 100 to matrix element file.
 Write SYMINF INTS                         from file      0 offset           0 length                  26 to matrix element file.
 Write ROTTR TO SO                         from file      0 offset           0 length                  12 to matrix element file.
 Write GAUSSIAN SCALARS                    from file    501 offset           0 to matrix element file.
 Write OPTIMIZATION FLAGS                  from file      0 offset           0 length                  25 to matrix element file.
 Write INTEGER ISO                         from file      0 offset           0 length                  25 to matrix element file.
 Write INTEGER SPIN                        from file      0 offset           0 length                  25 to matrix element file.
 Write REAL ZEFFECTIVE                     from file      0 offset           0 length                  25 to matrix element file.
 Write REAL QUADRUPOLEMOMENT               from file      0 offset           0 length                  25 to matrix element file.
 Write REAL GFACTOR                        from file      0 offset           0 length                  25 to matrix element file.
 Write REAL ZNUCLEAR                       from file      0 offset           0 length                  25 to matrix element file.
 Write MULLIKEN CHARGES                    from file      0 offset           0 length                  25 to matrix element file.
 Write TYPE 6 CHARGES                      from file      0 offset           0 length                  25 to matrix element file.
 Write TYPE 7 CHARGES                      from file      0 offset           0 length                  25 to matrix element file.
 Write NUCLEAR GRADIENT                    from file  10584 offset           0 length                  75 to matrix element file.
 Array NUCLEAR FORCE CONSTANTS              on  file  10585 does not exist.
 Write ELECTRIC DIPOLE MOMENT              from file      0 offset           0 length                   3 to matrix element file.
 Write NON-ADIABATIC COUPLING              from file  10810 offset           0 length                  75 to matrix element file.
 Write FINITE EM FIELD                     from file  10521 offset           0 length                  35 to matrix element file.
 Write OVERLAP                             from file  10514 offset           0 length              133903 to matrix element file.
 Write CORE HAMILTONIAN ALPHA              from file  10515 offset           0 length              133903 to matrix element file.
 Write CORE HAMILTONIAN BETA               from file  10515 offset      133903 length              133903 to matrix element file.
 Write KINETIC ENERGY                      from file  10516 offset           0 length              133903 to matrix element file.
 Write ORTHOGONAL BASIS                    from file  10685 offset           0 length              267289 to matrix element file.
 Write DIPOLE INTEGRALS                    from file  10518 offset           0 length              401709 to matrix element file.
 Array DIP VEL INTEGRALS                    on  file  10572 does not exist.
 Array R X DEL INTEGRALS                    on  file  10572 does not exist.
 Write ALPHA ORBITAL ENERGIES              from file      0 offset           0 length                 517 to matrix element file.
 Write ALPHA MO COEFFICIENTS               from file  10524 offset           0 length              267289 to matrix element file.
 Write ALPHA DENSITY MATRIX                from file      0 offset           0 length              133903 to matrix element file.
 Write ALPHA FOCK MATRIX                   from file  10536 offset           0 length              133903 to matrix element file.
 Write ENERGY-WEIGHTED DENSITY             from file  10571 offset           0 length              133903 to matrix element file.
 Write ALPHA SCF DENSITY MATRIX            from file      0 offset           0 length              133903 to matrix element file.
 Write INTEGER PARAMETERS                  from file      0 offset           0 length                   2 to matrix element file.
 No 2e integrals to process.
 Perform NBO analysis...

 *********************************** NBO 7.0 ***********************************
             N A T U R A L   A T O M I C   O R B I T A L   A N D
          N A T U R A L   B O N D   O R B I T A L   A N A L Y S I S
 **************************** Robert Paton (I101709) ***************************
  (c) Copyright 1996-2019 Board of Regents of the University of Wisconsin System
      on behalf of the Theoretical Chemistry Institute.  All rights reserved.

          Cite this program [NBO 7.0.5 (4-Jun-2019)] as:

          NBO 7.0.  E. D. Glendening, J. K. Badenhoop, A. E. Reed,
          J. E. Carpenter, J. A. Bohmann, C. M. Morales, P. Karafiloglou,
          C. R. Landis, and F. Weinhold, Theoretical Chemistry Institute,
          University of Wisconsin, Madison, WI (2018)

       /AONBO  / : Checkpoint the AO to NBO transformation
                   NBOs sorted by occupancy
       /BNDIDX / : Print bond indices based on the NAO density matrix

 Filename set to /home/rpaton/opt/tzvp/popn/Gau-2183374

 Job title:  arbr39_wb97xd_popncreated by GaussianPrep


 NATURAL POPULATIONS:  Natural atomic orbital occupancies

  NAO Atom No lang   Type(AO)    Occupancy      Energy
 -------------------------------------------------------
   1    O  1  s      Cor( 1s)     1.99999     -19.24102
   2    O  1  s      Val( 2s)     1.68806      -0.73166
   3    O  1  s      Ryd( 3s)     0.00028       1.29931
   4    O  1  s      Ryd( 4s)     0.00002       7.14334
   5    O  1  s      Ryd( 5s)     0.00000      39.75438
   6    O  1  px     Val( 2p)     1.86132      -0.33801
   7    O  1  px     Ryd( 3p)     0.00326       0.82956
   8    O  1  px     Ryd( 4p)     0.00004       3.39801
   9    O  1  py     Val( 2p)     1.57543      -0.32524
  10    O  1  py     Ryd( 3p)     0.00066       0.66723
  11    O  1  py     Ryd( 4p)     0.00018       4.03749
  12    O  1  pz     Val( 2p)     1.38396      -0.28377
  13    O  1  pz     Ryd( 3p)     0.00085       0.73336
  14    O  1  pz     Ryd( 4p)     0.00000       3.03278
  15    O  1  dxy    Ryd( 3d)     0.00406       2.19117
  16    O  1  dxy    Ryd( 4d)     0.00005       6.89913
  17    O  1  dxz    Ryd( 3d)     0.00012       1.71260
  18    O  1  dxz    Ryd( 4d)     0.00000       6.41898
  19    O  1  dyz    Ryd( 3d)     0.00498       1.96053
  20    O  1  dyz    Ryd( 4d)     0.00001       6.66452
  21    O  1  dx2y2  Ryd( 3d)     0.00682       2.25045
  22    O  1  dx2y2  Ryd( 4d)     0.00000       6.82455
  23    O  1  dz2    Ryd( 3d)     0.00221       1.92004
  24    O  1  dz2    Ryd( 4d)     0.00000       6.67533
  25    O  1  f(0)   Ryd( 4f)     0.00004       5.55715
  26    O  1  f(c1)  Ryd( 4f)     0.00000       5.32529
  27    O  1  f(s1)  Ryd( 4f)     0.00003       5.99955
  28    O  1  f(c2)  Ryd( 4f)     0.00013       5.75039
  29    O  1  f(s2)  Ryd( 4f)     0.00001       5.57917
  30    O  1  f(c3)  Ryd( 4f)     0.00016       6.28200
  31    O  1  f(s3)  Ryd( 4f)     0.00010       6.18575

  32    C  2  s      Cor( 1s)     1.99999     -10.37316
  33    C  2  s      Val( 2s)     0.87138      -0.11009
  34    C  2  s      Ryd( 3s)     0.00678       2.60103
  35    C  2  s      Ryd( 4s)     0.00019       5.15654
  36    C  2  s      Ryd( 5s)     0.00000      14.56569
  37    C  2  px     Val( 2p)     0.96757      -0.02215
  38    C  2  px     Ryd( 3p)     0.00276       1.52071
  39    C  2  px     Ryd( 4p)     0.00014       1.53279
  40    C  2  py     Val( 2p)     0.82167       0.05305
  41    C  2  py     Ryd( 3p)     0.01363       1.41158
  42    C  2  py     Ryd( 4p)     0.00030       1.66170
  43    C  2  pz     Val( 2p)     0.72205      -0.09257
  44    C  2  pz     Ryd( 4p)     0.00052       1.09043
  45    C  2  pz     Ryd( 3p)     0.00006       1.02057
  46    C  2  dxy    Ryd( 4d)     0.00203       4.06347
  47    C  2  dxy    Ryd( 3d)     0.00051       2.96144
  48    C  2  dxz    Ryd( 4d)     0.00038       2.97900
  49    C  2  dxz    Ryd( 3d)     0.00011       2.02137
  50    C  2  dyz    Ryd( 4d)     0.00130       3.23446
  51    C  2  dyz    Ryd( 3d)     0.00019       2.12814
  52    C  2  dx2y2  Ryd( 4d)     0.00067       3.84205
  53    C  2  dx2y2  Ryd( 3d)     0.00069       3.61866
  54    C  2  dz2    Ryd( 4d)     0.00033       3.84853
  55    C  2  dz2    Ryd( 3d)     0.00022       2.79297
  56    C  2  f(0)   Ryd( 4f)     0.00020       3.44590
  57    C  2  f(c1)  Ryd( 4f)     0.00017       3.37600
  58    C  2  f(s1)  Ryd( 4f)     0.00022       3.51963
  59    C  2  f(c2)  Ryd( 4f)     0.00004       3.46781
  60    C  2  f(s2)  Ryd( 4f)     0.00001       3.47199
  61    C  2  f(c3)  Ryd( 4f)     0.00014       4.18120
  62    C  2  f(s3)  Ryd( 4f)     0.00043       3.92095

  63    C  3  s      Cor( 1s)     1.99999     -10.30443
  64    C  3  s      Val( 2s)     0.93748      -0.10847
  65    C  3  s      Ryd( 3s)     0.00130       1.87502
  66    C  3  s      Ryd( 4s)     0.00018       2.18782
  67    C  3  s      Ryd( 5s)     0.00000      20.54223
  68    C  3  px     Val( 2p)     1.08982      -0.03968
  69    C  3  px     Ryd( 3p)     0.00373       1.39731
  70    C  3  px     Ryd( 4p)     0.00049       2.44604
  71    C  3  py     Val( 2p)     1.07783      -0.04800
  72    C  3  py     Ryd( 3p)     0.00562       1.31659
  73    C  3  py     Ryd( 4p)     0.00023       2.07363
  74    C  3  pz     Val( 2p)     1.03513      -0.12942
  75    C  3  pz     Ryd( 3p)     0.00130       0.75856
  76    C  3  pz     Ryd( 4p)     0.00011       1.45474
  77    C  3  dxy    Ryd( 3d)     0.00096       3.19271
  78    C  3  dxy    Ryd( 4d)     0.00052       4.36148
  79    C  3  dxz    Ryd( 3d)     0.00034       1.90662
  80    C  3  dxz    Ryd( 4d)     0.00021       3.24127
  81    C  3  dyz    Ryd( 3d)     0.00037       1.88087
  82    C  3  dyz    Ryd( 4d)     0.00008       3.17804
  83    C  3  dx2y2  Ryd( 3d)     0.00144       3.29719
  84    C  3  dx2y2  Ryd( 4d)     0.00035       4.44750
  85    C  3  dz2    Ryd( 3d)     0.00106       3.02698
  86    C  3  dz2    Ryd( 4d)     0.00003       3.78940
  87    C  3  f(0)   Ryd( 4f)     0.00061       3.32149
  88    C  3  f(c1)  Ryd( 4f)     0.00058       3.48934
  89    C  3  f(s1)  Ryd( 4f)     0.00041       3.42493
  90    C  3  f(c2)  Ryd( 4f)     0.00004       3.36930
  91    C  3  f(s2)  Ryd( 4f)     0.00003       3.37803
  92    C  3  f(c3)  Ryd( 4f)     0.00021       3.99133
  93    C  3  f(s3)  Ryd( 4f)     0.00068       4.04200

  94    C  4  s      Cor( 1s)     1.99999     -10.31450
  95    C  4  s      Val( 2s)     0.97289      -0.13636
  96    C  4  s      Ryd( 3s)     0.00111       1.72288
  97    C  4  s      Ryd( 4s)     0.00013       1.87260
  98    C  4  s      Ryd( 5s)     0.00000      20.67436
  99    C  4  px     Val( 2p)     1.04473      -0.03976
 100    C  4  px     Ryd( 3p)     0.00427       1.03828
 101    C  4  px     Ryd( 4p)     0.00034       1.89151
 102    C  4  py     Val( 2p)     1.19490      -0.08768
 103    C  4  py     Ryd( 3p)     0.00415       1.22148
 104    C  4  py     Ryd( 4p)     0.00023       1.99855
 105    C  4  pz     Val( 2p)     0.94507      -0.12357
 106    C  4  pz     Ryd( 3p)     0.00107       0.71814
 107    C  4  pz     Ryd( 4p)     0.00014       1.32480
 108    C  4  dxy    Ryd( 3d)     0.00219       2.41632
 109    C  4  dxy    Ryd( 4d)     0.00025       3.91244
 110    C  4  dxz    Ryd( 3d)     0.00010       1.71777
 111    C  4  dxz    Ryd( 4d)     0.00018       3.11650
 112    C  4  dyz    Ryd( 3d)     0.00055       1.53108
 113    C  4  dyz    Ryd( 4d)     0.00004       2.94927
 114    C  4  dx2y2  Ryd( 3d)     0.00104       2.49286
 115    C  4  dx2y2  Ryd( 4d)     0.00043       3.98781
 116    C  4  dz2    Ryd( 3d)     0.00129       2.03401
 117    C  4  dz2    Ryd( 4d)     0.00002       3.53417
 118    C  4  f(0)   Ryd( 4f)     0.00042       3.25602
 119    C  4  f(c1)  Ryd( 4f)     0.00036       3.48322
 120    C  4  f(s1)  Ryd( 4f)     0.00054       3.41526
 121    C  4  f(c2)  Ryd( 4f)     0.00002       3.32906
 122    C  4  f(s2)  Ryd( 4f)     0.00001       3.33457
 123    C  4  f(c3)  Ryd( 4f)     0.00028       3.86749
 124    C  4  f(s3)  Ryd( 4f)     0.00050       4.00874

 125    C  5  s      Cor( 1s)     1.99999     -10.35739
 126    C  5  s      Val( 2s)     0.97992      -0.20520
 127    C  5  s      Ryd( 3s)     0.00095       2.13533
 128    C  5  s      Ryd( 4s)     0.00035       2.43467
 129    C  5  s      Ryd( 5s)     0.00000      17.21983
 130    C  5  px     Val( 2p)     0.96018      -0.11047
 131    C  5  px     Ryd( 3p)     0.00502       1.37193
 132    C  5  px     Ryd( 4p)     0.00092       2.15430
 133    C  5  py     Val( 2p)     1.05258      -0.06356
 134    C  5  py     Ryd( 3p)     0.00472       1.18781
 135    C  5  py     Ryd( 4p)     0.00019       2.08884
 136    C  5  pz     Val( 2p)     1.07702      -0.16431
 137    C  5  pz     Ryd( 3p)     0.00128       0.90043
 138    C  5  pz     Ryd( 4p)     0.00043       1.20721
 139    C  5  dxy    Ryd( 3d)     0.00173       2.23039
 140    C  5  dxy    Ryd( 4d)     0.00035       4.05598
 141    C  5  dxz    Ryd( 3d)     0.00147       1.34965
 142    C  5  dxz    Ryd( 4d)     0.00016       3.23886
 143    C  5  dyz    Ryd( 3d)     0.00034       1.55390
 144    C  5  dyz    Ryd( 4d)     0.00014       3.31970
 145    C  5  dx2y2  Ryd( 3d)     0.00193       2.29610
 146    C  5  dx2y2  Ryd( 4d)     0.00038       4.10019
 147    C  5  dz2    Ryd( 3d)     0.00206       2.14468
 148    C  5  dz2    Ryd( 4d)     0.00010       3.62993
 149    C  5  f(0)   Ryd( 4f)     0.00068       3.20531
 150    C  5  f(c1)  Ryd( 4f)     0.00058       3.22002
 151    C  5  f(s1)  Ryd( 4f)     0.00048       3.42444
 152    C  5  f(c2)  Ryd( 4f)     0.00003       3.26195
 153    C  5  f(s2)  Ryd( 4f)     0.00001       3.28761
 154    C  5  f(c3)  Ryd( 4f)     0.00037       3.80800
 155    C  5  f(s3)  Ryd( 4f)     0.00060       3.83198

 156   Br  6  s      Cor( 1s)     2.00000    -468.50343
 157   Br  6  s      Cor( 2s)     2.00000     -71.61360
 158   Br  6  s      Cor( 3s)     1.99999     -14.52291
 159   Br  6  s      Val( 4s)     1.86030      -0.77173
 160   Br  6  s      Ryd( 5s)     0.00122       1.22593
 161   Br  6  s      Ryd( 6s)     0.00000       7.51034
 162   Br  6  px     Cor( 2p)     2.00000     -42.09645
 163   Br  6  px     Cor( 3p)     2.00000     -21.02094
 164   Br  6  px     Val( 4p)     1.23234      -0.26553
 165   Br  6  px     Ryd( 5p)     0.00220       0.60662
 166   Br  6  px     Ryd( 6p)     0.00003       1.67677
 167   Br  6  py     Cor( 2p)     2.00000     -42.09048
 168   Br  6  py     Cor( 3p)     2.00000     -21.01443
 169   Br  6  py     Val( 4p)     1.89268      -0.36142
 170   Br  6  py     Ryd( 5p)     0.00092       0.58494
 171   Br  6  py     Ryd( 6p)     0.00001       1.58505
 172   Br  6  pz     Cor( 2p)     2.00000     -42.08995
 173   Br  6  pz     Cor( 3p)     2.00000     -21.01384
 174   Br  6  pz     Val( 4p)     1.94170      -0.37031
 175   Br  6  pz     Ryd( 5p)     0.00134       0.54652
 176   Br  6  pz     Ryd( 6p)     0.00003       1.53611
 177   Br  6  dxy    Cor( 3d)     1.99999      -2.74567
 178   Br  6  dxy    Ryd( 4d)     0.00122       1.36036
 179   Br  6  dxy    Ryd( 5d)     0.00003       1.48935
 180   Br  6  dxy    Ryd( 6d)     0.00001       4.46103
 181   Br  6  dxz    Cor( 3d)     1.99999      -2.74488
 182   Br  6  dxz    Ryd( 4d)     0.00207       0.87037
 183   Br  6  dxz    Ryd( 5d)     0.00001       1.35085
 184   Br  6  dxz    Ryd( 6d)     0.00000       4.18545
 185   Br  6  dyz    Cor( 3d)     2.00000      -2.73720
 186   Br  6  dyz    Ryd( 4d)     0.00029       0.70016
 187   Br  6  dyz    Ryd( 5d)     0.00002       1.23800
 188   Br  6  dyz    Ryd( 6d)     0.00000       4.06652
 189   Br  6  dx2y2  Cor( 3d)     1.99999      -2.74574
 190   Br  6  dx2y2  Ryd( 5d)     0.00156       1.52935
 191   Br  6  dx2y2  Ryd( 4d)     0.00003       1.45348
 192   Br  6  dx2y2  Ryd( 6d)     0.00001       4.50673
 193   Br  6  dz2    Cor( 3d)     1.99999      -2.73962
 194   Br  6  dz2    Ryd( 4d)     0.00059       1.08513
 195   Br  6  dz2    Ryd( 5d)     0.00003       1.33946
 196   Br  6  dz2    Ryd( 6d)     0.00000       4.32276
 197   Br  6  f(0)   Ryd( 4f)     0.00008       1.78727
 198   Br  6  f(c1)  Ryd( 4f)     0.00006       2.05975
 199   Br  6  f(s1)  Ryd( 4f)     0.00002       1.71410
 200   Br  6  f(c2)  Ryd( 4f)     0.00007       1.85011
 201   Br  6  f(s2)  Ryd( 4f)     0.00004       1.79718
 202   Br  6  f(c3)  Ryd( 4f)     0.00012       2.23602
 203   Br  6  f(s3)  Ryd( 4f)     0.00012       2.20788

 204    C  7  s      Cor( 1s)     1.99999     -10.31783
 205    C  7  s      Val( 2s)     0.98204      -0.15739
 206    C  7  s      Ryd( 3s)     0.00091       1.50169
 207    C  7  s      Ryd( 4s)     0.00007       2.06687
 208    C  7  s      Ryd( 5s)     0.00000      21.21658
 209    C  7  px     Val( 2p)     1.12488      -0.06698
 210    C  7  px     Ryd( 3p)     0.00503       1.17624
 211    C  7  px     Ryd( 4p)     0.00021       1.98703
 212    C  7  py     Val( 2p)     1.10586      -0.07137
 213    C  7  py     Ryd( 3p)     0.00297       1.04607
 214    C  7  py     Ryd( 4p)     0.00012       1.99781
 215    C  7  pz     Val( 2p)     0.96698      -0.13169
 216    C  7  pz     Ryd( 3p)     0.00116       0.71345
 217    C  7  pz     Ryd( 4p)     0.00015       1.31135
 218    C  7  dxy    Ryd( 3d)     0.00084       2.42959
 219    C  7  dxy    Ryd( 4d)     0.00043       3.88719
 220    C  7  dxz    Ryd( 3d)     0.00041       1.65746
 221    C  7  dxz    Ryd( 4d)     0.00009       2.90223
 222    C  7  dyz    Ryd( 3d)     0.00028       1.66522
 223    C  7  dyz    Ryd( 4d)     0.00009       2.93081
 224    C  7  dx2y2  Ryd( 3d)     0.00225       2.37905
 225    C  7  dx2y2  Ryd( 4d)     0.00013       3.72357
 226    C  7  dz2    Ryd( 3d)     0.00117       2.06626
 227    C  7  dz2    Ryd( 4d)     0.00002       3.42890
 228    C  7  f(0)   Ryd( 4f)     0.00044       3.22564
 229    C  7  f(c1)  Ryd( 4f)     0.00046       3.42837
 230    C  7  f(s1)  Ryd( 4f)     0.00046       3.38593
 231    C  7  f(c2)  Ryd( 4f)     0.00001       3.31980
 232    C  7  f(s2)  Ryd( 4f)     0.00003       3.28749
 233    C  7  f(c3)  Ryd( 4f)     0.00027       3.80754
 234    C  7  f(s3)  Ryd( 4f)     0.00051       3.94609

 235    C  8  s      Cor( 1s)     1.99999     -10.31123
 236    C  8  s      Val( 2s)     0.96821      -0.13940
 237    C  8  s      Ryd( 3s)     0.00084       1.73920
 238    C  8  s      Ryd( 4s)     0.00003       2.30201
 239    C  8  s      Ryd( 5s)     0.00000      19.81434
 240    C  8  px     Val( 2p)     1.04779      -0.03914
 241    C  8  px     Ryd( 3p)     0.00284       1.13417
 242    C  8  px     Ryd( 4p)     0.00011       1.81619
 243    C  8  py     Val( 2p)     1.17083      -0.07661
 244    C  8  py     Ryd( 3p)     0.00400       1.28478
 245    C  8  py     Ryd( 4p)     0.00014       1.99903
 246    C  8  pz     Val( 2p)     1.00084      -0.13230
 247    C  8  pz     Ryd( 3p)     0.00102       0.78721
 248    C  8  pz     Ryd( 4p)     0.00021       1.24932
 249    C  8  dxy    Ryd( 3d)     0.00169       2.66587
 250    C  8  dxy    Ryd( 4d)     0.00022       3.78603
 251    C  8  dxz    Ryd( 3d)     0.00019       1.91542
 252    C  8  dxz    Ryd( 4d)     0.00011       2.95855
 253    C  8  dyz    Ryd( 3d)     0.00039       1.73601
 254    C  8  dyz    Ryd( 4d)     0.00003       2.82152
 255    C  8  dx2y2  Ryd( 3d)     0.00064       2.71563
 256    C  8  dx2y2  Ryd( 4d)     0.00045       3.96135
 257    C  8  dz2    Ryd( 3d)     0.00105       2.23934
 258    C  8  dz2    Ryd( 4d)     0.00002       3.41281
 259    C  8  f(0)   Ryd( 4f)     0.00042       3.26804
 260    C  8  f(c1)  Ryd( 4f)     0.00034       3.50500
 261    C  8  f(s1)  Ryd( 4f)     0.00047       3.42481
 262    C  8  f(c2)  Ryd( 4f)     0.00002       3.35125
 263    C  8  f(s2)  Ryd( 4f)     0.00001       3.35021
 264    C  8  f(c3)  Ryd( 4f)     0.00023       3.91111
 265    C  8  f(s3)  Ryd( 4f)     0.00043       4.01626

 266    C  9  s      Cor( 1s)     1.99999     -10.31820
 267    C  9  s      Val( 2s)     0.91219      -0.10808
 268    C  9  s      Ryd( 4s)     0.00075       1.95672
 269    C  9  s      Ryd( 3s)     0.00009       1.57357
 270    C  9  s      Ryd( 5s)     0.00000      19.94695
 271    C  9  px     Val( 2p)     1.03558      -0.02841
 272    C  9  px     Ryd( 3p)     0.00378       1.49522
 273    C  9  px     Ryd( 4p)     0.00014       2.20360
 274    C  9  py     Val( 2p)     1.04894      -0.02664
 275    C  9  py     Ryd( 3p)     0.00262       1.22411
 276    C  9  py     Ryd( 4p)     0.00015       2.11062
 277    C  9  pz     Val( 2p)     0.94797      -0.11844
 278    C  9  pz     Ryd( 3p)     0.00133       0.80585
 279    C  9  pz     Ryd( 4p)     0.00010       1.40493
 280    C  9  dxy    Ryd( 3d)     0.00069       3.34077
 281    C  9  dxy    Ryd( 4d)     0.00053       4.20981
 282    C  9  dxz    Ryd( 3d)     0.00027       2.05819
 283    C  9  dxz    Ryd( 4d)     0.00021       3.07831
 284    C  9  dyz    Ryd( 3d)     0.00044       2.12360
 285    C  9  dyz    Ryd( 4d)     0.00013       3.03679
 286    C  9  dx2y2  Ryd( 3d)     0.00085       3.28426
 287    C  9  dx2y2  Ryd( 4d)     0.00056       4.29182
 288    C  9  dz2    Ryd( 3d)     0.00094       3.35502
 289    C  9  dz2    Ryd( 4d)     0.00006       3.62985
 290    C  9  f(0)   Ryd( 4f)     0.00044       3.34229
 291    C  9  f(c1)  Ryd( 4f)     0.00055       3.39072
 292    C  9  f(s1)  Ryd( 4f)     0.00039       3.46955
 293    C  9  f(c2)  Ryd( 4f)     0.00003       3.41364
 294    C  9  f(s2)  Ryd( 4f)     0.00004       3.37605
 295    C  9  f(c3)  Ryd( 4f)     0.00039       3.98605
 296    C  9  f(s3)  Ryd( 4f)     0.00038       4.00381

 297    C 10  s      Cor( 1s)     1.99999     -10.30455
 298    C 10  s      Val( 2s)     1.04448      -0.21038
 299    C 10  s      Ryd( 4s)     0.00045       2.20984
 300    C 10  s      Ryd( 3s)     0.00004       2.05372
 301    C 10  s      Ryd( 5s)     0.00000      20.52750
 302    C 10  px     Val( 2p)     1.04401      -0.09094
 303    C 10  px     Ryd( 3p)     0.00112       1.04559
 304    C 10  px     Ryd( 4p)     0.00018       1.52195
 305    C 10  py     Val( 2p)     1.10418      -0.10313
 306    C 10  py     Ryd( 3p)     0.00196       0.92240
 307    C 10  py     Ryd( 4p)     0.00014       1.63993
 308    C 10  pz     Val( 2p)     1.21757      -0.13675
 309    C 10  pz     Ryd( 3p)     0.00079       1.09853
 310    C 10  pz     Ryd( 4p)     0.00009       1.54618
 311    C 10  dxy    Ryd( 3d)     0.00049       2.22657
 312    C 10  dxy    Ryd( 4d)     0.00036       3.67058
 313    C 10  dxz    Ryd( 3d)     0.00039       1.69770
 314    C 10  dxz    Ryd( 4d)     0.00006       3.17869
 315    C 10  dyz    Ryd( 3d)     0.00093       1.90599
 316    C 10  dyz    Ryd( 4d)     0.00014       3.49417
 317    C 10  dx2y2  Ryd( 3d)     0.00114       2.48410
 318    C 10  dx2y2  Ryd( 4d)     0.00022       3.97279
 319    C 10  dz2    Ryd( 3d)     0.00192       2.51204
 320    C 10  dz2    Ryd( 4d)     0.00004       3.61703
 321    C 10  f(0)   Ryd( 4f)     0.00002       3.44216
 322    C 10  f(c1)  Ryd( 4f)     0.00009       3.55320
 323    C 10  f(s1)  Ryd( 4f)     0.00042       3.81375
 324    C 10  f(c2)  Ryd( 4f)     0.00001       3.55147
 325    C 10  f(s2)  Ryd( 4f)     0.00002       3.59621
 326    C 10  f(c3)  Ryd( 4f)     0.00031       3.71640
 327    C 10  f(s3)  Ryd( 4f)     0.00003       3.85732

 328    C 11  s      Cor( 1s)     1.99999     -10.30800
 329    C 11  s      Val( 2s)     0.98541      -0.18914
 330    C 11  s      Ryd( 3s)     0.00126       1.96612
 331    C 11  s      Ryd( 4s)     0.00007       3.41776
 332    C 11  s      Ryd( 5s)     0.00000      16.91373
 333    C 11  px     Val( 2p)     1.04646      -0.07779
 334    C 11  px     Ryd( 3p)     0.00334       1.37155
 335    C 11  px     Ryd( 4p)     0.00060       1.86131
 336    C 11  py     Val( 2p)     1.03310      -0.07714
 337    C 11  py     Ryd( 3p)     0.00385       1.31497
 338    C 11  py     Ryd( 4p)     0.00032       1.80639
 339    C 11  pz     Val( 2p)     1.06301      -0.09776
 340    C 11  pz     Ryd( 3p)     0.00143       0.97705
 341    C 11  pz     Ryd( 4p)     0.00038       1.59024
 342    C 11  dxy    Ryd( 3d)     0.00071       2.69970
 343    C 11  dxy    Ryd( 4d)     0.00036       4.58295
 344    C 11  dxz    Ryd( 3d)     0.00033       2.38455
 345    C 11  dxz    Ryd( 4d)     0.00037       4.40414
 346    C 11  dyz    Ryd( 3d)     0.00017       1.86353
 347    C 11  dyz    Ryd( 4d)     0.00046       3.52153
 348    C 11  dx2y2  Ryd( 3d)     0.00089       3.08023
 349    C 11  dx2y2  Ryd( 4d)     0.00027       4.30445
 350    C 11  dz2    Ryd( 3d)     0.00085       2.55304
 351    C 11  dz2    Ryd( 4d)     0.00028       4.40956
 352    C 11  f(0)   Ryd( 4f)     0.00006       3.54091
 353    C 11  f(c1)  Ryd( 4f)     0.00031       4.00430
 354    C 11  f(s1)  Ryd( 4f)     0.00006       3.48006
 355    C 11  f(c2)  Ryd( 4f)     0.00007       3.57103
 356    C 11  f(s2)  Ryd( 4f)     0.00001       3.66933
 357    C 11  f(c3)  Ryd( 4f)     0.00026       3.97897
 358    C 11  f(s3)  Ryd( 4f)     0.00021       3.89749

 359    C 12  s      Cor( 1s)     1.99999     -10.29077
 360    C 12  s      Val( 2s)     1.06344      -0.21179
 361    C 12  s      Ryd( 3s)     0.00059       1.97082
 362    C 12  s      Ryd( 4s)     0.00008       2.51554
 363    C 12  s      Ryd( 5s)     0.00000      20.59160
 364    C 12  px     Val( 2p)     0.99778      -0.08441
 365    C 12  px     Ryd( 3p)     0.00060       1.06164
 366    C 12  px     Ryd( 4p)     0.00010       1.27268
 367    C 12  py     Val( 2p)     1.21304      -0.11719
 368    C 12  py     Ryd( 3p)     0.00104       1.24493
 369    C 12  py     Ryd( 4p)     0.00010       1.40051
 370    C 12  pz     Val( 2p)     1.08759      -0.08421
 371    C 12  pz     Ryd( 3p)     0.00147       1.12119
 372    C 12  pz     Ryd( 4p)     0.00035       1.48696
 373    C 12  dxy    Ryd( 3d)     0.00020       1.65893
 374    C 12  dxy    Ryd( 4d)     0.00009       3.11434
 375    C 12  dxz    Ryd( 3d)     0.00108       2.36129
 376    C 12  dxz    Ryd( 4d)     0.00009       3.82657
 377    C 12  dyz    Ryd( 3d)     0.00082       1.97812
 378    C 12  dyz    Ryd( 4d)     0.00026       3.50002
 379    C 12  dx2y2  Ryd( 3d)     0.00175       2.00757
 380    C 12  dx2y2  Ryd( 4d)     0.00008       3.53488
 381    C 12  dz2    Ryd( 3d)     0.00102       2.06150
 382    C 12  dz2    Ryd( 4d)     0.00030       3.46146
 383    C 12  f(0)   Ryd( 4f)     0.00006       3.68976
 384    C 12  f(c1)  Ryd( 4f)     0.00007       3.57543
 385    C 12  f(s1)  Ryd( 4f)     0.00020       3.71027
 386    C 12  f(c2)  Ryd( 4f)     0.00047       3.75148
 387    C 12  f(s2)  Ryd( 4f)     0.00002       3.53301
 388    C 12  f(c3)  Ryd( 4f)     0.00001       3.37814
 389    C 12  f(s3)  Ryd( 4f)     0.00010       3.58890

 390    C 13  s      Cor( 1s)     1.99999     -10.28718
 391    C 13  s      Val( 2s)     1.06240      -0.21119
 392    C 13  s      Ryd( 3s)     0.00027       1.43706
 393    C 13  s      Ryd( 5s)     0.00003      13.16239
 394    C 13  s      Ryd( 4s)     0.00000       9.52417
 395    C 13  px     Val( 2p)     1.10812      -0.08719
 396    C 13  px     Ryd( 3p)     0.00140       1.18613
 397    C 13  px     Ryd( 4p)     0.00031       1.64062
 398    C 13  py     Val( 2p)     1.19510      -0.11128
 399    C 13  py     Ryd( 3p)     0.00110       1.24529
 400    C 13  py     Ryd( 4p)     0.00006       1.49671
 401    C 13  pz     Val( 2p)     1.01991      -0.08535
 402    C 13  pz     Ryd( 3p)     0.00056       1.04296
 403    C 13  pz     Ryd( 4p)     0.00004       1.21165
 404    C 13  dxy    Ryd( 3d)     0.00083       1.96807
 405    C 13  dxy    Ryd( 4d)     0.00030       3.53250
 406    C 13  dxz    Ryd( 3d)     0.00095       2.14154
 407    C 13  dxz    Ryd( 4d)     0.00010       3.81575
 408    C 13  dyz    Ryd( 3d)     0.00007       1.55183
 409    C 13  dyz    Ryd( 4d)     0.00009       3.05981
 410    C 13  dx2y2  Ryd( 3d)     0.00195       2.19553
 411    C 13  dx2y2  Ryd( 4d)     0.00020       3.56544
 412    C 13  dz2    Ryd( 3d)     0.00090       1.71265
 413    C 13  dz2    Ryd( 4d)     0.00016       3.38842
 414    C 13  f(0)   Ryd( 4f)     0.00003       3.43159
 415    C 13  f(c1)  Ryd( 4f)     0.00031       3.75668
 416    C 13  f(s1)  Ryd( 4f)     0.00006       3.51287
 417    C 13  f(c2)  Ryd( 4f)     0.00004       3.47203
 418    C 13  f(s2)  Ryd( 4f)     0.00002       3.48494
 419    C 13  f(c3)  Ryd( 4f)     0.00018       3.66988
 420    C 13  f(s3)  Ryd( 4f)     0.00024       3.74829

 421    C 14  s      Cor( 1s)     1.99999     -10.29078
 422    C 14  s      Val( 2s)     1.06345      -0.21180
 423    C 14  s      Ryd( 3s)     0.00059       1.97037
 424    C 14  s      Ryd( 4s)     0.00008       2.51603
 425    C 14  s      Ryd( 5s)     0.00000      20.59123
 426    C 14  px     Val( 2p)     0.99778      -0.08441
 427    C 14  px     Ryd( 3p)     0.00060       1.06159
 428    C 14  px     Ryd( 4p)     0.00010       1.27278
 429    C 14  py     Val( 2p)     1.21304      -0.11719
 430    C 14  py     Ryd( 3p)     0.00104       1.24482
 431    C 14  py     Ryd( 4p)     0.00010       1.40053
 432    C 14  pz     Val( 2p)     1.08757      -0.08420
 433    C 14  pz     Ryd( 3p)     0.00147       1.12121
 434    C 14  pz     Ryd( 4p)     0.00035       1.48699
 435    C 14  dxy    Ryd( 3d)     0.00020       1.65897
 436    C 14  dxy    Ryd( 4d)     0.00009       3.11448
 437    C 14  dxz    Ryd( 3d)     0.00108       2.36107
 438    C 14  dxz    Ryd( 4d)     0.00009       3.82649
 439    C 14  dyz    Ryd( 3d)     0.00082       1.97832
 440    C 14  dyz    Ryd( 4d)     0.00026       3.49987
 441    C 14  dx2y2  Ryd( 3d)     0.00175       2.00715
 442    C 14  dx2y2  Ryd( 4d)     0.00008       3.53488
 443    C 14  dz2    Ryd( 3d)     0.00102       2.06158
 444    C 14  dz2    Ryd( 4d)     0.00030       3.46174
 445    C 14  f(0)   Ryd( 4f)     0.00006       3.68980
 446    C 14  f(c1)  Ryd( 4f)     0.00007       3.57522
 447    C 14  f(s1)  Ryd( 4f)     0.00020       3.71057
 448    C 14  f(c2)  Ryd( 4f)     0.00047       3.75115
 449    C 14  f(s2)  Ryd( 4f)     0.00002       3.53305
 450    C 14  f(c3)  Ryd( 4f)     0.00001       3.37822
 451    C 14  f(s3)  Ryd( 4f)     0.00010       3.58894

 452    H 15  s      Val( 1s)     0.75339       0.06659
 453    H 15  s      Ryd( 2s)     0.00088       0.74491
 454    H 15  s      Ryd( 3s)     0.00010       2.02268
 455    H 15  px     Ryd( 2p)     0.00009       2.59898
 456    H 15  py     Ryd( 2p)     0.00061       3.02250
 457    H 15  pz     Ryd( 2p)     0.00011       2.21944

 458    H 16  s      Val( 1s)     0.76927       0.05245
 459    H 16  s      Ryd( 2s)     0.00052       0.63943
 460    H 16  s      Ryd( 3s)     0.00009       2.10594
 461    H 16  px     Ryd( 2p)     0.00043       2.80012
 462    H 16  py     Ryd( 2p)     0.00030       2.73233
 463    H 16  pz     Ryd( 2p)     0.00010       2.19013

 464    H 17  s      Val( 1s)     0.77928       0.04870
 465    H 17  s      Ryd( 2s)     0.00046       0.72335
 466    H 17  s      Ryd( 3s)     0.00010       2.04451
 467    H 17  px     Ryd( 2p)     0.00007       2.60344
 468    H 17  py     Ryd( 2p)     0.00062       3.00622
 469    H 17  pz     Ryd( 2p)     0.00012       2.20969

 470    H 18  s      Val( 1s)     0.77564       0.03826
 471    H 18  s      Ryd( 2s)     0.00069       0.92832
 472    H 18  s      Ryd( 3s)     0.00002       1.84591
 473    H 18  px     Ryd( 2p)     0.00017       2.52879
 474    H 18  py     Ryd( 2p)     0.00028       2.67221
 475    H 18  pz     Ryd( 2p)     0.00055       2.66240

 476    H 19  s      Val( 1s)     0.77564       0.03826
 477    H 19  s      Ryd( 2s)     0.00069       0.92832
 478    H 19  s      Ryd( 3s)     0.00002       1.84595
[...]
  169.  0.00032     1.37769   97.   RY ( 3) O  1
  170.  0.00031     3.32928  178.   RY ( 6) C  4
  171.  0.00030     3.07167  285.   RY ( 5) C  8
  172.  0.00028     3.51966  154.   RY ( 8) C  3
  173.  0.00028     3.47591  205.   RY ( 7) C  5
  174.  0.00027     2.03911  338.   RY ( 6) C 10
  175.  0.00027     2.05226  179.   RY ( 7) C  4
  176.  0.00027     2.58662  365.   RY ( 7) C 11
  177.  0.00026     3.28047  286.   RY ( 6) C  8
  178.  0.00026     2.62302  313.   RY ( 7) C  9
  179.  0.00025     2.92523  413.   RY ( 3) C 13
  180.  0.00025     1.00783  206.   RY ( 8) C  5
  181.  0.00024     1.65730  366.   RY ( 8) C 11
  182.  0.00024     3.28468  207.   RY ( 9) C  5
  183.  0.00024     2.03244  388.   RY ( 4) C 12
  184.  0.00024     2.03180  440.   RY ( 4) C 14
  185.  0.00023     4.16229  367.   RY ( 9) C 11
  186.  0.00023     2.20710  155.   RY ( 9) C  3
  187.  0.00022     2.37077  180.   RY ( 8) C  4
  188.  0.00021     2.76549  389.   RY ( 5) C 12
  189.  0.00021     2.76594  441.   RY ( 5) C 14
  190.  0.00021     0.85581  227.   RY ( 3)Br  6
  191.  0.00021     3.02517  314.   RY ( 8) C  9
  192.  0.00021     3.21784  127.   RY ( 7) C  2
  193.  0.00019     1.38225  181.   RY ( 9) C  4
  194.  0.00017     0.99111  228.   RY ( 4)Br  6
  195.  0.00016     3.46004  156.   RY (10) C  3
  196.  0.00016     2.47773  261.   RY ( 7) C  7
  197.  0.00016     2.49926  414.   RY ( 4) C 13
  198.  0.00015     2.79531  128.   RY ( 8) C  2
  199.  0.00015     2.11432  368.   RY (10) C 11
  200.  0.00015     2.45973  339.   RY ( 7) C 10
  201.  0.00014     2.36006  287.   RY ( 7) C  8
  202.  0.00014     2.34061  504.   RY ( 2) H 23
  203.  0.00014     1.70088  340.   RY ( 8) C 10
  204.  0.00014     2.58889  390.   RY ( 6) C 12
  205.  0.00014     2.58975  442.   RY ( 6) C 14
  206.  0.00013     1.73900  262.   RY ( 8) C  7
  207.  0.00013     2.93907  315.   RY ( 9) C  9
  208.  0.00013     2.44978  479.   RY ( 2) H 18
  209.  0.00013     2.44983  484.   RY ( 2) H 19
  210.  0.00013     2.34922  494.   RY ( 2) H 21
  211.  0.00013     2.34917  514.   RY ( 2) H 25
  212.  0.00012     2.08733  415.   RY ( 5) C 13
  213.  0.00012     2.20969  474.   RY ( 2) H 17
  214.  0.00012     2.35789  489.   RY ( 2) H 20
  215.  0.00012     2.35788  509.   RY ( 2) H 24
  216.  0.00012     2.40958  157.   RY (11) C  3
  217.  0.00012     1.90659  391.   RY ( 7) C 12
  218.  0.00012     1.90625  443.   RY ( 7) C 14
  219.  0.00011     2.33909  499.   RY ( 2) H 22
  220.  0.00011     2.01052  464.   RY ( 2) H 15
  221.  0.00011     2.21940  465.   RY ( 3) H 15
  222.  0.00010     1.58084  129.   RY ( 9) C  2
  223.  0.00010     2.19013  469.   RY ( 2) H 16
  224.  0.00010     4.23428  130.   RY (10) C  2
  225.  0.00010     2.03499  475.   RY ( 3) H 17
  226.  0.00009     2.09372  470.   RY ( 3) H 16
  227.  0.00009     2.21197  208.   RY (10) C  5
  228.  0.00009     0.51544  229.   RY ( 5)Br  6
  229.  0.00009     2.80700   98.   RY ( 4) O  1
  230.  0.00009     2.26341  316.   RY (10) C  9
  231.  0.00008     3.01216  263.   RY ( 9) C  7
  232.  0.00008     1.74841   99.   RY ( 5) O  1
  233.  0.00008     2.07820  416.   RY ( 6) C 13
  234.  0.00007     2.58549  158.   RY (12) C  3
  235.  0.00007     2.57128  182.   RY (10) C  4
  236.  0.00007     3.12928  341.   RY ( 9) C 10
  237.  0.00007     3.43166  317.   RY (11) C  9
  238.  0.00007     2.62664  369.   RY (11) C 11
  239.  0.00007     3.94073  370.   RY (12) C 11
  240.  0.00007     2.56712  466.   RY ( 4) H 15
  241.  0.00007     2.53088  471.   RY ( 4) H 16
  242.  0.00007     2.27464  392.   RY ( 8) C 12
  243.  0.00007     2.27564  444.   RY ( 8) C 14
  244.  0.00006     2.92732  131.   RY (11) C  2
  245.  0.00006     3.58513  318.   RY (12) C  9
  246.  0.00006     2.42753  480.   RY ( 3) H 18
  247.  0.00006     2.42743  485.   RY ( 3) H 19
  248.  0.00006     2.03229  132.   RY (12) C  2
  249.  0.00006     2.74789  417.   RY ( 7) C 13
  250.  0.00005     3.79345  371.   RY (13) C 11
  251.  0.00005     3.38017  100.   RY ( 6) O  1
  252.  0.00005     2.41212  342.   RY (10) C 10
  253.  0.00005     2.58333  476.   RY ( 4) H 17
  254.  0.00005     2.37192  490.   RY ( 3) H 20
  255.  0.00005     2.37410  500.   RY ( 3) H 22
  256.  0.00005     2.37200  510.   RY ( 3) H 24
  257.  0.00005     2.14526  288.   RY ( 8) C  8
  258.  0.00005     3.10879  159.   RY (13) C  3
  259.  0.00005     2.61944  264.   RY (10) C  7
  260.  0.00005     1.69021  289.   RY ( 9) C  8
  261.  0.00005     2.37485  393.   RY ( 9) C 12
  262.  0.00005     2.36939  445.   RY ( 9) C 14
  263.  0.00004     2.30955  343.   RY (11) C 10
  264.  0.00004     2.40740  491.   RY ( 4) H 20
  265.  0.00004     2.40734  511.   RY ( 4) H 24
  266.  0.00004     3.64487  160.   RY (14) C  3
  267.  0.00004     2.73137  344.   RY (12) C 10
  268.  0.00004     2.64771  394.   RY (10) C 12
  269.  0.00004     2.65090  446.   RY (10) C 14
  270.  0.00004     2.70428  133.   RY (13) C  2
  271.  0.00004     2.21370  495.   RY ( 3) H 21
  272.  0.00004     2.23743  505.   RY ( 3) H 23
  273.  0.00004     2.21389  515.   RY ( 3) H 25
  274.  0.00004     3.24031  183.   RY (11) C  4
  275.  0.00004     3.16182  290.   RY (10) C  8
  276.  0.00004     2.52164  319.   RY (13) C  9
  277.  0.00003     3.18928  134.   RY (14) C  2
  278.  0.00003     1.20145  230.   RY ( 6)Br  6
  279.  0.00003     3.63033  372.   RY (14) C 11
  280.  0.00004     2.23102  418.   RY ( 8) C 13
  281.  0.00003     2.54969  101.   RY ( 7) O  1
  282.  0.00003     2.16128  395.   RY (11) C 12
  283.  0.00003     2.16188  447.   RY (11) C 14
  284.  0.00003     2.11725  135.   RY (15) C  2
  285.  0.00003     2.59890  161.   RY (15) C  3
  286.  0.00003     2.64515  184.   RY (12) C  4
  287.  0.00003     2.46416  496.   RY ( 4) H 21
  288.  0.00003     2.46378  516.   RY ( 4) H 25
  289.  0.00002     2.56138  481.   RY ( 4) H 18
  290.  0.00002     2.56135  486.   RY ( 4) H 19
  291.  0.00002     2.83904  209.   RY (11) C  5
  292.  0.00002     2.48538  291.   RY (11) C  8
  293.  0.00002     2.88285  345.   RY (13) C 10
  294.  0.00002     3.46839  136.   RY (16) C  2
  295.  0.00002     3.36433  320.   RY (14) C  9
  296.  0.00002     1.37444  419.   RY ( 9) C 13
  297.  0.00002     3.71311  162.   RY (16) C  3
  298.  0.00002     1.09966  231.   RY ( 7)Br  6
  299.  0.00002     2.77184  420.   RY (10) C 13
  300.  0.00002     1.43690  185.   RY (13) C  4
  301.  0.00002     2.08449  321.   RY (15) C  9
  302.  0.00002     3.02926  322.   RY (16) C  9
  303.  0.00002     4.04462  346.   RY (14) C 10
  304.  0.00002     3.62571  373.   RY (15) C 11
  305.  0.00002     2.31997  501.   RY ( 4) H 22
  306.  0.00002     3.54501  347.   RY (15) C 10
  307.  0.00002     3.33930  374.   RY (16) C 11
  308.  0.00002     2.01512  396.   RY (12) C 12
  309.  0.00002     2.01568  448.   RY (12) C 14
  310.  0.00002     2.37007  506.   RY ( 4) H 23
  311.  0.00001     2.65622  163.   RY (17) C  3
  312.  0.00001     3.23161  265.   RY (11) C  7
  313.  0.00001     3.32196  102.   RY ( 8) O  1
  314.  0.00001     3.39341  186.   RY (14) C  4
  315.  0.00001     2.50950  210.   RY (12) C  5
  316.  0.00001     1.31139  292.   RY (12) C  8
  317.  0.00001     2.34746  348.   RY (16) C 10
  318.  0.00001     2.63200  293.   RY (13) C  8
  319.  0.00001     2.98143  137.   RY (17) C  2
  320.  0.00001     3.38604  211.   RY (13) C  5
  321.  0.00001     1.50907  232.   RY ( 8)Br  6
  322.  0.00001     2.97744  375.   RY (17) C 11
  323.  0.00001     3.07558  376.   RY (18) C 11
  324.  0.00001     2.64312  397.   RY (13) C 12
  325.  0.00001     2.64330  449.   RY (13) C 14
  326.  0.00001     3.05749  467.   RY ( 5) H 15
  327.  0.00001     5.09444  164.   RY (18) C  3
  328.  0.00001     1.08865  421.   RY (11) C 13
  329.  0.00001     3.06946  103.   RY ( 9) O  1
  330.  0.00001     2.35833  138.   RY (18) C  2
  331.  0.00001     3.45163  187.   RY (15) C  4
  332.  0.00001     2.04831  323.   RY (17) C  9
  333.  0.00001     3.00512  472.   RY ( 5) H 16
  334.  0.00001     2.26497  482.   RY ( 5) H 18
  335.  0.00001     2.26518  487.   RY ( 5) H 19
  336.  0.00001     2.63088  497.   RY ( 5) H 21
  337.  0.00001     2.61791  212.   RY (14) C  5
  338.  0.00001     2.34741  213.   RY (15) C  5
  339.  0.00001     0.97376  233.   RY ( 9)Br  6
  340.  0.00001     1.37407  234.   RY (10)Br  6
  341.  0.00001     1.75027  266.   RY (12) C  7
  342.  0.00000     2.15826  104.   RY (10) O  1
  343.  0.00000     3.34398  105.   RY (11) O  1
  344.  0.00000     3.35527  139.   RY (19) C  2
  345.  0.00000     4.82112  140.   RY (20) C  2
  346.  0.00000     2.63869  165.   RY (19) C  3
  347.  0.00000     3.30677  188.   RY (16) C  4
  348.  0.00001     3.60551  267.   RY (13) C  7
  349.  0.00001     2.95550  324.   RY (18) C  9
  350.  0.00001     4.02095  377.   RY (19) C 11
  351.  0.00001     2.55689  398.   RY (14) C 12
  352.  0.00001     2.55640  450.   RY (14) C 14
  353.  0.00001     2.46363  492.   RY ( 5) H 20
  354.  0.00001     2.59981  502.   RY ( 5) H 22
  355.  0.00001     2.63080  517.   RY ( 5) H 25
  356.  0.00001     2.46364  512.   RY ( 5) H 24
  357.  0.00000     3.23217  189.   RY (17) C  4
  358.  0.00000     3.66172  106.   RY (12) O  1
  359.  0.00000     5.82379  107.   RY (13) O  1
  360.  0.00000     5.79459  108.   RY (14) O  1
  361.  0.00000     6.38846  109.   RY (15) O  1
  362.  0.00000     5.94508  110.   RY (16) O  1
  363.  0.00000    10.48746  111.   RY (17) O  1
  364.  0.00000    19.97096  112.   RY (18) O  1
  365.  0.00000    18.32034  113.   RY (19) O  1
  366.  0.00000     5.75645  114.   RY (20) O  1
  367.  0.00000     5.71005  115.   RY (21) O  1
  368.  0.00000     6.55749  116.   RY (22) O  1
  369.  0.00000     5.25780  117.   RY (23) O  1
  370.  0.00000     5.65675  118.   RY (24) O  1
  371.  0.00000     5.97629  119.   RY (25) O  1
  372.  0.00000     8.16481  120.   RY (26) O  1
  373.  0.00000    11.00030  141.   RY (21) C  2
  374.  0.00000     3.23567  142.   RY (22) C  2
  375.  0.00000     7.02657  143.   RY (23) C  2
  376.  0.00000     3.14386  144.   RY (24) C  2
  377.  0.00000     3.16587  145.   RY (25) C  2
  378.  0.00000     3.80299  146.   RY (26) C  2
  379.  0.00000    16.77599  166.   RY (20) C  3
  380.  0.00000     6.03937  167.   RY (21) C  3
  381.  0.00000     3.99355  168.   RY (22) C  3
  382.  0.00000     3.73080  190.   RY (18) C  4
  383.  0.00000     2.39141  214.   RY (16) C  5
  384.  0.00000     3.68014  235.   RY (11)Br  6
  385.  0.00000     2.61282  268.   RY (14) C  7
  386.  0.00000     3.53700  294.   RY (14) C  8
  387.  0.00000     2.71873  325.   RY (19) C  9
  388.  0.00000     3.31189  169.   RY (23) C  3
  389.  0.00000     3.84126  170.   RY (24) C  3
  390.  0.00000     3.38878  171.   RY (25) C  3
  391.  0.00000     2.62141  172.   RY (26) C  3
  392.  0.00000     3.27600  191.   RY (19) C  4
  393.  0.00000     1.93668  192.   RY (20) C  4
  394.  0.00000     4.11011  193.   RY (21) C  4
  395.  0.00000     3.17743  194.   RY (22) C  4
  396.  0.00000     7.68991  195.   RY (23) C  4
  397.  0.00000     9.93602  196.   RY (24) C  4
  398.  0.00000     2.89313  197.   RY (25) C  4
  399.  0.00000     8.35166  198.   RY (26) C  4
  400.  0.00000     6.59248  215.   RY (17) C  5
  401.  0.00000     3.32586  216.   RY (18) C  5
  402.  0.00000     2.56540  217.   RY (19) C  5
  403.  0.00000     3.31001  218.   RY (20) C  5
  404.  0.00000     2.27592  219.   RY (21) C  5
  405.  0.00000     4.05010  220.   RY (22) C  5
  406.  0.00000     2.97661  221.   RY (23) C  5
  407.  0.00000     3.13413  222.   RY (24) C  5
  408.  0.00000    15.98515  223.   RY (25) C  5
  409.  0.00000     3.39630  224.   RY (26) C  5
  410.  0.00000     2.83072  236.   RY (12)Br  6
  411.  0.00000     3.77911  237.   RY (13)Br  6
  412.  0.00000     3.20343  238.   RY (14)Br  6
  413.  0.00000     2.42352  239.   RY (15)Br  6
  414.  0.00000     1.83834  240.   RY (16)Br  6
  415.  0.00000     2.26710  241.   RY (17)Br  6
  416.  0.00000     2.64993  269.   RY (15) C  7
  417.  0.00000     3.86444  295.   RY (15) C  8
  418.  0.00000     3.68654  326.   RY (20) C  9
  419.  0.00000     2.59646  349.   RY (17) C 10
  420.  0.00000     3.22558  350.   RY (18) C 10
  421.  0.00000     4.42572  378.   RY (20) C 11
  422.  0.00001     3.90288  422.   RY (12) C 13
  423.  0.00001     3.03923  477.   RY ( 5) H 17
  424.  0.00001     2.67427  507.   RY ( 5) H 23
  425.  0.00000     2.30562  242.   RY (18)Br  6
  426.  0.00000     1.71384  243.   RY (19)Br  6
  427.  0.00000     2.13705  244.   RY (20)Br  6
  428.  0.00000     2.53808  245.   RY (21)Br  6
  429.  0.00000     2.18015  246.   RY (22)Br  6
  430.  0.00000     1.76186  247.   RY (23)Br  6
  431.  0.00000     3.76983  248.   RY (24)Br  6
  432.  0.00000     1.75420  249.   RY (25)Br  6
  433.  0.00000     4.04084  250.   RY (26)Br  6
  434.  0.00000     2.93200  251.   RY (27)Br  6
  435.  0.00000     3.45761  252.   RY (28)Br  6
  436.  0.00000     1.70775  253.   RY (29)Br  6
  437.  0.00000     2.24366  254.   RY (30)Br  6
  438.  0.00000     1.55003  270.   RY (16) C  7
  439.  0.00000     3.17968  271.   RY (17) C  7
  440.  0.00000    10.92157  272.   RY (18) C  7
  441.  0.00000     3.44719  273.   RY (19) C  7
  442.  0.00000     3.60671  274.   RY (20) C  7
  443.  0.00000     5.66886  275.   RY (21) C  7
  444.  0.00000     3.36952  296.   RY (16) C  8
  445.  0.00000     3.35774  351.   RY (19) C 10
  446.  0.00000     2.85984  352.   RY (20) C 10
  447.  0.00000     3.68702  379.   RY (21) C 11
  448.  0.00000     2.91437  399.   RY (15) C 12
  449.  0.00000     3.25698  276.   RY (22) C  7
  450.  0.00000     8.79382  277.   RY (23) C  7
  451.  0.00000     4.48719  278.   RY (24) C  7
  452.  0.00000     3.23304  279.   RY (25) C  7
  453.  0.00000     3.06515  280.   RY (26) C  7
  454.  0.00000     3.78548  297.   RY (17) C  8
  455.  0.00000     3.23934  298.   RY (18) C  8
  456.  0.00000    13.89678  299.   RY (19) C  8
  457.  0.00000     1.97710  300.   RY (20) C  8
  458.  0.00000     3.27747  301.   RY (21) C  8
  459.  0.00000     4.53912  302.   RY (22) C  8
  460.  0.00000     5.62148  303.   RY (23) C  8
  461.  0.00000     4.15120  304.   RY (24) C  8
  462.  0.00000     3.03083  305.   RY (25) C  8
  463.  0.00000     3.23055  306.   RY (26) C  8
  464.  0.00000     3.33091  327.   RY (21) C  9
  465.  0.00000     3.64084  328.   RY (22) C  9
  466.  0.00000     4.55491  329.   RY (23) C  9
  467.  0.00000     3.23411  330.   RY (24) C  9
  468.  0.00000     3.34408  331.   RY (25) C  9
  469.  0.00000    19.07463  332.   RY (26) C  9
  470.  0.00000     2.99405  353.   RY (21) C 10
  471.  0.00000     9.26102  354.   RY (22) C 10
  472.  0.00000     3.13241  355.   RY (23) C 10
  473.  0.00000     4.08147  356.   RY (24) C 10
  474.  0.00000     3.96014  357.   RY (25) C 10
  475.  0.00000     3.28716  400.   RY (16) C 12
  476.  0.00000     2.90472  423.   RY (13) C 13
  477.  0.00000     2.91171  451.   RY (15) C 14
  478.  0.00000    13.52226  358.   RY (26) C 10
  479.  0.00000     2.61983  380.   RY (22) C 11
  480.  0.00000     3.53141  381.   RY (23) C 11
  481.  0.00000     2.82635  382.   RY (24) C 11
  482.  0.00000     3.38064  401.   RY (17) C 12
  483.  0.00000     3.60259  383.   RY (25) C 11
  484.  0.00000    16.50727  384.   RY (26) C 11
  485.  0.00000     5.96559  402.   RY (18) C 12
  486.  0.00000    12.32104  403.   RY (19) C 12
  487.  0.00000     2.80141  404.   RY (20) C 12
  488.  0.00000     3.86408  405.   RY (21) C 12
  489.  0.00000     2.94702  406.   RY (22) C 12
  490.  0.00000     3.36228  407.   RY (23) C 12
  491.  0.00000     4.04807  408.   RY (24) C 12
  492.  0.00000     4.99300  409.   RY (25) C 12
  493.  0.00000     5.11496  410.   RY (26) C 12
  494.  0.00000     4.95732  424.   RY (14) C 13
  495.  0.00000     2.97174  425.   RY (15) C 13
  496.  0.00000     2.51482  426.   RY (16) C 13
  497.  0.00000     3.28705  452.   RY (16) C 14
  498.  0.00000     7.16385  427.   RY (17) C 13
  499.  0.00000     3.43264  428.   RY (18) C 13
  500.  0.00000     7.99187  429.   RY (19) C 13
  501.  0.00000     3.61860  430.   RY (20) C 13
  502.  0.00000     3.08818  431.   RY (21) C 13
  503.  0.00000     4.20405  432.   RY (22) C 13
  504.  0.00000     3.07613  433.   RY (23) C 13
  505.  0.00000     3.28231  434.   RY (24) C 13
  506.  0.00000     3.37864  453.   RY (17) C 14
  507.  0.00000     3.37710  435.   RY (25) C 13
  508.  0.00000     4.47681  436.   RY (26) C 13
  509.  0.00000     5.96997  454.   RY (18) C 14
  510.  0.00000    12.32218  455.   RY (19) C 14
  511.  0.00000     2.79651  456.   RY (20) C 14
  512.  0.00000     5.12779  457.   RY (21) C 14
  513.  0.00000     2.95158  458.   RY (22) C 14
  514.  0.00000     3.36230  459.   RY (23) C 14
  515.  0.00000     4.04502  460.   RY (24) C 14
  516.  0.00000     5.00641  461.   RY (25) C 14
  517.  0.00000     3.84098  462.   RY (26) C 14

 NBO analysis completed in 11.37 CPU seconds (11 wall seconds)
 Maximum scratch memory used by NBO was 2924329 words (22.31 MB)
 Maximum scratch memory used by G16NBO was 413038 words (3.15 MB)

 Opening RunExU unformatted file "/home/rpaton/opt/tzvp/popn/Gau-2183374.EUF"
 Read unf file /home/rpaton/opt/tzvp/popn/Gau-2183374.EUF:
 Label Gaussian matrix elements                                         IVers= 2 NLab= 2 Version=ES64L-G16RevC.01
 Title arbr39_wb97xd_popncreated by GaussianPrep                       
 NAtoms=    25 NBasis=   517 NBsUse=   517 ICharg=     0 Multip=     1 NE=   126 Len12L=8 Len4L=8 IOpCl= 0 ICGU=111
 GAUSSIAN SCALARS                    NI= 1 NR= 1 NTot=       1 LenBuf=    2 NRI=1 N=    1000
 ALPHA ORBITAL ENERGIES              NI= 0 NR= 1 NTot=     517 LenBuf= 2048 NRI=1 N=     517
 ALPHA MO COEFFICIENTS               NI= 0 NR= 1 NTot=  267289 LenBuf= 2048 NRI=1 N=     517     517
 Store file  10524 Len=  267289.
 NPA CHARGES                         NI= 0 NR= 1 NTot=      25 LenBuf= 2048 NRI=1 N=      25
 Recovered energy= -3113.34379355     dipole=     -0.604572427048      1.471516684511     -0.000163204358
 Unable to Open any file for archive entry.
 1\1\GINC-DYNAMO\SP\RwB97XD\def2TZVP\C12H11Br1O1\RPATON\23-Sep-2024\0\\
 # pop=(nbo6read,savenbos,hirshfeld) wb97xd/def2tzvp\\arbr39_wb97xd_pop
 ncreated by GaussianPrep\\0,1\O,0,1.720941,-2.192944,0.000132\C,0,1.61
 1331,-0.993249,0.001006\C,0,0.351364,-0.218033,0.000468\C,0,-0.948663,
 -0.704047,0.000275\C,0,-1.971272,0.222022,0.000026\Br,0,-3.772177,-0.3
 66488,-0.000154\C,0,-1.707982,1.591534,-0.000054\C,0,-0.402866,2.05396
 4,0.000067\C,0,0.638049,1.136408,0.000292\C,0,2.122149,1.39311,0.00019
 3\C,0,2.76888,-0.003648,0.00018\C,0,3.867979,-0.2447,1.070207\C,0,4.94
 0841,0.028426,-0.000781\C,0,3.867042,-0.24516,-1.070709\H,0,-1.137236,
 -1.769394,0.000418\H,0,-2.53261,2.291633,-0.000259\H,0,-0.209725,3.119
 816,-0.000093\H,0,2.412607,1.976191,0.877301\H,0,2.412443,1.976061,-0.
 877057\H,0,3.840998,0.396383,1.951219\H,0,3.865614,-1.29024,1.379328\H
 ,0,5.825074,-0.6067,-0.001027\H,0,5.25669,1.072396,-0.001147\H,0,3.839
 3,0.395537,-1.951978\H,0,3.864416,-1.290836,-1.379372\\Version=ES64L-G
 16RevC.01\State=1-A\HF=-3113.3437935\RMSD=9.717e-09\Dipole=0.6045724,1
 .4715167,0.0001632\Quadrupole=1.5762752,-0.6456163,-0.9306589,3.044396
 8,0.0003709,-0.0012968\PG=C01 [X(C12H11Br1O1)]\\@
 The archive entry for this job was punched.


 What some people mistake for the high cost
 of living is really the cost of living high.
                              -- Doug Larson
 Job cpu time:       0 days  1 hours 16 minutes 14.0 seconds.
 Elapsed time:       0 days  0 hours  3 minutes 12.7 seconds.
 File lengths (MBytes):  RWF=    150 Int=      0 D2E=      0 Chk=     15 Scr=      1
 Normal termination of Gaussian 16 at Mon Sep 23 03:52:39 2024.
