 Entering Gaussian System, Link 0=/usr/local/Gaussian/G16C/g16/g16
 Input=arbr47_wb97xd_popn.com
 Output=arbr47_wb97xd_popn.log
 Initial command:
 /usr/local/Gaussian/G16C/g16/l1.exe "/home/rpaton/opt/tzvp/popn/Gau-2191974.inp" -scrdir="/home/rpaton/opt/tzvp/popn/"
 Entering Link 1 = /usr/local/Gaussian/G16C/g16/l1.exe PID=   2191975.
  
 Copyright (c) 1988-2019, Gaussian, Inc.  All Rights Reserved.
  
 This is part of the Gaussian(R) 16 program.  It is based on
 the Gaussian(R) 09 system (copyright 2009, Gaussian, Inc.),
 the Gaussian(R) 03 system (copyright 2003, Gaussian, Inc.),
 the Gaussian(R) 98 system (copyright 1998, Gaussian, Inc.),
 the Gaussian(R) 94 system (copyright 1995, Gaussian, Inc.),
 the Gaussian 92(TM) system (copyright 1992, Gaussian, Inc.),
 the Gaussian 90(TM) system (copyright 1990, Gaussian, Inc.),
 the Gaussian 88(TM) system (copyright 1988, Gaussian, Inc.),
 the Gaussian 86(TM) system (copyright 1986, Carnegie Mellon
 University), and the Gaussian 82(TM) system (copyright 1983,
 Carnegie Mellon University). Gaussian is a federally registered
 trademark of Gaussian, Inc.
  
 This software contains proprietary and confidential information,
 including trade secrets, belonging to Gaussian, Inc.
  
 This software is provided under written license and may be
 used, copied, transmitted, or stored only in accord with that
 written license.
  
 The following legend is applicable only to US Government
 contracts under FAR:
  
                    RESTRICTED RIGHTS LEGEND
  
 Use, reproduction and disclosure by the US Government is
 subject to restrictions as set forth in subparagraphs (a)
 and (c) of the Commercial Computer Software - Restricted
 Rights clause in FAR 52.227-19.
  
 Gaussian, Inc.
 340 Quinnipiac St., Bldg. 40, Wallingford CT 06492
  
  
 ---------------------------------------------------------------
 Warning -- This program may not be used in any manner that
 competes with the business of Gaussian, Inc. or will provide
 assistance to any competitor of Gaussian, Inc.  The licensee
 of this program is prohibited from giving any competitor of
 Gaussian, Inc. access to this program.  By using this program,
 the user acknowledges that Gaussian, Inc. is engaged in the
 business of creating and licensing software in the field of
 computational chemistry and represents and warrants to the
 licensee that it is not a competitor of Gaussian, Inc. and that
 it will not use this program in any manner prohibited above.
 ---------------------------------------------------------------
  

 Cite this work as:
 Gaussian 16, Revision C.01,
 M. J. Frisch, G. W. Trucks, H. B. Schlegel, G. E. Scuseria, 
 M. A. Robb, J. R. Cheeseman, G. Scalmani, V. Barone, 
 G. A. Petersson, H. Nakatsuji, X. Li, M. Caricato, A. V. Marenich, 
 J. Bloino, B. G. Janesko, R. Gomperts, B. Mennucci, H. P. Hratchian, 
 J. V. Ortiz, A. F. Izmaylov, J. L. Sonnenberg, D. Williams-Young, 
 F. Ding, F. Lipparini, F. Egidi, J. Goings, B. Peng, A. Petrone, 
 T. Henderson, D. Ranasinghe, V. G. Zakrzewski, J. Gao, N. Rega, 
 G. Zheng, W. Liang, M. Hada, M. Ehara, K. Toyota, R. Fukuda, 
 J. Hasegawa, M. Ishida, T. Nakajima, Y. Honda, O. Kitao, H. Nakai, 
 T. Vreven, K. Throssell, J. A. Montgomery, Jr., J. E. Peralta, 
 F. Ogliaro, M. J. Bearpark, J. J. Heyd, E. N. Brothers, K. N. Kudin, 
 V. N. Staroverov, T. A. Keith, R. Kobayashi, J. Normand, 
 K. Raghavachari, A. P. Rendell, J. C. Burant, S. S. Iyengar, 
 J. Tomasi, M. Cossi, J. M. Millam, M. Klene, C. Adamo, R. Cammi, 
 J. W. Ochterski, R. L. Martin, K. Morokuma, O. Farkas, 
 J. B. Foresman, and D. J. Fox, Gaussian, Inc., Wallingford CT, 2019.
 
 ******************************************
 Gaussian 16:  ES64L-G16RevC.01  3-Jul-2019
                23-Sep-2024 
 ******************************************
 %chk=arbr47_wb97xd_popn.chk
 %mem=48GB
 %nprocshared=24
 Will use up to   24 processors via shared memory.
 ---------------------------------------------------
 # pop=(nbo6read,savenbos,hirshfeld) wb97xd/def2tzvp
 ---------------------------------------------------
 1/38=1,163=2,172=1/1;
 2/12=2,17=6,18=5,40=1/2;
 3/5=44,7=101,11=2,25=1,30=1,74=-58/1,2,3;
 4//1;
 5/5=2,38=5/2;
 6/7=2,8=2,9=2,10=2,28=1,40=2,73=1,79=1,113=1,114=1,124=2103,126=1/1,12;
 99/5=1,9=1/99;
 -----------------------------------------
 arbr47_wb97xd_popncreated by GaussianPrep
 -----------------------------------------
 Symbolic Z-matrix:
 Charge =  0 Multiplicity = 1
 O                    -4.17553  -1.58103   0.48728 
 C                    -3.31794  -0.82264   0.12645 
 C                    -3.43773   0.67027   0.38728 
 O                    -2.49013   1.46664  -0.29675 
 C                    -1.20055   1.03303  -0.19448 
 C                    -0.18853   1.96231  -0.02133 
 C                     1.1267    1.53679   0.05623 
 C                     1.41022   0.18308  -0.02733 
 Br                    3.20565  -0.40706   0.10295 
 C                     0.40045  -0.74658  -0.20725 
 C                    -0.91619  -0.32372  -0.30933 
 C                    -2.05791  -1.25916  -0.5863 
 H                    -4.42541   1.00633   0.07619 
 H                    -3.34903   0.8202    1.47048 
 H                    -0.44002   3.01172   0.05423 
 H                     1.92393   2.25399   0.19351 
 H                     0.636    -1.80034  -0.28287 
 H                    -1.83598  -2.29266  -0.32463 
 H                    -2.29305  -1.23753  -1.65815 
 
                          Input orientation:                          
 ---------------------------------------------------------------------
 Center     Atomic      Atomic             Coordinates (Angstroms)
 Number     Number       Type             X           Y           Z
 ---------------------------------------------------------------------
      1          8           0       -4.175534   -1.581028    0.487284
      2          6           0       -3.317935   -0.822637    0.126449
      3          6           0       -3.437733    0.670273    0.387283
      4          8           0       -2.490127    1.466638   -0.296746
      5          6           0       -1.200551    1.033028   -0.194482
      6          6           0       -0.188530    1.962311   -0.021326
      7          6           0        1.126695    1.536791    0.056234
      8          6           0        1.410215    0.183084   -0.027332
      9         35           0        3.205651   -0.407056    0.102950
     10          6           0        0.400452   -0.746576   -0.207247
     11          6           0       -0.916190   -0.323723   -0.309332
     12          6           0       -2.057913   -1.259155   -0.586299
     13          1           0       -4.425410    1.006333    0.076188
     14          1           0       -3.349032    0.820197    1.470481
     15          1           0       -0.440022    3.011724    0.054228
     16          1           0        1.923928    2.253991    0.193511
     17          1           0        0.636002   -1.800343   -0.282868
     18          1           0       -1.835980   -2.292657   -0.324631
     19          1           0       -2.293051   -1.237529   -1.658147
 ---------------------------------------------------------------------
                    Distance matrix (angstroms):
                    1          2          3          4          5
     1  O    0.000000
     2  C    1.200348   0.000000
     3  C    2.371225   1.520252   0.000000
     4  O    3.569813   2.470858   1.414231   0.000000
     5  C    4.018534   2.833691   2.339877   1.364361   0.000000
     6  C    5.358184   4.191772   3.520461   2.370421   1.384824
     7  C    6.166055   5.032551   4.657730   3.634683   2.394308
     8  C    5.880265   4.836375   4.889975   4.114944   2.750717
     9  Br   7.483837   6.536852   6.736174   6.009357   4.645097
    10  C    4.703013   3.734105   4.134319   3.641672   2.393818
    11  C    3.583118   2.491425   2.798478   2.383868   1.390980
    12  C    2.395934   1.512023   2.564071   2.774995   2.478446
    13  H    2.631706   2.138728   1.088679   2.023927   3.236308
    14  H    2.723172   2.122803   1.097116   2.068501   2.726421
    15  H    5.935904   4.794781   3.818323   2.591024   2.134361
    16  H    7.210902   6.078426   5.594025   4.510450   3.376930
    17  H    4.877716   4.093540   4.811275   4.521730   3.377681
    18  H    2.576652   2.135561   3.442585   3.815886   3.388346
    19  H    2.874823   2.099358   3.022216   3.033937   2.913984
                    6          7          8          9         10
     6  C    0.000000
     7  C    1.384521   0.000000
     8  C    2.392001   1.385601   0.000000
     9  Br   4.141233   2.846539   1.894421   0.000000
    10  C    2.778405   2.410522   1.384290   2.842646   0.000000
    11  C    2.416276   2.787208   2.397611   4.143247   1.386641
    12  C    3.767178   4.286244   3.797421   5.376453   2.539680
    13  H    4.344486   5.577424   5.894317   7.760894   5.142176
    14  H    3.676776   4.748235   5.029890   6.807361   4.396383
    15  H    1.081769   2.151751   3.381011   4.998136   3.859998
    16  H    2.143294   1.081111   2.145071   2.955027   3.388951
    17  H    3.860806   3.390020   2.144455   2.948423   1.082417
    18  H    4.572837   4.856663   4.093344   5.399663   2.721355
    19  H    4.164993   4.725528   4.288575   5.833256   3.098565
                   11         12         13         14         15
    11  C    0.000000
    12  C    1.501757   0.000000
    13  H    3.772572   3.343107   0.000000
    14  H    3.224129   3.197036   1.771239   0.000000
    15  H    3.388823   4.611752   4.461546   3.907800   0.000000
    16  H    3.868298   5.367062   6.471824   5.611642   2.486326
    17  H    2.142524   2.764441   5.798641   5.081531   4.942413
    18  H    2.173235   1.088968   4.212973   3.898925   5.498062
    19  H    2.133094   1.097550   3.548209   3.890713   4.941872
                   16         17         18         19
    16  H    0.000000
    17  H    4.280574   0.000000
    18  H    5.922617   2.520875   0.000000
    19  H    5.779469   3.284433   1.760816   0.000000
 Stoichiometry    C9H7BrO2
 Framework group  C1[X(C9H7BrO2)]
 Deg. of freedom    51
 Full point group                 C1      NOp   1
 Largest Abelian subgroup         C1      NOp   1
 Largest concise Abelian subgroup C1      NOp   1
                         Standard orientation:                         
 ---------------------------------------------------------------------
 Center     Atomic      Atomic             Coordinates (Angstroms)
 Number     Number       Type             X           Y           Z
 ---------------------------------------------------------------------
      1          8           0        4.175534   -1.581028   -0.487284
      2          6           0        3.317935   -0.822637   -0.126449
      3          6           0        3.437733    0.670273   -0.387283
      4          8           0        2.490127    1.466638    0.296746
      5          6           0        1.200551    1.033028    0.194482
      6          6           0        0.188530    1.962311    0.021326
      7          6           0       -1.126695    1.536791   -0.056234
      8          6           0       -1.410215    0.183084    0.027332
      9         35           0       -3.205651   -0.407056   -0.102950
     10          6           0       -0.400452   -0.746576    0.207247
     11          6           0        0.916190   -0.323723    0.309332
     12          6           0        2.057913   -1.259155    0.586299
     13          1           0        4.425410    1.006333   -0.076188
     14          1           0        3.349032    0.820197   -1.470481
     15          1           0        0.440022    3.011724   -0.054228
     16          1           0       -1.923928    2.253991   -0.193511
     17          1           0       -0.636002   -1.800343    0.282868
     18          1           0        1.835980   -2.292657    0.324631
     19          1           0        2.293051   -1.237529    1.658147
 ---------------------------------------------------------------------
 Rotational constants (GHZ):           1.9361063           0.3082250           0.2714253
 Standard basis: def2TZVP (5D, 7F)
 There are   493 symmetry adapted cartesian basis functions of A   symmetry.
 There are   431 symmetry adapted basis functions of A   symmetry.
   431 basis functions,   731 primitive gaussians,   493 cartesian basis functions
    56 alpha electrons       56 beta electrons
       nuclear repulsion energy       908.8638546998 Hartrees.
 NAtoms=   19 NActive=   19 NUniq=   19 SFac= 1.00D+00 NAtFMM=   60 NAOKFM=F Big=F
 Integral buffers will be    131072 words long.
 Raffenetti 2 integral format.
 Two-electron integral symmetry is turned on.
 Nuclear repulsion after empirical dispersion term =      908.8527924377 Hartrees.
 One-electron integrals computed using PRISM.
   1 Symmetry operations used in ECPInt.
 ECPInt:  NShTT=   13695 NPrTT=   45780 LenC2=   12865 LenP2D=   32001.
 LDataN:  DoStor=T MaxTD1= 6 Len=  172
 NBasis=   431 RedAO= T EigKep=  7.27D-06  NBF=   431
 NBsUse=   431 1.00D-06 EigRej= -1.00D+00 NBFU=   431
 ExpMin= 9.52D-02 ExpMax= 5.65D+05 ExpMxC= 5.46D+03 IAcc=3 IRadAn=         5 AccDes= 0.00D+00
 Harris functional with IExCor= 4639 and IRadAn=       5 diagonalized for initial guess.
 HarFok:  IExCor= 4639 AccDes= 0.00D+00 IRadAn=         5 IDoV= 1 UseB2=F ITyADJ=14
 ICtDFT=  3500011 ScaDFX=  1.000000  1.000000  1.000000  1.000000
 FoFCou: FMM=F IPFlag=           0 FMFlag=      100000 FMFlg1=           0
         NFxFlg=           0 DoJE=T BraDBF=F KetDBF=T FulRan=T
         wScrn=  0.000000 ICntrl=       500 IOpCl=  0 I1Cent=   200000004 NGrid=           0
         NMat0=    1 NMatS0=      1 NMatT0=    0 NMatD0=    1 NMtDS0=    0 NMtDT0=    0
 Petite list used in FoFCou.
 Requested convergence on RMS density matrix=1.00D-08 within 128 cycles.
 Requested convergence on MAX density matrix=1.00D-06.
 Requested convergence on             energy=1.00D-06.
 No special actions if energy rises.
 Integral accuracy reduced to 1.0D-05 until final iterations.
 Initial convergence to 1.0D-05 achieved.  Increase integral accuracy.
 SCF Done:  E(RwB97XD) =  -3071.84574776     A.U. after   22 cycles
            NFock= 22  Conv=0.73D-08     -V/T= 2.0019

 **********************************************************************

            Population analysis using the SCF Density.

 **********************************************************************

 Orbital symmetries:
       Occupied  (A) (A) (A) (A) (A) (A) (A) (A) (A) (A) (A) (A)
                 (A) (A) (A) (A) (A) (A) (A) (A) (A) (A) (A) (A)
                 (A) (A) (A) (A) (A) (A) (A) (A) (A) (A) (A) (A)
                 (A) (A) (A) (A) (A) (A) (A) (A) (A) (A) (A) (A)
                 (A) (A) (A) (A) (A) (A) (A) (A)
       Virtual   (A) (A) (A) (A) (A) (A) (A) (A) (A) (A) (A) (A)
                 (A) (A) (A) (A) (A) (A) (A) (A) (A) (A) (A) (A)
                 (A) (A) (A) (A) (A) (A) (A) (A) (A) (A) (A) (A)
                 (A) (A) (A) (A) (A) (A) (A) (A) (A) (A) (A) (A)
                 (A) (A) (A) (A) (A) (A) (A) (A) (A) (A) (A) (A)
                 (A) (A) (A) (A) (A) (A) (A) (A) (A) (A) (A) (A)
                 (A) (A) (A) (A) (A) (A) (A) (A) (A) (A) (A) (A)
                 (A) (A) (A) (A) (A) (A) (A) (A) (A) (A) (A) (A)
                 (A) (A) (A) (A) (A) (A) (A) (A) (A) (A) (A) (A)
                 (A) (A) (A) (A) (A) (A) (A) (A) (A) (A) (A) (A)
                 (A) (A) (A) (A) (A) (A) (A) (A) (A) (A) (A) (A)
                 (A) (A) (A) (A) (A) (A) (A) (A) (A) (A) (A) (A)
                 (A) (A) (A) (A) (A) (A) (A) (A) (A) (A) (A) (A)
                 (A) (A) (A) (A) (A) (A) (A) (A) (A) (A) (A) (A)
                 (A) (A) (A) (A) (A) (A) (A) (A) (A) (A) (A) (A)
                 (A) (A) (A) (A) (A) (A) (A) (A) (A) (A) (A) (A)
                 (A) (A) (A) (A) (A) (A) (A) (A) (A) (A) (A) (A)
                 (A) (A) (A) (A) (A) (A) (A) (A) (A) (A) (A) (A)
                 (A) (A) (A) (A) (A) (A) (A) (A) (A) (A) (A) (A)
                 (A) (A) (A) (A) (A) (A) (A) (A) (A) (A) (A) (A)
                 (A) (A) (A) (A) (A) (A) (A) (A) (A) (A) (A) (A)
                 (A) (A) (A) (A) (A) (A) (A) (A) (A) (A) (A) (A)
                 (A) (A) (A) (A) (A) (A) (A) (A) (A) (A) (A) (A)
                 (A) (A) (A) (A) (A) (A) (A) (A) (A) (A) (A) (A)
                 (A) (A) (A) (A) (A) (A) (A) (A) (A) (A) (A) (A)
                 (A) (A) (A) (A) (A) (A) (A) (A) (A) (A) (A) (A)
                 (A) (A) (A) (A) (A) (A) (A) (A) (A) (A) (A) (A)
                 (A) (A) (A) (A) (A) (A) (A) (A) (A) (A) (A) (A)
                 (A) (A) (A) (A) (A) (A) (A) (A) (A) (A) (A) (A)
                 (A) (A) (A) (A) (A) (A) (A) (A) (A) (A) (A) (A)
                 (A) (A) (A) (A) (A) (A) (A) (A) (A) (A) (A) (A)
                 (A) (A) (A)
 The electronic state is 1-A.
 Alpha  occ. eigenvalues -- -483.13351 -62.68192 -56.47309 -56.46951 -56.46945
 Alpha  occ. eigenvalues --  -19.29919 -19.25813 -10.39573 -10.36317 -10.36181
 Alpha  occ. eigenvalues --  -10.35283 -10.32111 -10.31808 -10.31349 -10.31158
 Alpha  occ. eigenvalues --  -10.30688  -8.82309  -6.64471  -6.63319  -6.63301
 Alpha  occ. eigenvalues --   -2.74863  -2.74520  -2.74508  -2.73576  -2.73576
 Alpha  occ. eigenvalues --   -1.19726  -1.16970  -0.99596  -0.92816  -0.91122
 Alpha  occ. eigenvalues --   -0.86235  -0.84657  -0.79603  -0.73112  -0.71764
 Alpha  occ. eigenvalues --   -0.65592  -0.63628  -0.60782  -0.60224  -0.56457
 Alpha  occ. eigenvalues --   -0.55981  -0.54687  -0.53882  -0.52939  -0.51362
 Alpha  occ. eigenvalues --   -0.50407  -0.48964  -0.46616  -0.46329  -0.44105
 Alpha  occ. eigenvalues --   -0.42820  -0.38880  -0.37853  -0.36073  -0.34191
 Alpha  occ. eigenvalues --   -0.31413
 Alpha virt. eigenvalues --    0.02442   0.04234   0.04422   0.06905   0.10524
 Alpha virt. eigenvalues --    0.13481   0.14059   0.15320   0.15933   0.17276
 Alpha virt. eigenvalues --    0.17838   0.18525   0.19831   0.20955   0.21802
 Alpha virt. eigenvalues --    0.22784   0.23483   0.25312   0.26238   0.27060
 Alpha virt. eigenvalues --    0.27152   0.28102   0.28342   0.29081   0.30206
 Alpha virt. eigenvalues --    0.30577   0.32367   0.33135   0.34491   0.35126
 Alpha virt. eigenvalues --    0.35358   0.35890   0.36645   0.37058   0.37297
 Alpha virt. eigenvalues --    0.38695   0.39250   0.40555   0.41567   0.42085
 Alpha virt. eigenvalues --    0.43204   0.44381   0.44557   0.45752   0.46277
 Alpha virt. eigenvalues --    0.46762   0.47636   0.48348   0.49038   0.49300
 Alpha virt. eigenvalues --    0.49945   0.50569   0.51263   0.52087   0.52700
 Alpha virt. eigenvalues --    0.52961   0.54666   0.56125   0.57091   0.57420
 Alpha virt. eigenvalues --    0.60139   0.60653   0.61292   0.62726   0.63442
 Alpha virt. eigenvalues --    0.65134   0.66316   0.66636   0.68251   0.70027
 Alpha virt. eigenvalues --    0.71909   0.73086   0.74350   0.74926   0.76680
 Alpha virt. eigenvalues --    0.77830   0.77974   0.79644   0.80153   0.81595
 Alpha virt. eigenvalues --    0.85058   0.85908   0.86919   0.88092   0.88971
 Alpha virt. eigenvalues --    0.89190   0.91272   0.92082   0.92905   0.94962
 Alpha virt. eigenvalues --    0.96546   0.97928   0.98411   0.99931   1.01007
 Alpha virt. eigenvalues --    1.03031   1.03970   1.04313   1.05883   1.07030
 Alpha virt. eigenvalues --    1.10164   1.11232   1.11710   1.13164   1.15980
 Alpha virt. eigenvalues --    1.16642   1.17436   1.18908   1.22805   1.23755
 Alpha virt. eigenvalues --    1.25557   1.27347   1.27740   1.29519   1.29983
 Alpha virt. eigenvalues --    1.30990   1.31911   1.34585   1.35934   1.37766
 Alpha virt. eigenvalues --    1.39866   1.42572   1.43298   1.44744   1.44835
 Alpha virt. eigenvalues --    1.46320   1.48747   1.49570   1.50041   1.52202
 Alpha virt. eigenvalues --    1.54826   1.55878   1.56747   1.57024   1.58815
 Alpha virt. eigenvalues --    1.60243   1.61436   1.61824   1.62914   1.63958
 Alpha virt. eigenvalues --    1.65106   1.66403   1.66792   1.68163   1.68931
 Alpha virt. eigenvalues --    1.70201   1.70526   1.71204   1.72573   1.73821
 Alpha virt. eigenvalues --    1.75646   1.76207   1.77391   1.78672   1.80537
 Alpha virt. eigenvalues --    1.81259   1.82030   1.84642   1.86369   1.88207
 Alpha virt. eigenvalues --    1.90071   1.91851   1.93675   1.96366   1.96699
 Alpha virt. eigenvalues --    1.97731   1.99325   2.00893   2.01143   2.03642
 Alpha virt. eigenvalues --    2.03801   2.07550   2.08194   2.10332   2.11589
 Alpha virt. eigenvalues --    2.14282   2.15842   2.18033   2.22147   2.22702
 Alpha virt. eigenvalues --    2.25145   2.25218   2.26733   2.26829   2.28755
 Alpha virt. eigenvalues --    2.31306   2.33457   2.35659   2.36914   2.40025
 Alpha virt. eigenvalues --    2.42077   2.44181   2.48288   2.49157   2.51680
 Alpha virt. eigenvalues --    2.53580   2.55103   2.57165   2.59494   2.60019
 Alpha virt. eigenvalues --    2.62343   2.63322   2.65100   2.68919   2.69878
 Alpha virt. eigenvalues --    2.70620   2.72321   2.73301   2.75518   2.76500
 Alpha virt. eigenvalues --    2.78674   2.80013   2.80243   2.81202   2.81915
 Alpha virt. eigenvalues --    2.84910   2.86568   2.87731   2.88587   2.90888
 Alpha virt. eigenvalues --    2.91550   2.91663   2.94212   2.96024   2.96630
 Alpha virt. eigenvalues --    2.98588   3.00246   3.01464   3.02166   3.04164
 Alpha virt. eigenvalues --    3.05331   3.06831   3.08532   3.10454   3.10693
 Alpha virt. eigenvalues --    3.11801   3.14051   3.15833   3.16553   3.18037
 Alpha virt. eigenvalues --    3.19568   3.20747   3.22510   3.23944   3.25494
 Alpha virt. eigenvalues --    3.26563   3.27279   3.28733   3.29298   3.30090
 Alpha virt. eigenvalues --    3.32205   3.33975   3.34931   3.36439   3.36923
 Alpha virt. eigenvalues --    3.37780   3.39567   3.40602   3.42425   3.44520
 Alpha virt. eigenvalues --    3.45139   3.46935   3.48457   3.49339   3.51499
 Alpha virt. eigenvalues --    3.51543   3.52845   3.53491   3.54101   3.55610
 Alpha virt. eigenvalues --    3.56179   3.58519   3.60063   3.61451   3.64553
 Alpha virt. eigenvalues --    3.67902   3.68578   3.70560   3.73126   3.74399
 Alpha virt. eigenvalues --    3.76043   3.78950   3.79941   3.83041   3.84480
 Alpha virt. eigenvalues --    3.89758   3.91010   3.94897   3.96201   3.99509
 Alpha virt. eigenvalues --    4.00124   4.02029   4.06002   4.09589   4.10211
 Alpha virt. eigenvalues --    4.11031   4.12968   4.14691   4.17792   4.19664
 Alpha virt. eigenvalues --    4.22754   4.24909   4.26222   4.28532   4.28806
 Alpha virt. eigenvalues --    4.31409   4.32144   4.33527   4.34821   4.37878
 Alpha virt. eigenvalues --    4.39655   4.41859   4.46028   4.46853   4.49116
 Alpha virt. eigenvalues --    4.49956   4.56232   4.58900   4.62201   4.65168
 Alpha virt. eigenvalues --    4.66400   4.69310   4.72299   4.77082   4.78387
 Alpha virt. eigenvalues --    4.85561   4.89168   4.92320   4.93603   4.97789
 Alpha virt. eigenvalues --    5.00180   5.05100   5.14702   5.22155   5.25830
 Alpha virt. eigenvalues --    5.27613   5.28787   5.39521   5.46944   5.50801
 Alpha virt. eigenvalues --    5.52763   5.59814   5.64668   5.69645   5.78915
 Alpha virt. eigenvalues --    6.02075   6.02222   6.10442   6.23303   6.40108
 Alpha virt. eigenvalues --    6.47029   6.47679   6.55647   6.63369   6.67850
 Alpha virt. eigenvalues --    6.79820   6.88983   6.90768   7.05020   7.08179
 Alpha virt. eigenvalues --    7.17165   7.31548   7.44960   7.86065  22.15128
 Alpha virt. eigenvalues --   22.56519  22.65755  22.79386  22.86489  22.98339
 Alpha virt. eigenvalues --   23.02465  23.19159  23.52728  43.98767  44.36392
          Condensed to atoms (all electrons):
               1          2          3          4          5          6
     1  O    7.806218   0.651396  -0.080805   0.003804   0.003644  -0.000135
     2  C    0.651396   4.753492   0.304387  -0.047272  -0.020674   0.003267
     3  C   -0.080805   0.304387   4.964332   0.246469  -0.056560  -0.000275
     4  O    0.003804  -0.047272   0.246469   7.944052   0.302045  -0.032080
     5  C    0.003644  -0.020674  -0.056560   0.302045   5.104393   0.269243
     6  C   -0.000135   0.003267  -0.000275  -0.032080   0.269243   5.310779
     7  C    0.000013  -0.000431   0.000929   0.004327   0.112253   0.249518
     8  C   -0.000073   0.000287  -0.000960  -0.000086  -0.151198   0.138545
     9  Br  -0.000000   0.000029  -0.000026   0.000003  -0.004134   0.021433
    10  C   -0.000545  -0.004278   0.001666   0.005834   0.099058  -0.192240
    11  C    0.015975   0.019987   0.061398  -0.111395   0.239877   0.085001
    12  C   -0.119172   0.295557  -0.241638   0.059729  -0.074241   0.002242
    13  H    0.004706  -0.020842   0.389245  -0.025037   0.002235  -0.002104
    14  H    0.003936  -0.044874   0.391666  -0.041064   0.018311   0.009704
    15  H   -0.000004   0.000297  -0.000059   0.007862  -0.073738   0.451811
    16  H    0.000000  -0.000014   0.000047  -0.000132   0.016499  -0.065484
    17  H    0.000030  -0.000297   0.000085  -0.000163   0.012658  -0.005125
    18  H    0.009926  -0.025362   0.011212  -0.000412   0.005957   0.000088
    19  H    0.002607  -0.007650   0.004525  -0.000860   0.002481   0.002582
               7          8          9         10         11         12
     1  O    0.000013  -0.000073  -0.000000  -0.000545   0.015975  -0.119172
     2  C   -0.000431   0.000287   0.000029  -0.004278   0.019987   0.295557
     3  C    0.000929  -0.000960  -0.000026   0.001666   0.061398  -0.241638
     4  O    0.004327  -0.000086   0.000003   0.005834  -0.111395   0.059729
     5  C    0.112253  -0.151198  -0.004134   0.099058   0.239877  -0.074241
     6  C    0.249518   0.138545   0.021433  -0.192240   0.085001   0.002242
     7  C    5.188694   0.299445  -0.087413   0.104393  -0.141588  -0.002719
     8  C    0.299445   4.940681   0.365039   0.294106   0.095796   0.012882
     9  Br  -0.087413   0.365039  34.842413  -0.085428   0.022809  -0.000880
    10  C    0.104393   0.294106  -0.085428   5.449792   0.215870  -0.053847
    11  C   -0.141588   0.095796   0.022809   0.215870   5.499304   0.025678
    12  C   -0.002719   0.012882  -0.000880  -0.053847   0.025678   5.495262
    13  H    0.000102  -0.000050   0.000000   0.000306  -0.000226   0.007762
    14  H   -0.001239   0.000425   0.000003  -0.002645  -0.014400   0.009949
    15  H   -0.055655   0.012793  -0.000189  -0.005375   0.018808  -0.000535
    16  H    0.457507  -0.071938  -0.004945   0.019926  -0.006729   0.000098
    17  H    0.016311  -0.048953  -0.004186   0.430342  -0.053959  -0.001861
    18  H    0.000052   0.000690  -0.000008   0.000832  -0.026347   0.383972
    19  H   -0.000354  -0.000013   0.000000  -0.008935  -0.015826   0.345604
              13         14         15         16         17         18
     1  O    0.004706   0.003936  -0.000004   0.000000   0.000030   0.009926
     2  C   -0.020842  -0.044874   0.000297  -0.000014  -0.000297  -0.025362
     3  C    0.389245   0.391666  -0.000059   0.000047   0.000085   0.011212
     4  O   -0.025037  -0.041064   0.007862  -0.000132  -0.000163  -0.000412
     5  C    0.002235   0.018311  -0.073738   0.016499   0.012658   0.005957
     6  C   -0.002104   0.009704   0.451811  -0.065484  -0.005125   0.000088
     7  C    0.000102  -0.001239  -0.055655   0.457507   0.016311   0.000052
     8  C   -0.000050   0.000425   0.012793  -0.071938  -0.048953   0.000690
     9  Br   0.000000   0.000003  -0.000189  -0.004945  -0.004186  -0.000008
    10  C    0.000306  -0.002645  -0.005375   0.019926   0.430342   0.000832
    11  C   -0.000226  -0.014400   0.018808  -0.006729  -0.053959  -0.026347
    12  C    0.007762   0.009949  -0.000535   0.000098  -0.001861   0.383972
    13  H    0.518024  -0.020987  -0.000149  -0.000000  -0.000000  -0.000336
    14  H   -0.020987   0.571740  -0.000004  -0.000001  -0.000028  -0.000378
    15  H   -0.000149  -0.000004   0.517707  -0.007594   0.000031   0.000013
    16  H   -0.000000  -0.000001  -0.007594   0.520905   0.000079  -0.000000
    17  H   -0.000000  -0.000028   0.000031   0.000079   0.513615   0.002759
    18  H   -0.000336  -0.000378   0.000013  -0.000000   0.002759   0.508834
    19  H   -0.000632   0.000309   0.000031  -0.000002  -0.000151  -0.013447
              19
     1  O    0.002607
     2  C   -0.007650
     3  C    0.004525
     4  O   -0.000860
     5  C    0.002481
     6  C    0.002582
     7  C   -0.000354
     8  C   -0.000013
     9  Br   0.000000
    10  C   -0.008935
    11  C   -0.015826
    12  C    0.345604
    13  H   -0.000632
    14  H    0.000309
    15  H    0.000031
    16  H   -0.000002
    17  H   -0.000151
    18  H   -0.013447
    19  H    0.550339
 Mulliken charges:
               1
     1  O   -0.301520
     2  C    0.142996
     3  C    0.004362
     4  O   -0.315623
     5  C    0.191891
     6  C   -0.246768
     7  C   -0.144145
     8  C    0.112582
     9  Br  -0.064519
    10  C   -0.268831
    11  C    0.069967
    12  C   -0.143841
    13  H    0.147982
    14  H    0.119578
    15  H    0.133951
    16  H    0.141779
    17  H    0.138811
    18  H    0.141955
    19  H    0.139392
 Sum of Mulliken charges =  -0.00000
 Mulliken charges with hydrogens summed into heavy atoms:
               1
     1  O   -0.301520
     2  C    0.142996
     3  C    0.271922
     4  O   -0.315623
     5  C    0.191891
     6  C   -0.112817
     7  C   -0.002366
     8  C    0.112582
     9  Br  -0.064519
    10  C   -0.130019
    11  C    0.069967
    12  C    0.137506
 Electronic spatial extent (au):  <R**2>=           3525.0494
 Charge=             -0.0000 electrons
 Dipole moment (field-independent basis, Debye):
    X=              0.0040    Y=              1.2620    Z=              0.4364  Tot=              1.3353
 Quadrupole moment (field-independent basis, Debye-Ang):
   XX=            -91.6014   YY=            -79.3709   ZZ=            -81.6823
   XY=              5.6149   XZ=              2.3116   YZ=             -3.8610
 Traceless Quadrupole moment (field-independent basis, Debye-Ang):
   XX=             -7.3832   YY=              4.8473   ZZ=              2.5359
   XY=              5.6149   XZ=              2.3116   YZ=             -3.8610
 Octapole moment (field-independent basis, Debye-Ang**2):
  XXX=           -118.4795  YYY=             -2.9217  ZZZ=             -3.6905  XYY=            -47.4510
  XXY=             38.0028  XXZ=              9.0305  XZZ=            -18.9113  YZZ=             -6.6573
  YYZ=             -0.4236  XYZ=            -10.7023
 Hexadecapole moment (field-independent basis, Debye-Ang**3):
 XXXX=          -3373.1525 YYYY=           -655.3268 ZZZZ=           -137.9214 XXXY=            253.0503
 XXXZ=             70.3033 YYYX=             44.3172 YYYZ=             -6.2253 ZZZX=              6.6461
 ZZZY=              0.5907 XXYY=           -717.4923 XXZZ=           -552.0260 YYZZ=           -145.1911
 XXYZ=            -39.1011 YYXZ=             10.4461 ZZXY=             11.6563
 N-N= 9.088527924377D+02 E-N=-9.130542803384D+03  KE= 3.066013453870D+03
 There are a total of      437694 grid points.
 ElSum from          density=      111.9999920073
 ElSum from atomic densities=      111.9999727030

 Hirshfeld populations at iteration   1 (CX, CA, CB, DipXYZ):
               1          2          3          4          5          6
     1  O    0.000000   4.124696   4.124696  -0.078515   0.069453   0.032204
     2  C    0.000000   2.916360   2.916360  -0.034596   0.032428   0.022032
     3  C    0.000000   2.987427   2.987427  -0.031709   0.037570   0.033603
     4  O    0.000000   4.072216   4.072216  -0.030037  -0.107730  -0.070090
     5  C    0.000000   2.967232   2.967232   0.113422   0.040294   0.014483
     6  C    0.000000   3.023342   3.023342   0.011993   0.062986   0.004794
     7  C    0.000000   3.021570   3.021570  -0.027456   0.053971  -0.005169
     8  C    0.000000   3.002374   3.002374  -0.054458  -0.016770  -0.003985
     9  Br   0.000000  17.521671  17.521671   0.052956   0.019939   0.003402
    10  C    0.000000   3.022990   3.022990   0.010659  -0.055332   0.009955
    11  C    0.000000   3.006973   3.006973   0.046006  -0.049502   0.018591
    12  C    0.000000   3.026462   3.026462  -0.007365  -0.005334   0.001010
    13  H    0.000000   0.468764   0.468764   0.147383   0.056469   0.045444
    14  H    0.000000   0.473759   0.473759  -0.003248   0.027070  -0.151229
    15  H    0.000000   0.472523   0.472523   0.028453   0.161952  -0.011800
    16  H    0.000000   0.474531   0.474531  -0.103426   0.122798  -0.020001
    17  H    0.000000   0.475541   0.475541  -0.018001  -0.155947   0.013044
    18  H    0.000000   0.471934   0.471934  -0.036548  -0.149822  -0.034260
    19  H    0.000000   0.469630   0.469630   0.033193  -0.003396   0.157357
       Tot   0.000000  55.999996  55.999996   0.018706   0.141098   0.059384

 Dip from Atomic Chgs             -0.017107   0.355384   0.112282
         Total Dipole              0.001599   0.496482   0.171666

 Hirshfeld charges, spin densities, dipoles, and CM5 charges using IRadAn=      5:
              Q-H        S-H        Dx         Dy         Dz        Q-CM5   
     1  O   -0.249393   0.000000  -0.078515   0.069453   0.032204  -0.300296
     2  C    0.167280   0.000000  -0.034596   0.032428   0.022032   0.191462
     3  C    0.025146   0.000000  -0.031709   0.037570   0.033603  -0.046231
     4  O   -0.144432   0.000000  -0.030037  -0.107730  -0.070090  -0.224975
     5  C    0.065536   0.000000   0.113422   0.040294   0.014483   0.084792
     6  C   -0.046683   0.000000   0.011993   0.062986   0.004794  -0.097132
     7  C   -0.043141   0.000000  -0.027456   0.053971  -0.005169  -0.096866
     8  C   -0.004748   0.000000  -0.054458  -0.016770  -0.003985  -0.026133
     9  Br  -0.043342   0.000000   0.052956   0.019939   0.003402  -0.028337
    10  C   -0.045980   0.000000   0.010659  -0.055332   0.009955  -0.097326
    11  C   -0.013945   0.000000   0.046006  -0.049502   0.018591  -0.022841
    12  C   -0.052924   0.000000  -0.007365  -0.005334   0.001010  -0.146224
    13  H    0.062472   0.000000   0.147383   0.056469   0.045444   0.129161
    14  H    0.052482   0.000000  -0.003248   0.027070  -0.151229   0.117469
    15  H    0.054953   0.000000   0.028453   0.161952  -0.011800   0.114182
    16  H    0.050938   0.000000  -0.103426   0.122798  -0.020001   0.108206
    17  H    0.048917   0.000000  -0.018001  -0.155947   0.013044   0.106856
    18  H    0.056132   0.000000  -0.036548  -0.149822  -0.034260   0.115299
    19  H    0.060741   0.000000   0.033193  -0.003396   0.157357   0.118941
       Tot   0.000008   0.000000   0.018706   0.141098   0.059384   0.000008
 Hirshfeld charges with hydrogens summed into heavy atoms:
              Q-H       Q-CM5   
     1  O   -0.249393  -0.300296
     2  C    0.167280   0.191462
     3  C    0.140100   0.200400
     4  O   -0.144432  -0.224975
     5  C    0.065536   0.084792
     6  C    0.008270   0.017050
     7  C    0.007797   0.011341
     8  C   -0.004748  -0.026133
     9  Br  -0.043342  -0.028337
    10  C    0.002937   0.009530
    11  C   -0.013945  -0.022841
    12  C    0.063949   0.088016
 
 EQQ= 0.000000000000E+00 EQD= 0.000000000000E+00 EDD= 0.314490640465E-02
 EQQ+QD+DD= 0.314490640465E-02
 
 Running external command "gaunbo6 R"
         input file       "/home/rpaton/opt/tzvp/popn/Gau-2191975.EIn"
         output file      "/home/rpaton/opt/tzvp/popn/Gau-2191975.EOu"
         message file     "/home/rpaton/opt/tzvp/popn/Gau-2191975.EMs"
         fchk file        "/home/rpaton/opt/tzvp/popn/Gau-2191975.EFC"
         mat. el file     "/home/rpaton/opt/tzvp/popn/Gau-2191975.EUF"

 Writing WrtUnf unformatted file "/home/rpaton/opt/tzvp/popn/Gau-2191975.EUF"
 Gaussian matrix elements                                         Version   2 NLab=11 Len12L=8 Len4L=8
 Write SHELL TO ATOM MAP                   from file      0 offset           0 length                 165 to matrix element file.
 Write SHELL TYPES                         from file      0 offset           0 length                 165 to matrix element file.
 Write NUMBER OF PRIMITIVES PER SHELL      from file      0 offset           0 length                 165 to matrix element file.
 Write PRIMITIVE EXPONENTS                 from file      0 offset           0 length                 301 to matrix element file.
 Write CONTRACTION COEFFICIENTS            from file      0 offset           0 length                 301 to matrix element file.
 Write P(S=P) CONTRACTION COEFFICIENTS     from file      0 offset           0 length                 301 to matrix element file.
 Write COORDINATES OF EACH SHELL           from file      0 offset           0 length                 495 to matrix element file.
 Write BONDS PER ATOM                      from file      0 offset           0 length                  19 to matrix element file.
 Write BONDED ATOMS                        from file      0 offset           0 length                  40 to matrix element file.
 Write BOND TYPES                          from file      0 offset           0 length                  40 to matrix element file.
 Write ONIOM CHARGE/MULT                   from file      0 offset           0 length                  32 to matrix element file.
 Write ONIOM ATOM LAYERS                   from file      0 offset           0 length                  19 to matrix element file.
 Write ONIOM ATOM MODIFIERS                from file      0 offset           0 length                  19 to matrix element file.
 Write ONIOM ATOM TYPES                    from file      0 offset           0 length                  19 to matrix element file.
 Write ONIOM LINK ATOMS                    from file      0 offset           0 length                  19 to matrix element file.
 Write ONIOM LINK CHARGES                  from file      0 offset           0 length                  19 to matrix element file.
 Write ONIOM LINK DISTANCES                from file      0 offset           0 length                  76 to matrix element file.
 Write SYMINF INTS                         from file      0 offset           0 length                  26 to matrix element file.
 Write ROTTR TO SO                         from file      0 offset           0 length                  12 to matrix element file.
 Write GAUSSIAN SCALARS                    from file    501 offset           0 to matrix element file.
 Write OPTIMIZATION FLAGS                  from file      0 offset           0 length                  19 to matrix element file.
 Write INTEGER ISO                         from file      0 offset           0 length                  19 to matrix element file.
 Write INTEGER SPIN                        from file      0 offset           0 length                  19 to matrix element file.
 Write REAL ZEFFECTIVE                     from file      0 offset           0 length                  19 to matrix element file.
 Write REAL QUADRUPOLEMOMENT               from file      0 offset           0 length                  19 to matrix element file.
 Write REAL GFACTOR                        from file      0 offset           0 length                  19 to matrix element file.
 Write REAL ZNUCLEAR                       from file      0 offset           0 length                  19 to matrix element file.
 Write MULLIKEN CHARGES                    from file      0 offset           0 length                  19 to matrix element file.
 Write TYPE 6 CHARGES                      from file      0 offset           0 length                  19 to matrix element file.
 Write TYPE 7 CHARGES                      from file      0 offset           0 length                  19 to matrix element file.
 Write NUCLEAR GRADIENT                    from file  10584 offset           0 length                  57 to matrix element file.
 Array NUCLEAR FORCE CONSTANTS              on  file  10585 does not exist.
 Write ELECTRIC DIPOLE MOMENT              from file      0 offset           0 length                   3 to matrix element file.
 Write NON-ADIABATIC COUPLING              from file  10810 offset           0 length                  57 to matrix element file.
 Write FINITE EM FIELD                     from file  10521 offset           0 length                  35 to matrix element file.
 Write OVERLAP                             from file  10514 offset           0 length               93096 to matrix element file.
 Write CORE HAMILTONIAN ALPHA              from file  10515 offset           0 length               93096 to matrix element file.
 Write CORE HAMILTONIAN BETA               from file  10515 offset       93096 length               93096 to matrix element file.
 Write KINETIC ENERGY                      from file  10516 offset           0 length               93096 to matrix element file.
 Write ORTHOGONAL BASIS                    from file  10685 offset           0 length              185761 to matrix element file.
 Write DIPOLE INTEGRALS                    from file  10518 offset           0 length              279288 to matrix element file.
 Array DIP VEL INTEGRALS                    on  file  10572 does not exist.
 Array R X DEL INTEGRALS                    on  file  10572 does not exist.
 Write ALPHA ORBITAL ENERGIES              from file      0 offset           0 length                 431 to matrix element file.
 Write ALPHA MO COEFFICIENTS               from file  10524 offset           0 length              185761 to matrix element file.
 Write ALPHA DENSITY MATRIX                from file      0 offset           0 length               93096 to matrix element file.
 Write ALPHA FOCK MATRIX                   from file  10536 offset           0 length               93096 to matrix element file.
 Write ENERGY-WEIGHTED DENSITY             from file  10571 offset           0 length               93096 to matrix element file.
 Write ALPHA SCF DENSITY MATRIX            from file      0 offset           0 length               93096 to matrix element file.
 Write INTEGER PARAMETERS                  from file      0 offset           0 length                   2 to matrix element file.
 No 2e integrals to process.
 Perform NBO analysis...

 *********************************** NBO 7.0 ***********************************
             N A T U R A L   A T O M I C   O R B I T A L   A N D
          N A T U R A L   B O N D   O R B I T A L   A N A L Y S I S
 **************************** Robert Paton (I101709) ***************************
  (c) Copyright 1996-2019 Board of Regents of the University of Wisconsin System
      on behalf of the Theoretical Chemistry Institute.  All rights reserved.

          Cite this program [NBO 7.0.5 (4-Jun-2019)] as:

          NBO 7.0.  E. D. Glendening, J. K. Badenhoop, A. E. Reed,
          J. E. Carpenter, J. A. Bohmann, C. M. Morales, P. Karafiloglou,
          C. R. Landis, and F. Weinhold, Theoretical Chemistry Institute,
          University of Wisconsin, Madison, WI (2018)

       /AONBO  / : Checkpoint the AO to NBO transformation
                   NBOs sorted by occupancy
       /BNDIDX / : Print bond indices based on the NAO density matrix

 Filename set to /home/rpaton/opt/tzvp/popn/Gau-2191975

 Job title:  arbr47_wb97xd_popncreated by GaussianPrep


 NATURAL POPULATIONS:  Natural atomic orbital occupancies

  NAO Atom No lang   Type(AO)    Occupancy      Energy
 -------------------------------------------------------
   1    O  1  s      Cor( 1s)     1.99999     -19.25783
   2    O  1  s      Val( 2s)     1.69211      -0.75265
   3    O  1  s      Ryd( 3s)     0.00026       1.31094
   4    O  1  s      Ryd( 4s)     0.00001       4.93535
   5    O  1  s      Ryd( 5s)     0.00000      42.25371
   6    O  1  px     Val( 2p)     1.61110      -0.33720
   7    O  1  px     Ryd( 3p)     0.00142       0.71226
   8    O  1  px     Ryd( 4p)     0.00012       3.52047
   9    O  1  py     Val( 2p)     1.74263      -0.34972
  10    O  1  py     Ryd( 3p)     0.00265       0.74509
  11    O  1  py     Ryd( 4p)     0.00010       3.50296
  12    O  1  pz     Val( 2p)     1.44280      -0.30877
  13    O  1  pz     Ryd( 3p)     0.00083       0.72774
  14    O  1  pz     Ryd( 4p)     0.00002       3.14341
  15    O  1  dxy    Ryd( 3d)     0.00652       2.12302
  16    O  1  dxy    Ryd( 4d)     0.00000       6.73703
  17    O  1  dxz    Ryd( 3d)     0.00325       1.92005
  18    O  1  dxz    Ryd( 4d)     0.00001       6.62651
  19    O  1  dyz    Ryd( 3d)     0.00288       1.83798
  20    O  1  dyz    Ryd( 4d)     0.00000       6.54466
  21    O  1  dx2y2  Ryd( 3d)     0.00399       2.04878
  22    O  1  dx2y2  Ryd( 4d)     0.00004       6.75976
  23    O  1  dz2    Ryd( 3d)     0.00253       1.84480
  24    O  1  dz2    Ryd( 4d)     0.00000       6.55310
  25    O  1  f(0)   Ryd( 4f)     0.00003       5.58999
  26    O  1  f(c1)  Ryd( 4f)     0.00005       5.62014
  27    O  1  f(s1)  Ryd( 4f)     0.00006       5.57979
  28    O  1  f(c2)  Ryd( 4f)     0.00004       5.66861
  29    O  1  f(s2)  Ryd( 4f)     0.00011       5.81162
  30    O  1  f(c3)  Ryd( 4f)     0.00014       6.02647
  31    O  1  f(s3)  Ryd( 4f)     0.00012       5.97359

  32    C  2  s      Cor( 1s)     1.99999     -10.39560
  33    C  2  s      Val( 2s)     0.90381      -0.15886
  34    C  2  s      Ryd( 3s)     0.00704       1.78391
  35    C  2  s      Ryd( 4s)     0.00010       2.19798
  36    C  2  s      Ryd( 5s)     0.00000      19.71964
  37    C  2  px     Val( 2p)     0.83512      -0.02502
  38    C  2  px     Ryd( 3p)     0.00752       1.22534
  39    C  2  px     Ryd( 4p)     0.00025       1.28367
  40    C  2  py     Val( 2p)     0.90451      -0.02469
  41    C  2  py     Ryd( 4p)     0.00651       1.32281
  42    C  2  py     Ryd( 3p)     0.00010       1.25383
  43    C  2  pz     Val( 2p)     0.75013      -0.09132
  44    C  2  pz     Ryd( 3p)     0.00200       1.03384
  45    C  2  pz     Ryd( 4p)     0.00015       1.09037
  46    C  2  dxy    Ryd( 4d)     0.00070       3.32693
  47    C  2  dxy    Ryd( 3d)     0.00046       2.90836
  48    C  2  dxz    Ryd( 4d)     0.00080       3.33212
  49    C  2  dxz    Ryd( 3d)     0.00025       2.39000
  50    C  2  dyz    Ryd( 4d)     0.00067       3.10782
  51    C  2  dyz    Ryd( 3d)     0.00020       2.23870
  52    C  2  dx2y2  Ryd( 4d)     0.00188       3.49917
  53    C  2  dx2y2  Ryd( 3d)     0.00035       2.58216
  54    C  2  dz2    Ryd( 4d)     0.00062       3.17653
  55    C  2  dz2    Ryd( 3d)     0.00023       2.32084
  56    C  2  f(0)   Ryd( 4f)     0.00014       3.39091
  57    C  2  f(c1)  Ryd( 4f)     0.00011       3.47434
  58    C  2  f(s1)  Ryd( 4f)     0.00011       3.44183
  59    C  2  f(c2)  Ryd( 4f)     0.00016       3.53073
  60    C  2  f(s2)  Ryd( 4f)     0.00011       3.51046
  61    C  2  f(c3)  Ryd( 4f)     0.00011       3.82832
  62    C  2  f(s3)  Ryd( 4f)     0.00027       3.76643

  63    C  3  s      Cor( 1s)     1.99999     -10.36170
  64    C  3  s      Val( 2s)     1.06853      -0.26321
  65    C  3  s      Ryd( 3s)     0.00229       1.47940
  66    C  3  s      Ryd( 4s)     0.00004       2.27465
  67    C  3  s      Ryd( 5s)     0.00000      21.39084
  68    C  3  px     Val( 2p)     1.01374      -0.12933
  69    C  3  px     Ryd( 3p)     0.00283       1.10164
  70    C  3  px     Ryd( 4p)     0.00015       1.33891
  71    C  3  py     Val( 2p)     0.98204      -0.10640
  72    C  3  py     Ryd( 3p)     0.00279       0.94409
  73    C  3  py     Ryd( 4p)     0.00031       1.27351
  74    C  3  pz     Val( 2p)     1.10096      -0.14352
  75    C  3  pz     Ryd( 3p)     0.00188       0.98175
  76    C  3  pz     Ryd( 4p)     0.00031       1.23437
  77    C  3  dxy    Ryd( 3d)     0.00088       2.00591
  78    C  3  dxy    Ryd( 4d)     0.00022       3.34470
  79    C  3  dxz    Ryd( 3d)     0.00135       1.94245
  80    C  3  dxz    Ryd( 4d)     0.00009       3.14698
  81    C  3  dyz    Ryd( 3d)     0.00057       1.86368
  82    C  3  dyz    Ryd( 4d)     0.00019       3.13612
  83    C  3  dx2y2  Ryd( 3d)     0.00237       2.12697
  84    C  3  dx2y2  Ryd( 4d)     0.00016       3.47839
  85    C  3  dz2    Ryd( 3d)     0.00203       2.01127
  86    C  3  dz2    Ryd( 4d)     0.00011       3.35367
  87    C  3  f(0)   Ryd( 4f)     0.00030       3.86189
  88    C  3  f(c1)  Ryd( 4f)     0.00004       3.42127
  89    C  3  f(s1)  Ryd( 4f)     0.00006       3.53756
  90    C  3  f(c2)  Ryd( 4f)     0.00002       3.58097
  91    C  3  f(s2)  Ryd( 4f)     0.00001       3.64115
  92    C  3  f(c3)  Ryd( 4f)     0.00009       3.70007
  93    C  3  f(s3)  Ryd( 4f)     0.00028       3.78944

  94    O  4  s      Cor( 1s)     1.99999     -19.29908
  95    O  4  s      Val( 2s)     1.58692      -0.77960
  96    O  4  s      Ryd( 3s)     0.00044       1.62183
  97    O  4  s      Ryd( 4s)     0.00006       7.26580
  98    O  4  s      Ryd( 5s)     0.00000      39.65133
  99    O  4  px     Val( 2p)     1.34086      -0.31195
 100    O  4  px     Ryd( 3p)     0.00172       0.99303
 101    O  4  px     Ryd( 4p)     0.00008       3.95097
 102    O  4  py     Val( 2p)     1.74952      -0.39654
 103    O  4  py     Ryd( 3p)     0.00301       0.79860
 104    O  4  py     Ryd( 4p)     0.00022       3.42921
 105    O  4  pz     Val( 2p)     1.76730      -0.39475
 106    O  4  pz     Ryd( 3p)     0.00310       0.75782
 107    O  4  pz     Ryd( 4p)     0.00010       3.11740
 108    O  4  dxy    Ryd( 3d)     0.00340       2.45875
 109    O  4  dxy    Ryd( 4d)     0.00006       6.68488
 110    O  4  dxz    Ryd( 3d)     0.00165       2.17917
 111    O  4  dxz    Ryd( 4d)     0.00006       6.65901
 112    O  4  dyz    Ryd( 3d)     0.00356       1.97081
 113    O  4  dyz    Ryd( 4d)     0.00002       6.59508
 114    O  4  dx2y2  Ryd( 3d)     0.00244       2.38689
 115    O  4  dx2y2  Ryd( 4d)     0.00006       6.77060
 116    O  4  dz2    Ryd( 3d)     0.00222       2.06314
 117    O  4  dz2    Ryd( 4d)     0.00003       6.69028
 118    O  4  f(0)   Ryd( 4f)     0.00007       5.58465
 119    O  4  f(c1)  Ryd( 4f)     0.00005       5.82311
 120    O  4  f(s1)  Ryd( 4f)     0.00004       5.52704
 121    O  4  f(c2)  Ryd( 4f)     0.00005       5.75506
 122    O  4  f(s2)  Ryd( 4f)     0.00005       5.75963
 123    O  4  f(c3)  Ryd( 4f)     0.00004       6.14388
 124    O  4  f(s3)  Ryd( 4f)     0.00007       6.02512

 125    C  5  s      Cor( 1s)     1.99999     -10.36305
 126    C  5  s      Val( 2s)     0.86066      -0.10615
 127    C  5  s      Ryd( 3s)     0.00173       1.46013
 128    C  5  s      Ryd( 4s)     0.00025       1.53386
 129    C  5  s      Ryd( 5s)     0.00000      21.38928
 130    C  5  px     Val( 2p)     0.81508      -0.01214
 131    C  5  px     Ryd( 3p)     0.00418       1.41481
 132    C  5  px     Ryd( 4p)     0.00019       1.61394
 133    C  5  py     Val( 2p)     1.03853      -0.03871
 134    C  5  py     Ryd( 3p)     0.00379       1.27421
 135    C  5  py     Ryd( 4p)     0.00031       1.77074
 136    C  5  pz     Val( 2p)     0.99060      -0.13595
 137    C  5  pz     Ryd( 3p)     0.00183       0.84428
 138    C  5  pz     Ryd( 4p)     0.00025       1.26542
 139    C  5  dxy    Ryd( 3d)     0.00115       3.48985
 140    C  5  dxy    Ryd( 4d)     0.00055       3.93319
 141    C  5  dxz    Ryd( 3d)     0.00146       2.37416
 142    C  5  dxz    Ryd( 4d)     0.00018       2.67269
 143    C  5  dyz    Ryd( 3d)     0.00044       2.44464
 144    C  5  dyz    Ryd( 4d)     0.00012       2.72137
 145    C  5  dx2y2  Ryd( 3d)     0.00086       3.47270
 146    C  5  dx2y2  Ryd( 4d)     0.00065       3.91781
 147    C  5  dz2    Ryd( 3d)     0.00058       2.95953
 148    C  5  dz2    Ryd( 4d)     0.00009       3.08695
 149    C  5  f(0)   Ryd( 4f)     0.00043       3.38338
 150    C  5  f(c1)  Ryd( 4f)     0.00025       3.47187
 151    C  5  f(s1)  Ryd( 4f)     0.00034       3.49906
 152    C  5  f(c2)  Ryd( 4f)     0.00003       3.45211
 153    C  5  f(s2)  Ryd( 4f)     0.00004       3.43591
 154    C  5  f(c3)  Ryd( 4f)     0.00025       4.04817
 155    C  5  f(s3)  Ryd( 4f)     0.00033       4.03652

 156    C  6  s      Cor( 1s)     1.99999     -10.30679
 157    C  6  s      Val( 2s)     0.97826      -0.14580
 158    C  6  s      Ryd( 4s)     0.00099       1.55720
 159    C  6  s      Ryd( 3s)     0.00005       1.52633
 160    C  6  s      Ryd( 5s)     0.00000      20.99354
 161    C  6  px     Val( 2p)     1.05017      -0.04046
 162    C  6  px     Ryd( 3p)     0.00371       1.12296
 163    C  6  px     Ryd( 4p)     0.00011       1.79728
 164    C  6  py     Val( 2p)     1.16728      -0.07907
 165    C  6  py     Ryd( 3p)     0.00327       1.26655
 166    C  6  py     Ryd( 4p)     0.00018       2.00534
 167    C  6  pz     Val( 2p)     1.01836      -0.13170
 168    C  6  pz     Ryd( 3p)     0.00146       0.77914
 169    C  6  pz     Ryd( 4p)     0.00024       1.27317
 170    C  6  dxy    Ryd( 3d)     0.00188       2.74718
 171    C  6  dxy    Ryd( 4d)     0.00023       3.82703
 172    C  6  dxz    Ryd( 3d)     0.00024       1.85824
 173    C  6  dxz    Ryd( 4d)     0.00011       3.05904
 174    C  6  dyz    Ryd( 3d)     0.00054       1.68346
 175    C  6  dyz    Ryd( 4d)     0.00005       2.89820
 176    C  6  dx2y2  Ryd( 3d)     0.00068       2.62094
 177    C  6  dx2y2  Ryd( 4d)     0.00032       3.96317
 178    C  6  dz2    Ryd( 3d)     0.00111       2.10811
 179    C  6  dz2    Ryd( 4d)     0.00002       3.45135
 180    C  6  f(0)   Ryd( 4f)     0.00044       3.28867
 181    C  6  f(c1)  Ryd( 4f)     0.00034       3.50809
 182    C  6  f(s1)  Ryd( 4f)     0.00046       3.41877
 183    C  6  f(c2)  Ryd( 4f)     0.00005       3.35159
 184    C  6  f(s2)  Ryd( 4f)     0.00003       3.38359
 185    C  6  f(c3)  Ryd( 4f)     0.00029       3.93130
 186    C  6  f(s3)  Ryd( 4f)     0.00038       3.96860

 187    C  7  s      Cor( 1s)     1.99999     -10.31145
 188    C  7  s      Val( 2s)     0.97668      -0.14692
 189    C  7  s      Ryd( 3s)     0.00091       1.39678
 190    C  7  s      Ryd( 4s)     0.00007       2.39113
 191    C  7  s      Ryd( 5s)     0.00000      21.29153
 192    C  7  px     Val( 2p)     1.11670      -0.06231
 193    C  7  px     Ryd( 3p)     0.00482       1.17327
 194    C  7  px     Ryd( 4p)     0.00024       1.95433
 195    C  7  py     Val( 2p)     1.11299      -0.07026
 196    C  7  py     Ryd( 3p)     0.00302       1.05756
 197    C  7  py     Ryd( 4p)     0.00013       2.00282
 198    C  7  pz     Val( 2p)     0.99526      -0.12926
 199    C  7  pz     Ryd( 3p)     0.00134       0.73550
 200    C  7  pz     Ryd( 4p)     0.00019       1.31473
 201    C  7  dxy    Ryd( 3d)     0.00073       2.43049
 202    C  7  dxy    Ryd( 4d)     0.00043       3.86761
 203    C  7  dxz    Ryd( 3d)     0.00043       1.69360
 204    C  7  dxz    Ryd( 4d)     0.00009       2.92762
 205    C  7  dyz    Ryd( 3d)     0.00031       1.69310
 206    C  7  dyz    Ryd( 4d)     0.00011       2.95525
 207    C  7  dx2y2  Ryd( 3d)     0.00228       2.39361
 208    C  7  dx2y2  Ryd( 4d)     0.00012       3.71498
 209    C  7  dz2    Ryd( 3d)     0.00120       2.02195
 210    C  7  dz2    Ryd( 4d)     0.00002       3.40817
 211    C  7  f(0)   Ryd( 4f)     0.00048       3.25338
 212    C  7  f(c1)  Ryd( 4f)     0.00045       3.41854
 213    C  7  f(s1)  Ryd( 4f)     0.00045       3.38689
 214    C  7  f(c2)  Ryd( 4f)     0.00002       3.33496
 215    C  7  f(s2)  Ryd( 4f)     0.00006       3.32457
 216    C  7  f(c3)  Ryd( 4f)     0.00030       3.82546
 217    C  7  f(s3)  Ryd( 4f)     0.00046       3.91466

 218    C  8  s      Cor( 1s)     1.99999     -10.35270
 219    C  8  s      Val( 2s)     0.97276      -0.19746
 220    C  8  s      Ryd( 3s)     0.00093       2.27397
 221    C  8  s      Ryd( 4s)     0.00035       3.16205
 222    C  8  s      Ryd( 5s)     0.00001      15.45846
 223    C  8  px     Val( 2p)     0.95889      -0.10863
 224    C  8  px     Ryd( 3p)     0.00491       1.36670
 225    C  8  px     Ryd( 4p)     0.00091       2.28066
 226    C  8  py     Val( 2p)     1.05260      -0.06023
 227    C  8  py     Ryd( 3p)     0.00478       1.18186
 228    C  8  py     Ryd( 4p)     0.00019       2.11857
 229    C  8  pz     Val( 2p)     1.08639      -0.16035
 230    C  8  pz     Ryd( 3p)     0.00133       0.90881
 231    C  8  pz     Ryd( 4p)     0.00046       1.23494
 232    C  8  dxy    Ryd( 3d)     0.00177       2.19774
 233    C  8  dxy    Ryd( 4d)     0.00035       4.04876
 234    C  8  dxz    Ryd( 3d)     0.00148       1.38232
 235    C  8  dxz    Ryd( 4d)     0.00018       3.26267
 236    C  8  dyz    Ryd( 3d)     0.00036       1.59107
 237    C  8  dyz    Ryd( 4d)     0.00017       3.36048
 238    C  8  dx2y2  Ryd( 3d)     0.00187       2.29521
 239    C  8  dx2y2  Ryd( 4d)     0.00037       4.06970
 240    C  8  dz2    Ryd( 3d)     0.00204       2.06958
 241    C  8  dz2    Ryd( 4d)     0.00011       3.60790
 242    C  8  f(0)   Ryd( 4f)     0.00069       3.22271
 243    C  8  f(c1)  Ryd( 4f)     0.00058       3.20773
 244    C  8  f(s1)  Ryd( 4f)     0.00048       3.42484
 245    C  8  f(c2)  Ryd( 4f)     0.00005       3.27630
 246    C  8  f(s2)  Ryd( 4f)     0.00005       3.31694
 247    C  8  f(c3)  Ryd( 4f)     0.00037       3.79481
 248    C  8  f(s3)  Ryd( 4f)     0.00058       3.81213

 249   Br  9  s      Cor( 1s)     2.00000    -468.43615
 250   Br  9  s      Cor( 2s)     2.00000     -71.67722
 251   Br  9  s      Cor( 3s)     1.99999     -14.52494
 252   Br  9  s      Val( 4s)     1.86013      -0.77128
 253   Br  9  s      Ryd( 5s)     0.00124       1.21829
 254   Br  9  s      Ryd( 6s)     0.00000       7.52440
 255   Br  9  px     Cor( 2p)     2.00000     -42.10206
 256   Br  9  px     Cor( 3p)     2.00000     -21.01414
 257   Br  9  px     Val( 4p)     1.23767      -0.26582
 258   Br  9  px     Ryd( 5p)     0.00223       0.60762
 259   Br  9  px     Ryd( 6p)     0.00003       1.67216
 260   Br  9  py     Cor( 2p)     2.00000     -42.09618
 261   Br  9  py     Cor( 3p)     2.00000     -21.00772
 262   Br  9  py     Val( 4p)     1.89228      -0.36115
 263   Br  9  py     Ryd( 5p)     0.00093       0.58479
 264   Br  9  py     Ryd( 6p)     0.00001       1.58299
 265   Br  9  pz     Cor( 2p)     2.00000     -42.09563
 266   Br  9  pz     Cor( 3p)     2.00000     -21.00710
 267   Br  9  pz     Val( 4p)     1.94135      -0.36973
 268   Br  9  pz     Ryd( 5p)     0.00133       0.54835
 269   Br  9  pz     Ryd( 6p)     0.00003       1.53562
 270   Br  9  dxy    Cor( 3d)     1.99999      -2.74511
 271   Br  9  dxy    Ryd( 4d)     0.00121       1.34928
 272   Br  9  dxy    Ryd( 5d)     0.00003       1.48887
 273   Br  9  dxy    Ryd( 6d)     0.00000       4.45926
 274   Br  9  dxz    Cor( 3d)     1.99999      -2.74430
 275   Br  9  dxz    Ryd( 4d)     0.00216       0.88622
 276   Br  9  dxz    Ryd( 5d)     0.00002       1.36082
 277   Br  9  dxz    Ryd( 6d)     0.00000       4.19927
 278   Br  9  dyz    Cor( 3d)     2.00000      -2.73672
 279   Br  9  dyz    Ryd( 4d)     0.00032       0.69658
 280   Br  9  dyz    Ryd( 5d)     0.00002       1.24690
 281   Br  9  dyz    Ryd( 6d)     0.00000       4.07181
 282   Br  9  dx2y2  Cor( 3d)     1.99999      -2.74518
 283   Br  9  dx2y2  Ryd( 5d)     0.00157       1.51393
 284   Br  9  dx2y2  Ryd( 4d)     0.00003       1.45204
 285   Br  9  dx2y2  Ryd( 6d)     0.00001       4.49857
 286   Br  9  dz2    Cor( 3d)     1.99999      -2.73909
 287   Br  9  dz2    Ryd( 4d)     0.00061       1.06771
 288   Br  9  dz2    Ryd( 5d)     0.00002       1.34046
 289   Br  9  dz2    Ryd( 6d)     0.00000       4.31023
 290   Br  9  f(0)   Ryd( 4f)     0.00008       1.79534
 291   Br  9  f(c1)  Ryd( 4f)     0.00007       2.04556
 292   Br  9  f(s1)  Ryd( 4f)     0.00002       1.71301
 293   Br  9  f(c2)  Ryd( 4f)     0.00007       1.86381
 294   Br  9  f(s2)  Ryd( 4f)     0.00004       1.80609
 295   Br  9  f(c3)  Ryd( 4f)     0.00011       2.22935
 296   Br  9  f(s3)  Ryd( 4f)     0.00012       2.20562

 297    C 10  s      Cor( 1s)     1.99999     -10.31338
 298    C 10  s      Val( 2s)     0.96783      -0.14020
 299    C 10  s      Ryd( 3s)     0.00097       1.72407
 300    C 10  s      Ryd( 4s)     0.00012       2.17517
 301    C 10  s      Ryd( 5s)     0.00000      20.60605
 302    C 10  px     Val( 2p)     1.04748      -0.04560
 303    C 10  px     Ryd( 3p)     0.00402       1.04021
 304    C 10  px     Ryd( 4p)     0.00026       1.94889
 305    C 10  py     Val( 2p)     1.18260      -0.09176
 306    C 10  py     Ryd( 3p)     0.00410       1.22634
 307    C 10  py     Ryd( 4p)     0.00017       2.05346
 308    C 10  pz     Val( 2p)     0.99669      -0.13076
 309    C 10  pz     Ryd( 3p)     0.00113       0.73336
 310    C 10  pz     Ryd( 4p)     0.00019       1.34441
 311    C 10  dxy    Ryd( 3d)     0.00202       2.39252
 312    C 10  dxy    Ryd( 4d)     0.00024       3.86808
 313    C 10  dxz    Ryd( 3d)     0.00024       1.76333
 314    C 10  dxz    Ryd( 4d)     0.00016       3.14123
 315    C 10  dyz    Ryd( 3d)     0.00051       1.56147
 316    C 10  dyz    Ryd( 4d)     0.00006       2.95121
 317    C 10  dx2y2  Ryd( 3d)     0.00116       2.42763
 318    C 10  dx2y2  Ryd( 4d)     0.00039       3.93641
 319    C 10  dz2    Ryd( 3d)     0.00123       2.03016
 320    C 10  dz2    Ryd( 4d)     0.00002       3.48625
 321    C 10  f(0)   Ryd( 4f)     0.00049       3.25346
 322    C 10  f(c1)  Ryd( 4f)     0.00040       3.45600
 323    C 10  f(s1)  Ryd( 4f)     0.00051       3.36696
 324    C 10  f(c2)  Ryd( 4f)     0.00005       3.34094
 325    C 10  f(s2)  Ryd( 4f)     0.00005       3.33879
 326    C 10  f(c3)  Ryd( 4f)     0.00032       3.83917
 327    C 10  f(s3)  Ryd( 4f)     0.00046       3.94147

 328    C 11  s      Cor( 1s)     1.99999     -10.32095
 329    C 11  s      Val( 2s)     0.91441      -0.11907
 330    C 11  s      Ryd( 3s)     0.00097       1.17261
 331    C 11  s      Ryd( 4s)     0.00014       2.11698
 332    C 11  s      Ryd( 5s)     0.00000      20.04620
 333    C 11  px     Val( 2p)     1.05378      -0.04605
 334    C 11  px     Ryd( 3p)     0.00301       1.39934
 335    C 11  px     Ryd( 4p)     0.00026       2.15232
 336    C 11  py     Val( 2p)     1.04774      -0.04645
 337    C 11  py     Ryd( 3p)     0.00316       1.22761
 338    C 11  py     Ryd( 4p)     0.00016       2.03730
 339    C 11  pz     Val( 2p)     1.03444      -0.13330
 340    C 11  pz     Ryd( 3p)     0.00177       0.79947
 341    C 11  pz     Ryd( 4p)     0.00015       1.44108
 342    C 11  dxy    Ryd( 3d)     0.00066       3.00397
 343    C 11  dxy    Ryd( 4d)     0.00058       4.23342
 344    C 11  dxz    Ryd( 3d)     0.00030       2.03954
 345    C 11  dxz    Ryd( 4d)     0.00022       3.26086
 346    C 11  dyz    Ryd( 3d)     0.00039       2.01698
 347    C 11  dyz    Ryd( 4d)     0.00017       3.18765
 348    C 11  dx2y2  Ryd( 3d)     0.00123       3.31615
 349    C 11  dx2y2  Ryd( 4d)     0.00040       4.26130
 350    C 11  dz2    Ryd( 3d)     0.00098       2.95867
 351    C 11  dz2    Ryd( 4d)     0.00005       3.64532
 352    C 11  f(0)   Ryd( 4f)     0.00051       3.34878
 353    C 11  f(c1)  Ryd( 4f)     0.00047       3.44802
 354    C 11  f(s1)  Ryd( 4f)     0.00039       3.44011
 355    C 11  f(c2)  Ryd( 4f)     0.00004       3.40358
 356    C 11  f(s2)  Ryd( 4f)     0.00011       3.42086
 357    C 11  f(c3)  Ryd( 4f)     0.00023       3.95365
 358    C 11  f(s3)  Ryd( 4f)     0.00048       3.99947

 359    C 12  s      Cor( 1s)     1.99999     -10.31793
 360    C 12  s      Val( 2s)     1.07757      -0.24125
 361    C 12  s      Ryd( 3s)     0.00127       1.40980
 362    C 12  s      Ryd( 4s)     0.00002       4.99302
 363    C 12  s      Ryd( 5s)     0.00000      18.56577
 364    C 12  px     Val( 2p)     1.06262      -0.11189
 365    C 12  px     Ryd( 3p)     0.00193       0.92548
 366    C 12  px     Ryd( 4p)     0.00013       1.59579
 367    C 12  py     Val( 2p)     1.18110      -0.14020
 368    C 12  py     Ryd( 3p)     0.00293       0.96842
 369    C 12  py     Ryd( 4p)     0.00018       1.58904
 370    C 12  pz     Val( 2p)     1.19558      -0.15591
 371    C 12  pz     Ryd( 3p)     0.00082       0.84709
 372    C 12  pz     Ryd( 4p)     0.00014       1.51674
 373    C 12  dxy    Ryd( 3d)     0.00170       2.11980
 374    C 12  dxy    Ryd( 4d)     0.00011       3.89696
 375    C 12  dxz    Ryd( 3d)     0.00121       1.76402
 376    C 12  dxz    Ryd( 4d)     0.00007       3.55378
 377    C 12  dyz    Ryd( 3d)     0.00108       1.67735
 378    C 12  dyz    Ryd( 4d)     0.00012       3.25481
 379    C 12  dx2y2  Ryd( 3d)     0.00089       1.94041
 380    C 12  dx2y2  Ryd( 4d)     0.00029       3.74779
 381    C 12  dz2    Ryd( 3d)     0.00106       1.88762
 382    C 12  dz2    Ryd( 4d)     0.00010       3.71695
 383    C 12  f(0)   Ryd( 4f)     0.00031       3.80799
 384    C 12  f(c1)  Ryd( 4f)     0.00010       3.57305
 385    C 12  f(s1)  Ryd( 4f)     0.00003       3.39087
 386    C 12  f(c2)  Ryd( 4f)     0.00002       3.56292
 387    C 12  f(s2)  Ryd( 4f)     0.00004       3.52566
 388    C 12  f(c3)  Ryd( 4f)     0.00015       3.80527
 389    C 12  f(s3)  Ryd( 4f)     0.00032       3.76638

 390    H 13  s      Val( 1s)     0.77284       0.01707
 391    H 13  s      Ryd( 2s)     0.00045       0.80870
 392    H 13  s      Ryd( 3s)     0.00003       1.87396
 393    H 13  px     Ryd( 2p)     0.00072       2.86072
 394    H 13  py     Ryd( 2p)     0.00016       2.44166
 395    H 13  pz     Ryd( 2p)     0.00011       2.29293

 396    H 14  s      Val( 1s)     0.79452      -0.00003
 397    H 14  s      Ryd( 2s)     0.00087       0.64737
 398    H 14  s      Ryd( 3s)     0.00003       2.08061
 399    H 14  px     Ryd( 2p)     0.00006       2.27644
 400    H 14  py     Ryd( 2p)     0.00014       2.36824
 401    H 14  pz     Ryd( 2p)     0.00080       2.94073

 402    H 15  s      Val( 1s)     0.76720       0.05536
 403    H 15  s      Ryd( 2s)     0.00043       0.73920
 404    H 15  s      Ryd( 3s)     0.00010       1.95894
 405    H 15  px     Ryd( 2p)     0.00009       2.61453
 406    H 15  py     Ryd( 2p)     0.00060       2.99432
 407    H 15  pz     Ryd( 2p)     0.00012       2.22218

 408    H 16  s      Val( 1s)     0.76783       0.05621
 409    H 16  s      Ryd( 2s)     0.00051       0.61382
 410    H 16  s      Ryd( 3s)     0.00009       2.13169
 411    H 16  px     Ryd( 2p)     0.00039       2.78880
 412    H 16  py     Ryd( 2p)     0.00030       2.74484
 413    H 16  pz     Ryd( 2p)     0.00012       2.21158

 414    H 17  s      Val( 1s)     0.77034       0.04935
 415    H 17  s      Ryd( 2s)     0.00076       0.67904
 416    H 17  s      Ryd( 3s)     0.00010       2.10023
 417    H 17  px     Ryd( 2p)     0.00011       2.59350
 418    H 17  py     Ryd( 2p)     0.00060       2.98850
 419    H 17  pz     Ryd( 2p)     0.00012       2.21509

 420    H 18  s      Val( 1s)     0.75094       0.03920
 421    H 18  s      Ryd( 2s)     0.00089       0.71351
 422    H 18  s      Ryd( 3s)     0.00003       2.00338
 423    H 18  px     Ryd( 2p)     0.00009       2.50709
 424    H 18  py     Ryd( 2p)     0.00068       2.96755
 425    H 18  pz     Ryd( 2p)     0.00009       2.32284

 426    H 19  s      Val( 1s)     0.74572       0.02060
 427    H 19  s      Ryd( 2s)     0.00076       0.79457
 428    H 19  s      Ryd( 3s)     0.00003       1.91995
 429    H 19  px     Ryd( 2p)     0.00012       2.46129
 430    H 19  py     Ryd( 2p)     0.00007       2.35979
 431    H 19  pz     Ryd( 2p)     0.00071       2.97240


 Summary of Natural Population Analysis:

                                     Natural Population
             Natural    ---------------------------------------------
  Atom No    Charge        Core      Valence    Rydberg      Total
 --------------------------------------------------------------------
    O  1   -0.51384      1.99999     6.48864    0.02521     8.51384
    C  2    0.57561      1.99999     3.39357    0.03083     5.42439
    C  3   -0.18465      1.99999     4.16526    0.01941     6.18465
    O  4   -0.46721      1.99999     6.44461    0.02261     8.46721
    C  5    0.27483      1.99999     3.70486    0.02032     5.72517
    C  6   -0.23122      1.99999     4.21406    0.01717     6.23122
    C  7   -0.22024      1.99999     4.20163    0.01863     6.22024
    C  8   -0.09598      1.99999     4.07064    0.02536     6.09598
   Br  9    0.05631     27.99995     6.93142    0.01232    34.94369
    C 10   -0.21388      1.99999     4.19460    0.01929     6.21388
    C 11   -0.06718      1.99999     4.05037    0.01682     6.06718
    C 12   -0.53189      1.99999     4.51687    0.01503     6.53189
    H 13    0.22569      0.00000     0.77284    0.00146     0.77431
    H 14    0.20359      0.00000     0.79452    0.00189     0.79641
    H 15    0.23146      0.00000     0.76720    0.00134     0.76854
    H 16    0.23076      0.00000     0.76783    0.00142     0.76924
    H 17    0.22797      0.00000     0.77034    0.00169     0.77203
    H 18    0.24728      0.00000     0.75094    0.00177     0.75272
    H 19    0.25259      0.00000     0.74572    0.00169     0.74741
 ====================================================================
 * Total *  0.00000     49.99982    61.74593    0.25425   112.00000

                                 Natural Population
 ---------------------------------------------------------
   Core                      49.99982 ( 99.9996% of   50)
   Valence                   61.74593 ( 99.5902% of   62)
   Natural Minimal Basis    111.74575 ( 99.7730% of  112)
   Natural Rydberg Basis      0.25425 (  0.2270% of  112)
 ---------------------------------------------------------

    Atom No         Natural Electron Configuration
 ----------------------------------------------------------------------------
      O  1      [core]2s( 1.69)2p( 4.80)3d( 0.02)
      C  2      [core]2s( 0.90)2p( 2.49)3s( 0.01)3p( 0.01)4p( 0.01)
      C  3      [core]2s( 1.07)2p( 3.10)3p( 0.01)3d( 0.01)
      O  4      [core]2s( 1.59)2p( 4.86)3p( 0.01)3d( 0.01)
      C  5      [core]2s( 0.86)2p( 2.84)3p( 0.01)
      C  6      [core]2s( 0.98)2p( 3.24)3p( 0.01)
      C  7      [core]2s( 0.98)2p( 3.22)3p( 0.01)
      C  8      [core]2s( 0.97)2p( 3.10)3p( 0.01)3d( 0.01)
     Br  9      [core]4s( 1.86)4p( 5.07)
      C 10      [core]2s( 0.97)2p( 3.23)3p( 0.01)3d( 0.01)
      C 11      [core]2s( 0.91)2p( 3.14)3p( 0.01)
      C 12      [core]2s( 1.08)2p( 3.44)3p( 0.01)3d( 0.01)
      H 13            1s( 0.77)
      H 14            1s( 0.79)
      H 15            1s( 0.77)
      H 16            1s( 0.77)
      H 17            1s( 0.77)
      H 18            1s( 0.75)
      H 19            1s( 0.75)


 Wiberg bond index matrix in the NAO basis:

     Atom    1       2       3       4       5       6       7       8       9
     ---- ------  ------  ------  ------  ------  ------  ------  ------  ------
   1.  O  0.0000  1.8618  0.0695  0.0112  0.0018  0.0004  0.0006  0.0006  0.0002
   2.  C  1.8618  0.0000  0.9638  0.0247  0.0042  0.0010  0.0016  0.0006  0.0004
   3.  C  0.0695  0.9638  0.0000  0.9330  0.0083  0.0104  0.0007  0.0013  0.0002
   4.  O  0.0112  0.0247  0.9330  0.0000  0.9982  0.0422  0.0075  0.0143  0.0020
   5.  C  0.0018  0.0042  0.0083  0.9982  0.0000  1.3849  0.0101  0.0911  0.0128
   6.  C  0.0004  0.0010  0.0104  0.0422  1.3849  0.0000  1.4392  0.0117  0.0164
   7.  C  0.0006  0.0016  0.0007  0.0075  0.0101  1.4392  0.0000  1.4047  0.0424
   8.  C  0.0006  0.0006  0.0013  0.0143  0.0911  0.0117  1.4047  0.0000  1.0421
   9. Br  0.0002  0.0004  0.0002  0.0020  0.0128  0.0164  0.0424  1.0421  0.0000
  10.  C  0.0015  0.0073  0.0005  0.0086  0.0109  0.1103  0.0108  1.4114  0.0433
  11.  C  0.0111  0.0077  0.0035  0.0477  1.3525  0.0107  0.1034  0.0119  0.0158
  12.  C  0.0642  0.9770  0.0115  0.0042  0.0069  0.0086  0.0018  0.0078  0.0010
  13.  H  0.0098  0.0047  0.9120  0.0095  0.0079  0.0002  0.0002  0.0001  0.0000
  14.  H  0.0146  0.0069  0.9048  0.0248  0.0012  0.0016  0.0001  0.0006  0.0001
  15.  H  0.0000  0.0000  0.0004  0.0021  0.0020  0.9161  0.0035  0.0083  0.0010
  16.  H  0.0000  0.0000  0.0003  0.0004  0.0078  0.0031  0.9153  0.0025  0.0042
  17.  H  0.0002  0.0003  0.0000  0.0010  0.0093  0.0008  0.0099  0.0028  0.0042
  18.  H  0.0047  0.0023  0.0073  0.0004  0.0079  0.0002  0.0007  0.0005  0.0001
  19.  H  0.0187  0.0073  0.0011  0.0012  0.0101  0.0002  0.0057  0.0001  0.0001

     Atom   10      11      12      13      14      15      16      17      18
     ---- ------  ------  ------  ------  ------  ------  ------  ------  ------
   1.  O  0.0015  0.0111  0.0642  0.0098  0.0146  0.0000  0.0000  0.0002  0.0047
   2.  C  0.0073  0.0077  0.9770  0.0047  0.0069  0.0000  0.0000  0.0003  0.0023
   3.  C  0.0005  0.0035  0.0115  0.9120  0.9048  0.0004  0.0003  0.0000  0.0073
   4.  O  0.0086  0.0477  0.0042  0.0095  0.0248  0.0021  0.0004  0.0010  0.0004
   5.  C  0.0109  1.3525  0.0069  0.0079  0.0012  0.0020  0.0078  0.0093  0.0079
   6.  C  0.1103  0.0107  0.0086  0.0002  0.0016  0.9161  0.0031  0.0008  0.0002
   7.  C  0.0108  0.1034  0.0018  0.0002  0.0001  0.0035  0.9153  0.0099  0.0007
   8.  C  1.4114  0.0119  0.0078  0.0001  0.0006  0.0083  0.0025  0.0028  0.0005
   9. Br  0.0433  0.0158  0.0010  0.0000  0.0001  0.0010  0.0042  0.0042  0.0001
  10.  C  0.0000  1.4073  0.0084  0.0001  0.0003  0.0008  0.0097  0.9146  0.0022
  11.  C  1.4073  0.0000  1.0170  0.0006  0.0011  0.0087  0.0008  0.0031  0.0014
  12.  C  0.0084  1.0170  0.0000  0.0040  0.0026  0.0005  0.0004  0.0023  0.9110
  13.  H  0.0001  0.0006  0.0040  0.0000  0.0004  0.0001  0.0000  0.0000  0.0000
  14.  H  0.0003  0.0011  0.0026  0.0004  0.0000  0.0000  0.0000  0.0000  0.0003
  15.  H  0.0008  0.0087  0.0005  0.0001  0.0000  0.0000  0.0031  0.0004  0.0004
  16.  H  0.0097  0.0008  0.0004  0.0000  0.0000  0.0031  0.0000  0.0003  0.0000
  17.  H  0.9146  0.0031  0.0023  0.0000  0.0000  0.0004  0.0003  0.0000  0.0003
  18.  H  0.0022  0.0014  0.9110  0.0000  0.0003  0.0004  0.0000  0.0003  0.0000
  19.  H  0.0118  0.0022  0.8773  0.0002  0.0008  0.0000  0.0000  0.0000  0.0008

     Atom   19
     ---- ------
   1.  O  0.0187
   2.  C  0.0073
   3.  C  0.0011
   4.  O  0.0012
   5.  C  0.0101
   6.  C  0.0002
   7.  C  0.0057
   8.  C  0.0001
   9. Br  0.0001
  10.  C  0.0118
  11.  C  0.0022
  12.  C  0.8773
  13.  H  0.0002
  14.  H  0.0008
  15.  H  0.0000
  16.  H  0.0000
  17.  H  0.0000
  18.  H  0.0008
  19.  H  0.0000


 Wiberg bond index, Totals by atom:

     Atom    1
     ---- ------
   1.  O  2.0710
   2.  C  3.8716
   3.  C  3.8286
   4.  O  2.1332
   5.  C  3.9280
   6.  C  3.9579
   7.  C  3.9584
   8.  C  4.0126
   9. Br  1.1863
  10.  C  3.9598
  11.  C  4.0065
  12.  C  3.9065
  13.  H  0.9501
  14.  H  0.9603
  15.  H  0.9475
  16.  H  0.9480
  17.  H  0.9497
  18.  H  0.9405
  19.  H  0.9377


 NBI: Natural Binding Index (NCU strength parameters)

     Atom    1       2       3       4       5       6       7       8       9
     ---- ------  ------  ------  ------  ------  ------  ------  ------  ------
   1.  O  0.0000  1.3645  0.2636  0.1059  0.0425  0.0196  0.0252  0.0253  0.0158
   2.  C  1.3645  0.0000  0.9817  0.1571  0.0645  0.0309  0.0394  0.0252  0.0200
   3.  C  0.2636  0.9817  0.0000  0.9659  0.0913  0.1021  0.0257  0.0356  0.0146
   4.  O  0.1059  0.1571  0.9659  0.0000  0.9991  0.2055  0.0867  0.1196  0.0448
   5.  C  0.0425  0.0645  0.0913  0.9991  0.0000  1.1768  0.1006  0.3018  0.1130
   6.  C  0.0196  0.0309  0.1021  0.2055  1.1768  0.0000  1.1997  0.1081  0.1281
   7.  C  0.0252  0.0394  0.0257  0.0867  0.1006  1.1997  0.0000  1.1852  0.2058
   8.  C  0.0253  0.0252  0.0356  0.1196  0.3018  0.1081  1.1852  0.0000  1.0208
   9. Br  0.0158  0.0200  0.0146  0.0448  0.1130  0.1281  0.2058  1.0208  0.0000
  10.  C  0.0383  0.0853  0.0233  0.0927  0.1045  0.3321  0.1041  1.1880  0.2082
  11.  C  0.1055  0.0878  0.0593  0.2185  1.1630  0.1034  0.3215  0.1093  0.1257
  12.  C  0.2534  0.9885  0.1074  0.0650  0.0831  0.0925  0.0430  0.0881  0.0315
  13.  H  0.0990  0.0687  0.9550  0.0977  0.0891  0.0125  0.0146  0.0121  0.0060
  14.  H  0.1209  0.0829  0.9512  0.1576  0.0344  0.0397  0.0122  0.0248  0.0099
  15.  H  0.0031  0.0054  0.0202  0.0459  0.0451  0.9571  0.0595  0.0911  0.0316
  16.  H  0.0035  0.0043  0.0161  0.0188  0.0881  0.0559  0.9567  0.0505  0.0645
  17.  H  0.0123  0.0179  0.0056  0.0310  0.0965  0.0274  0.0994  0.0532  0.0651
  18.  H  0.0684  0.0482  0.0853  0.0211  0.0890  0.0136  0.0264  0.0219  0.0113
  19.  H  0.1366  0.0853  0.0331  0.0351  0.1006  0.0143  0.0755  0.0117  0.0075

     Atom   10      11      12      13      14      15      16      17      18
     ---- ------  ------  ------  ------  ------  ------  ------  ------  ------
   1.  O  0.0383  0.1055  0.2534  0.0990  0.1209  0.0031  0.0035  0.0123  0.0684
   2.  C  0.0853  0.0878  0.9885  0.0687  0.0829  0.0054  0.0043  0.0179  0.0482
   3.  C  0.0233  0.0593  0.1074  0.9550  0.9512  0.0202  0.0161  0.0056  0.0853
   4.  O  0.0927  0.2185  0.0650  0.0977  0.1576  0.0459  0.0188  0.0310  0.0211
   5.  C  0.1045  1.1630  0.0831  0.0891  0.0344  0.0451  0.0881  0.0965  0.0890
   6.  C  0.3321  0.1034  0.0925  0.0125  0.0397  0.9571  0.0559  0.0274  0.0136
   7.  C  0.1041  0.3215  0.0430  0.0146  0.0122  0.0595  0.9567  0.0994  0.0264
   8.  C  1.1880  0.1093  0.0881  0.0121  0.0248  0.0911  0.0505  0.0532  0.0219
   9. Br  0.2082  0.1257  0.0315  0.0060  0.0099  0.0316  0.0645  0.0651  0.0113
  10.  C  0.0000  1.1863  0.0918  0.0108  0.0167  0.0285  0.0986  0.9563  0.0469
  11.  C  1.1863  0.0000  1.0085  0.0254  0.0333  0.0932  0.0286  0.0557  0.0368
  12.  C  0.0918  1.0085  0.0000  0.0636  0.0510  0.0214  0.0190  0.0482  0.9544
  13.  H  0.0108  0.0254  0.0636  0.0000  0.0202  0.0078  0.0049  0.0018  0.0052
  14.  H  0.0167  0.0333  0.0510  0.0202  0.0000  0.0024  0.0036  0.0009  0.0176
  15.  H  0.0285  0.0932  0.0214  0.0078  0.0024  0.0000  0.0558  0.0211  0.0190
  16.  H  0.0986  0.0286  0.0190  0.0049  0.0036  0.0558  0.0000  0.0187  0.0022
  17.  H  0.9563  0.0557  0.0482  0.0018  0.0009  0.0211  0.0187  0.0000  0.0172
  18.  H  0.0469  0.0368  0.9544  0.0052  0.0176  0.0190  0.0022  0.0172  0.0000
  19.  H  0.1085  0.0471  0.9366  0.0136  0.0291  0.0035  0.0034  0.0067  0.0285

     Atom   19
     ---- ------
   1.  O  0.1366
   2.  C  0.0853
   3.  C  0.0331
   4.  O  0.0351
   5.  C  0.1006
   6.  C  0.0143
   7.  C  0.0755
   8.  C  0.0117
   9. Br  0.0075
  10.  C  0.1085
  11.  C  0.0471
  12.  C  0.9366
  13.  H  0.0136
  14.  H  0.0291
  15.  H  0.0035
  16.  H  0.0034
  17.  H  0.0067
  18.  H  0.0285
  19.  H  0.0000


 NATURAL BOND ORBITAL ANALYSIS:

                            Occupancies       Lewis Structure    Low   High
         Max    Occ     -------------------  -----------------   occ   occ
  Cycle  Ctr   Thresh    Lewis   non-Lewis     CR  BD  nC  LP    (L)   (NL)
 ============================================================================
    1     2     1.90   107.46106   4.53894     25  22   0   9     4      6
    2     2     1.87   108.30435   3.69565     25  21   0  10     3      3
    3     2     1.69   108.90740   3.09260     25  22   0   9     2      3
    4     2     1.68   108.90740   3.09260     25  22   0   9     2      3
    5     2     1.67   109.56538   2.43462     25  23   0   8     1      3
    6     2     1.64   110.15670   1.84330     25  24   0   7     0      3
    7     2     1.63   110.16657   1.83343     25  24   0   7     0      3
 ----------------------------------------------------------------------------

 Structure accepted: No low occupancy Lewis orbitals

[...]
   79.  0.01125     0.47408   70.   BD*( 1) C  6- H 15
   80.  0.00961     0.69032   57.   BD*( 1) O  1- C  2
   81.  0.00894     0.42982   79.   BD*( 1) C 12- H 18
   82.  0.00515     1.42009  263.   RY ( 1) C  8
   83.  0.00481     1.46238  319.   RY ( 1) C 10
   84.  0.00477     1.55962  185.   RY ( 1) C  5
   85.  0.00467     1.12829  264.   RY ( 2) C  8
   86.  0.00452     1.48542  237.   RY ( 1) C  7
   87.  0.00407     1.10786  133.   RY ( 1) C  3
   88.  0.00375     0.86819  159.   RY ( 1) O  4
   89.  0.00375     2.45841  108.   RY ( 2) C  2
   90.  0.00373     1.80637  345.   RY ( 1) C 11
   91.  0.00372     1.66165  211.   RY ( 1) C  6
   92.  0.00360     0.97880   81.   RY ( 1) O  1
   93.  0.00338     0.75466  289.   RY ( 1)Br  9
   94.  0.00314     1.39106  186.   RY ( 2) C  5
   95.  0.00295     1.15841  371.   RY ( 1) C 12
   96.  0.00280     1.21687  320.   RY ( 2) C 10
   97.  0.00277     1.38987  346.   RY ( 2) C 11
   98.  0.00270     1.00387  265.   RY ( 3) C  8
   99.  0.00238     0.98769  160.   RY ( 2) O  4
  100.  0.00204     1.33563  212.   RY ( 2) C  6
  101.  0.00200     1.20201  238.   RY ( 2) C  7
  102.  0.00199     1.63514  134.   RY ( 2) C  3
  103.  0.00197     1.79416  187.   RY ( 3) C  5
  104.  0.00193     1.07239  372.   RY ( 2) C 12
  105.  0.00180     0.93458  347.   RY ( 3) C 11
  106.  0.00141     1.26317  135.   RY ( 3) C  3
  107.  0.00141     2.38436  188.   RY ( 4) C  5
  108.  0.00130     0.75329  239.   RY ( 3) C  7
  109.  0.00129     0.75223  321.   RY ( 3) C 10
  110.  0.00117     0.60215  213.   RY ( 3) C  6
  111.  0.00117     1.38866  189.   RY ( 5) C  5
  112.  0.00115     1.03262  290.   RY ( 2)Br  9
  113.  0.00114     1.47237  373.   RY ( 3) C 12
  114.  0.00112     1.83889  109.   RY ( 3) C  2
  115.  0.00095     1.79373  136.   RY ( 4) C  3
  116.  0.00092     0.67981  402.   RY ( 1) H 14
  117.  0.00091     0.72786  422.   RY ( 1) H 18
  118.  0.00090     2.27307  110.   RY ( 4) C  2
  119.  0.00087     1.73359  374.   RY ( 4) C 12
  120.  0.00085     1.99898  322.   RY ( 4) C 10
  121.  0.00079     0.82596  427.   RY ( 1) H 19
  122.  0.00076     0.68299  417.   RY ( 1) H 17
  123.  0.00074     1.71750  240.   RY ( 4) C  7
  124.  0.00074     1.58859  214.   RY ( 4) C  6
  125.  0.00068     1.37080  348.   RY ( 4) C 11
  126.  0.00060     1.77422  137.   RY ( 5) C  3
  127.  0.00057     1.42088  266.   RY ( 4) C  8
  128.  0.00056     1.47387  267.   RY ( 5) C  8
  129.  0.00051     0.61953  412.   RY ( 1) H 16
  130.  0.00047     2.50053  111.   RY ( 5) C  2
  131.  0.00047     0.83130  397.   RY ( 1) H 13
  132.  0.00045     2.93826  190.   RY ( 6) C  5
  133.  0.00045     2.71875  268.   RY ( 6) C  8
  134.  0.00044     2.94721  349.   RY ( 5) C 11
  135.  0.00044     0.73366  407.   RY ( 1) H 15
  136.  0.00039     2.37903  241.   RY ( 5) C  7
  137.  0.00039     2.61273  350.   RY ( 6) C 11
  138.  0.00038     1.44405  138.   RY ( 6) C  3
  139.  0.00038     2.61700  323.   RY ( 5) C 10
  140.  0.00037     1.80021  161.   RY ( 3) O  4
  141.  0.00035     2.93681  215.   RY ( 5) C  6
  142.  0.00035     2.27693  191.   RY ( 7) C  5
  143.  0.00034     1.29781   82.   RY ( 2) O  1
  144.  0.00034     1.91349  375.   RY ( 5) C 12
  145.  0.00032     2.64446  112.   RY ( 6) C  2
  146.  0.00031     1.87171  324.   RY ( 6) C 10
  147.  0.00030     1.93665  242.   RY ( 6) C  7
  148.  0.00029     2.41026  376.   RY ( 6) C 12
  149.  0.00028     3.56619  351.   RY ( 7) C 11
  150.  0.00027     2.36524  216.   RY ( 6) C  6
  151.  0.00027     2.57165  162.   RY ( 4) O  4
  152.  0.00026     2.74682  269.   RY ( 7) C  8
  153.  0.00025     2.13132  270.   RY ( 8) C  8
  154.  0.00023     2.90152  192.   RY ( 8) C  5
  155.  0.00022     2.46458  193.   RY ( 9) C  5
  156.  0.00021     3.28710  113.   RY ( 7) C  2
  157.  0.00021     2.36807  217.   RY ( 7) C  6
  158.  0.00021     0.90793  291.   RY ( 3)Br  9
  159.  0.00021     2.54988  325.   RY ( 7) C 10
  160.  0.00020     2.53512  352.   RY ( 8) C 11
  161.  0.00019     2.14936  139.   RY ( 7) C  3
  162.  0.00019     2.86974  271.   RY ( 9) C  8
  163.  0.00016     2.43993  353.   RY ( 9) C 11
  164.  0.00016     1.72599  326.   RY ( 8) C 10
  165.  0.00015     0.88861   83.   RY ( 3) O  1
  166.  0.00015     2.55919  243.   RY ( 7) C  7
  167.  0.00015     3.61531  354.   RY (10) C 11
  168.  0.00015     1.57793  377.   RY ( 7) C 12
  169.  0.00015     0.97258  292.   RY ( 4)Br  9
  170.  0.00014     1.83646  378.   RY ( 8) C 12
  171.  0.00013     4.39959  163.   RY ( 5) O  4
  172.  0.00013     2.76409  194.   RY (10) C  5
  173.  0.00013     2.66213  355.   RY (11) C 11
  174.  0.00012     3.07426  114.   RY ( 8) C  2
  175.  0.00012     2.20443  418.   RY ( 2) H 17
  176.  0.00012     2.50820  218.   RY ( 8) C  6
  177.  0.00011     1.90599  244.   RY ( 8) C  7
  178.  0.00011     2.21392  408.   RY ( 2) H 15
  179.  0.00011     2.33596  403.   RY ( 2) H 14
  180.  0.00011     2.19710  413.   RY ( 2) H 16
  181.  0.00010     0.51500  293.   RY ( 5)Br  9
  182.  0.00010     1.96945  409.   RY ( 3) H 15
  183.  0.00010     2.14549  419.   RY ( 3) H 17
  184.  0.00010     2.35000  398.   RY ( 2) H 13
  185.  0.00010     1.77810  327.   RY ( 9) C 10
  186.  0.00010     1.82575  379.   RY ( 9) C 12
  187.  0.00010     2.11988  414.   RY ( 3) H 16
  188.  0.00010     2.42703  428.   RY ( 2) H 19
  189.  0.00009     2.09231  140.   RY ( 8) C  3
  190.  0.00009     2.98244  115.   RY ( 9) C  2
  191.  0.00009     2.23433  272.   RY (10) C  8
  192.  0.00008     2.05419   84.   RY ( 4) O  1
  193.  0.00007     2.77514  164.   RY ( 6) O  4
  194.  0.00007     2.49425  423.   RY ( 2) H 18
  195.  0.00007     2.51071  420.   RY ( 4) H 17
  196.  0.00007     2.16645  141.   RY ( 9) C  3
  197.  0.00007     2.89105  219.   RY ( 9) C  6
  198.  0.00007     2.53672  415.   RY ( 4) H 16
  199.  0.00007     2.24440  429.   RY ( 3) H 19
  200.  0.00007     3.09608  195.   RY (11) C  5
  201.  0.00006     2.39880  356.   RY (12) C 11
  202.  0.00006     2.18814  142.   RY (10) C  3
  203.  0.00006     2.88509  245.   RY ( 9) C  7
  204.  0.00005     2.55457  196.   RY (12) C  5
  205.  0.00005     2.00313  380.   RY (10) C 12
  206.  0.00005     2.39577  424.   RY ( 3) H 18
  207.  0.00005     2.71089  165.   RY ( 7) O  4
  208.  0.00005     3.35333  357.   RY (13) C 11
  209.  0.00005     2.30259  399.   RY ( 3) H 13
  210.  0.00005     2.72556  116.   RY (10) C  2
  211.  0.00005     2.63131  246.   RY (10) C  7
  212.  0.00005     3.59884  328.   RY (10) C 10
  213.  0.00004     2.38015  381.   RY (11) C 12
  214.  0.00004     3.08873  166.   RY ( 8) O  4
  215.  0.00004     2.85550   85.   RY ( 5) O  1
  216.  0.00004     2.57474  410.   RY ( 4) H 15
  217.  0.00004     2.26663  404.   RY ( 3) H 14
  218.  0.00004     2.57555  220.   RY (10) C  6
  219.  0.00004     2.24895  197.   RY (13) C  5
  220.  0.00003     1.30008  294.   RY ( 6)Br  9
  221.  0.00003     3.17184  329.   RY (11) C 10
  222.  0.00003     2.10851  117.   RY (11) C  2
  223.  0.00003     3.15626  358.   RY (14) C 11
  224.  0.00003     1.96537   86.   RY ( 6) O  1
  225.  0.00003     2.86022  273.   RY (11) C  8
  226.  0.00003     3.14046  382.   RY (12) C 12
  227.  0.00003     2.48231  405.   RY ( 4) H 14
  228.  0.00003     3.82420  167.   RY ( 9) O  4
  229.  0.00003     2.37951  400.   RY ( 4) H 13
  230.  0.00002     2.71010  118.   RY (12) C  2
  231.  0.00003     2.87694  430.   RY ( 4) H 19
  232.  0.00002     3.34017  143.   RY (11) C  3
  233.  0.00002     3.00734  330.   RY (12) C 10
  234.  0.00002     2.32809  425.   RY ( 4) H 18
  235.  0.00002     3.79466  168.   RY (10) O  4
  236.  0.00002     3.27948  359.   RY (15) C 11
  237.  0.00002     3.57578  383.   RY (13) C 12
  238.  0.00002     2.41197  119.   RY (13) C  2
  239.  0.00002     3.14600  198.   RY (14) C  5
  240.  0.00002     1.17997  295.   RY ( 7)Br  9
  241.  0.00001     3.22862   87.   RY ( 7) O  1
  242.  0.00002     2.59678  221.   RY (11) C  6
  243.  0.00001     2.77485  144.   RY (12) C  3
  244.  0.00001     4.97864  169.   RY (11) O  4
  245.  0.00001     2.75941  199.   RY (15) C  5
  246.  0.00001     2.01404  360.   RY (16) C 11
  247.  0.00001     3.31781  145.   RY (13) C  3
  248.  0.00001     1.73260  222.   RY (12) C  6
  249.  0.00001     2.49662  384.   RY (14) C 12
  250.  0.00001     2.41367  401.   RY ( 5) H 13
  251.  0.00001     2.54687  406.   RY ( 5) H 14
  252.  0.00001     2.01489  331.   RY (13) C 10
  253.  0.00001     4.00252  385.   RY (15) C 12
  254.  0.00001     2.38754  120.   RY (14) C  2
  255.  0.00001     3.39140  170.   RY (12) O  4
  256.  0.00001     3.97451  200.   RY (16) C  5
  257.  0.00001     3.16124  247.   RY (11) C  7
  258.  0.00001     2.56706  426.   RY ( 5) H 18
  259.  0.00001     2.66573  223.   RY (13) C  6
  260.  0.00001     2.67393  274.   RY (12) C  8
  261.  0.00001     1.42662  296.   RY ( 8)Br  9
  262.  0.00001     2.13216  431.   RY ( 5) H 19
  263.  0.00001     2.81090   88.   RY ( 8) O  1
  264.  0.00001     2.74345  201.   RY (17) C  5
  265.  0.00001     2.95209  248.   RY (12) C  7
  266.  0.00001     2.50673  275.   RY (13) C  8
  267.  0.00001     1.01030  297.   RY ( 9)Br  9
  268.  0.00001     2.98439  332.   RY (14) C 10
  269.  0.00000     2.08303   89.   RY ( 9) O  1
  270.  0.00000     1.43377  121.   RY (15) C  2
  271.  0.00001     2.83203  146.   RY (14) C  3
  272.  0.00001     4.60690  171.   RY (13) O  4
  273.  0.00000     2.73799   90.   RY (10) O  1
  274.  0.00000     1.66763  122.   RY (16) C  2
  275.  0.00000     3.02981  123.   RY (17) C  2
  276.  0.00000     3.44826  202.   RY (18) C  5
  277.  0.00001     2.62497  224.   RY (14) C  6
  278.  0.00001     2.93987  249.   RY (13) C  7
  279.  0.00001     1.36672  298.   RY (10)Br  9
  280.  0.00001     2.69892  333.   RY (15) C 10
  281.  0.00001     2.96167  361.   RY (17) C 11
  282.  0.00001     3.03024  421.   RY ( 5) H 17
  283.  0.00001     3.68737  362.   RY (18) C 11
  284.  0.00001     2.97814  386.   RY (16) C 12
  285.  0.00001     3.75293  387.   RY (17) C 12
  286.  0.00001     3.03525  411.   RY ( 5) H 15
  287.  0.00001     3.01546  416.   RY ( 5) H 16
  288.  0.00000     5.12717  124.   RY (18) C  2
  289.  0.00000     3.08342  147.   RY (15) C  3
  290.  0.00000     4.09615  172.   RY (14) O  4
  291.  0.00000     2.49155  225.   RY (15) C  6
  292.  0.00000     2.18177  276.   RY (14) C  8
  293.  0.00000     2.16470  277.   RY (15) C  8
  294.  0.00000     5.73019   91.   RY (11) O  1
  295.  0.00000     4.14846   92.   RY (12) O  1
  296.  0.00000    14.05407   93.   RY (13) O  1
  297.  0.00000     3.62299   94.   RY (14) O  1
  298.  0.00000     6.59830   95.   RY (15) O  1
  299.  0.00000    22.46090   96.   RY (16) O  1
  300.  0.00000     7.14176   97.   RY (17) O  1
  301.  0.00000     6.31987   98.   RY (18) O  1
  302.  0.00000     8.18448   99.   RY (19) O  1
  303.  0.00000     5.66742  100.   RY (20) O  1
  304.  0.00000     6.01246  101.   RY (21) O  1
  305.  0.00000     6.99241  102.   RY (22) O  1
  306.  0.00000     7.05677  103.   RY (23) O  1
  307.  0.00000     5.44562  104.   RY (24) O  1
  308.  0.00000     6.61784  105.   RY (25) O  1
  309.  0.00000     7.16504  106.   RY (26) O  1
  310.  0.00000    11.93448  125.   RY (19) C  2
  311.  0.00000     2.40926  126.   RY (20) C  2
  312.  0.00000     3.35840  127.   RY (21) C  2
  313.  0.00000     3.22507  128.   RY (22) C  2
  314.  0.00000     4.65980  129.   RY (23) C  2
  315.  0.00000     3.33683  130.   RY (24) C  2
  316.  0.00000     5.86325  131.   RY (25) C  2
  317.  0.00000     4.04401  132.   RY (26) C  2
  318.  0.00000     3.68278  148.   RY (16) C  3
  319.  0.00000     2.71666  149.   RY (17) C  3
  320.  0.00000     4.09417  203.   RY (19) C  5
  321.  0.00000     3.74183  150.   RY (18) C  3
  322.  0.00000     4.02203  151.   RY (19) C  3
  323.  0.00000     3.85900  152.   RY (20) C  3
  324.  0.00000     9.62380  153.   RY (21) C  3
  325.  0.00000     3.84912  154.   RY (22) C  3
  326.  0.00000     5.98870  155.   RY (23) C  3
  327.  0.00000     3.71316  156.   RY (24) C  3
  328.  0.00000     5.36604  157.   RY (25) C  3
  329.  0.00000     4.41969  158.   RY (26) C  3
  330.  0.00000    15.60777  173.   RY (15) O  4
  331.  0.00000     7.67116  174.   RY (16) O  4
  332.  0.00000     6.82462  175.   RY (17) O  4
  333.  0.00000     4.84404  176.   RY (18) O  4
  334.  0.00000    10.47965  177.   RY (19) O  4
  335.  0.00000     8.14043  178.   RY (20) O  4
  336.  0.00000    10.10318  179.   RY (21) O  4
  337.  0.00000    14.61876  180.   RY (22) O  4
  338.  0.00000     6.38474  181.   RY (23) O  4
  339.  0.00000     6.70465  182.   RY (24) O  4
  340.  0.00000     5.76295  183.   RY (25) O  4
  341.  0.00000     5.63452  184.   RY (26) O  4
  342.  0.00000     9.78435  204.   RY (20) C  5
  343.  0.00000     4.24655  205.   RY (21) C  5
  344.  0.00000     3.28726  226.   RY (16) C  6
  345.  0.00000     6.24535  227.   RY (17) C  6
  346.  0.00000     3.70177  250.   RY (14) C  7
  347.  0.00000     2.83094  278.   RY (16) C  8
  348.  0.00000     3.89543  299.   RY (11)Br  9
  349.  0.00000     4.36838  334.   RY (16) C 10
  350.  0.00000     4.25593  206.   RY (22) C  5
  351.  0.00000     7.90576  207.   RY (23) C  5
  352.  0.00000     3.51090  208.   RY (24) C  5
  353.  0.00000     3.69254  209.   RY (25) C  5
  354.  0.00000     5.63785  210.   RY (26) C  5
  355.  0.00000     3.55364  228.   RY (18) C  6
  356.  0.00000     9.16997  229.   RY (19) C  6
  357.  0.00000     3.91033  230.   RY (20) C  6
  358.  0.00000     3.25508  231.   RY (21) C  6
  359.  0.00000     3.53005  232.   RY (22) C  6
  360.  0.00000     5.11624  233.   RY (23) C  6
  361.  0.00000     3.70027  234.   RY (24) C  6
  362.  0.00000     3.71679  235.   RY (25) C  6
  363.  0.00000     6.94932  236.   RY (26) C  6
  364.  0.00000     3.11866  251.   RY (15) C  7
  365.  0.00000     4.69669  252.   RY (16) C  7
  366.  0.00000     6.61520  253.   RY (17) C  7
  367.  0.00000     4.66116  254.   RY (18) C  7
  368.  0.00000     4.02202  255.   RY (19) C  7
  369.  0.00000     9.57625  256.   RY (20) C  7
  370.  0.00000     3.42600  257.   RY (21) C  7
  371.  0.00000     3.86982  258.   RY (22) C  7
  372.  0.00000     4.84320  279.   RY (17) C  8
  373.  0.00000     2.02778  300.   RY (12)Br  9
  374.  0.00000     3.27266  259.   RY (23) C  7
  375.  0.00000     2.88792  260.   RY (24) C  7
  376.  0.00000     3.29222  261.   RY (25) C  7
  377.  0.00000     3.22564  262.   RY (26) C  7
  378.  0.00000     5.81671  280.   RY (18) C  8
  379.  0.00000     3.28857  281.   RY (19) C  8
  380.  0.00000     7.74094  282.   RY (20) C  8
  381.  0.00000     3.21633  283.   RY (21) C  8
  382.  0.00000     3.86442  284.   RY (22) C  8
  383.  0.00000     4.21533  285.   RY (23) C  8
  384.  0.00000     3.56187  286.   RY (24) C  8
  385.  0.00000     3.75355  287.   RY (25) C  8
  386.  0.00000     7.25200  288.   RY (26) C  8
  387.  0.00000     2.25184  301.   RY (13)Br  9
  388.  0.00000     1.91546  302.   RY (14)Br  9
  389.  0.00000     4.44943  303.   RY (15)Br  9
  390.  0.00000     2.38874  304.   RY (16)Br  9
  391.  0.00000     3.04624  305.   RY (17)Br  9
  392.  0.00000     2.41667  306.   RY (18)Br  9
  393.  0.00000     1.79652  307.   RY (19)Br  9
  394.  0.00000     3.79297  308.   RY (20)Br  9
  395.  0.00000     2.24839  309.   RY (21)Br  9
  396.  0.00000     2.40467  310.   RY (22)Br  9
  397.  0.00000     1.67075  311.   RY (23)Br  9
  398.  0.00000     1.75626  312.   RY (24)Br  9
  399.  0.00000     3.56162  313.   RY (25)Br  9
  400.  0.00000     2.60242  314.   RY (26)Br  9
  401.  0.00000     2.22681  315.   RY (27)Br  9
  402.  0.00000     2.28657  316.   RY (28)Br  9
  403.  0.00000     2.97176  317.   RY (29)Br  9
  404.  0.00000     2.68237  318.   RY (30)Br  9
  405.  0.00000     3.32428  335.   RY (17) C 10
  406.  0.00000     4.11973  336.   RY (18) C 10
  407.  0.00000     3.73744  337.   RY (19) C 10
  408.  0.00000     3.74011  363.   RY (19) C 11
  409.  0.00000     3.55720  364.   RY (20) C 11
  410.  0.00000     3.02326  365.   RY (21) C 11
  411.  0.00000     3.43723  388.   RY (18) C 12
  412.  0.00000    11.60078  338.   RY (20) C 10
  413.  0.00000     3.31819  339.   RY (21) C 10
  414.  0.00000     6.76532  340.   RY (22) C 10
  415.  0.00000     3.87185  341.   RY (23) C 10
  416.  0.00000     4.12075  342.   RY (24) C 10
  417.  0.00000     3.06284  343.   RY (25) C 10
  418.  0.00000     3.20068  344.   RY (26) C 10
  419.  0.00000     3.80204  366.   RY (22) C 11
  420.  0.00000     3.91731  367.   RY (23) C 11
  421.  0.00000     3.37254  389.   RY (19) C 12
  422.  0.00000     8.37338  368.   RY (24) C 11
  423.  0.00000     5.96479  369.   RY (25) C 11
  424.  0.00000    10.22618  370.   RY (26) C 11
  425.  0.00000     9.71238  390.   RY (20) C 12
  426.  0.00000     3.72287  391.   RY (21) C 12
  427.  0.00000     5.06831  392.   RY (22) C 12
  428.  0.00000     8.12289  393.   RY (23) C 12
  429.  0.00000     3.93328  394.   RY (24) C 12
  430.  0.00000     3.20473  395.   RY (25) C 12
  431.  0.00000     5.49351  396.   RY (26) C 12

 NBO analysis completed in 5.73 CPU seconds (6 wall seconds)
 Maximum scratch memory used by NBO was 2237499 words (17.07 MB)
 Maximum scratch memory used by G16NBO was 290039 words (2.21 MB)

 Opening RunExU unformatted file "/home/rpaton/opt/tzvp/popn/Gau-2191975.EUF"
 Read unf file /home/rpaton/opt/tzvp/popn/Gau-2191975.EUF:
 Label Gaussian matrix elements                                         IVers= 2 NLab= 2 Version=ES64L-G16RevC.01
 Title arbr47_wb97xd_popncreated by GaussianPrep                       
 NAtoms=    19 NBasis=   431 NBsUse=   431 ICharg=     0 Multip=     1 NE=   112 Len12L=8 Len4L=8 IOpCl= 0 ICGU=111
 GAUSSIAN SCALARS                    NI= 1 NR= 1 NTot=       1 LenBuf=    2 NRI=1 N=    1000
 ALPHA ORBITAL ENERGIES              NI= 0 NR= 1 NTot=     431 LenBuf= 2048 NRI=1 N=     431
 ALPHA MO COEFFICIENTS               NI= 0 NR= 1 NTot=  185761 LenBuf= 2048 NRI=1 N=     431     431
 Store file  10524 Len=  185761.
 NPA CHARGES                         NI= 0 NR= 1 NTot=      19 LenBuf= 2048 NRI=1 N=      19
 Recovered energy= -3071.84574776     dipole=      0.001568863320      0.496520613535      0.171679671492
 Unable to Open any file for archive entry.
 1\1\GINC-DYNAMO\SP\RwB97XD\def2TZVP\C9H7Br1O2\RPATON\23-Sep-2024\0\\# 
 pop=(nbo6read,savenbos,hirshfeld) wb97xd/def2tzvp\\arbr47_wb97xd_popnc
 reated by GaussianPrep\\0,1\O,0,-4.175534,-1.581028,0.487284\C,0,-3.31
 7935,-0.822637,0.126449\C,0,-3.437733,0.670273,0.387283\O,0,-2.490127,
 1.466638,-0.296746\C,0,-1.200551,1.033028,-0.194482\C,0,-0.18853,1.962
 311,-0.021326\C,0,1.126695,1.536791,0.056234\C,0,1.410215,0.183084,-0.
 027332\Br,0,3.205651,-0.407056,0.10295\C,0,0.400452,-0.746576,-0.20724
 7\C,0,-0.91619,-0.323723,-0.309332\C,0,-2.057913,-1.259155,-0.586299\H
 ,0,-4.42541,1.006333,0.076188\H,0,-3.349032,0.820197,1.470481\H,0,-0.4
 40022,3.011724,0.054228\H,0,1.923928,2.253991,0.193511\H,0,0.636002,-1
 .800343,-0.282868\H,0,-1.83598,-2.292657,-0.324631\H,0,-2.293051,-1.23
 7529,-1.658147\\Version=ES64L-G16RevC.01\State=1-A\HF=-3071.8457478\RM
 SD=7.321e-09\Dipole=-0.0015689,0.4965206,-0.1716797\Quadrupole=-5.4892
 509,3.6038676,1.8853833,-4.1745312,1.7185884,2.8705868\PG=C01 [X(C9H7B
 r1O2)]\\@
 The archive entry for this job was punched.


 IN NATURE THERE ARE NEITHER REWARDS OR
 PUNISHMENTS -- THERE ARE CONSEQUENCES.

                            -- ROBERT GREEN INGERSOLL
 Job cpu time:       0 days  0 hours 54 minutes 42.3 seconds.
 Elapsed time:       0 days  0 hours  2 minutes 18.3 seconds.
 File lengths (MBytes):  RWF=    103 Int=      0 D2E=      0 Chk=     10 Scr=      1
 Normal termination of Gaussian 16 at Mon Sep 23 04:12:04 2024.
