 Entering Gaussian System, Link 0=/usr/local/Gaussian/G16C/g16/g16
 Input=arbr42_wb97xd_popn.com
 Output=arbr42_wb97xd_popn.log
 Initial command:
 /usr/local/Gaussian/G16C/g16/l1.exe "/home/rpaton/opt/tzvp/popn/Gau-2187407.inp" -scrdir="/home/rpaton/opt/tzvp/popn/"
 Entering Link 1 = /usr/local/Gaussian/G16C/g16/l1.exe PID=   2187408.
  
 Copyright (c) 1988-2019, Gaussian, Inc.  All Rights Reserved.
  
 This is part of the Gaussian(R) 16 program.  It is based on
 the Gaussian(R) 09 system (copyright 2009, Gaussian, Inc.),
 the Gaussian(R) 03 system (copyright 2003, Gaussian, Inc.),
 the Gaussian(R) 98 system (copyright 1998, Gaussian, Inc.),
 the Gaussian(R) 94 system (copyright 1995, Gaussian, Inc.),
 the Gaussian 92(TM) system (copyright 1992, Gaussian, Inc.),
 the Gaussian 90(TM) system (copyright 1990, Gaussian, Inc.),
 the Gaussian 88(TM) system (copyright 1988, Gaussian, Inc.),
 the Gaussian 86(TM) system (copyright 1986, Carnegie Mellon
 University), and the Gaussian 82(TM) system (copyright 1983,
 Carnegie Mellon University). Gaussian is a federally registered
 trademark of Gaussian, Inc.
  
 This software contains proprietary and confidential information,
 including trade secrets, belonging to Gaussian, Inc.
  
 This software is provided under written license and may be
 used, copied, transmitted, or stored only in accord with that
 written license.
  
 The following legend is applicable only to US Government
 contracts under FAR:
  
                    RESTRICTED RIGHTS LEGEND
  
 Use, reproduction and disclosure by the US Government is
 subject to restrictions as set forth in subparagraphs (a)
 and (c) of the Commercial Computer Software - Restricted
 Rights clause in FAR 52.227-19.
  
 Gaussian, Inc.
 340 Quinnipiac St., Bldg. 40, Wallingford CT 06492
  
  
 ---------------------------------------------------------------
 Warning -- This program may not be used in any manner that
 competes with the business of Gaussian, Inc. or will provide
 assistance to any competitor of Gaussian, Inc.  The licensee
 of this program is prohibited from giving any competitor of
 Gaussian, Inc. access to this program.  By using this program,
 the user acknowledges that Gaussian, Inc. is engaged in the
 business of creating and licensing software in the field of
 computational chemistry and represents and warrants to the
 licensee that it is not a competitor of Gaussian, Inc. and that
 it will not use this program in any manner prohibited above.
 ---------------------------------------------------------------
  

 Cite this work as:
 Gaussian 16, Revision C.01,
 M. J. Frisch, G. W. Trucks, H. B. Schlegel, G. E. Scuseria, 
 M. A. Robb, J. R. Cheeseman, G. Scalmani, V. Barone, 
 G. A. Petersson, H. Nakatsuji, X. Li, M. Caricato, A. V. Marenich, 
 J. Bloino, B. G. Janesko, R. Gomperts, B. Mennucci, H. P. Hratchian, 
 J. V. Ortiz, A. F. Izmaylov, J. L. Sonnenberg, D. Williams-Young, 
 F. Ding, F. Lipparini, F. Egidi, J. Goings, B. Peng, A. Petrone, 
 T. Henderson, D. Ranasinghe, V. G. Zakrzewski, J. Gao, N. Rega, 
 G. Zheng, W. Liang, M. Hada, M. Ehara, K. Toyota, R. Fukuda, 
 J. Hasegawa, M. Ishida, T. Nakajima, Y. Honda, O. Kitao, H. Nakai, 
 T. Vreven, K. Throssell, J. A. Montgomery, Jr., J. E. Peralta, 
 F. Ogliaro, M. J. Bearpark, J. J. Heyd, E. N. Brothers, K. N. Kudin, 
 V. N. Staroverov, T. A. Keith, R. Kobayashi, J. Normand, 
 K. Raghavachari, A. P. Rendell, J. C. Burant, S. S. Iyengar, 
 J. Tomasi, M. Cossi, J. M. Millam, M. Klene, C. Adamo, R. Cammi, 
 J. W. Ochterski, R. L. Martin, K. Morokuma, O. Farkas, 
 J. B. Foresman, and D. J. Fox, Gaussian, Inc., Wallingford CT, 2019.
 
 ******************************************
 Gaussian 16:  ES64L-G16RevC.01  3-Jul-2019
                23-Sep-2024 
 ******************************************
 %chk=arbr42_wb97xd_popn.chk
 %mem=48GB
 %nprocshared=24
 Will use up to   24 processors via shared memory.
 ---------------------------------------------------
 # pop=(nbo6read,savenbos,hirshfeld) wb97xd/def2tzvp
 ---------------------------------------------------
 1/38=1,163=2,172=1/1;
 2/12=2,17=6,18=5,40=1/2;
 3/5=44,7=101,11=2,25=1,30=1,74=-58/1,2,3;
 4//1;
 5/5=2,38=5/2;
 6/7=2,8=2,9=2,10=2,28=1,40=2,73=1,79=1,113=1,114=1,124=2103,126=1/1,12;
 99/5=1,9=1/99;
 -----------------------------------------
 arbr42_wb97xd_popncreated by GaussianPrep
 -----------------------------------------
 Symbolic Z-matrix:
 Charge =  0 Multiplicity = 1
 Br                   -3.42039  -0.49755  -0.03971 
 C                    -1.76231   0.423     0.00033 
 C                    -1.74582   1.79527   0.18774 
 C                    -0.52813   2.44851   0.19762 
 C                     0.67356   1.76398   0.03712 
 C                     0.63361   0.38056  -0.13125 
 C                    -0.58852  -0.28292  -0.1624 
 C                     1.92092  -0.42906  -0.21877 
 C                     3.09041   0.41665  -0.68934 
 C                     3.20745   1.67167   0.16277 
 C                     1.96795   2.54035  -0.00888 
 O                     1.72724  -1.54909  -1.05984 
 C                     2.12051  -2.71464  -0.36165 
 C                     1.90151  -2.31682   1.08487 
 O                     2.24489  -0.94874   1.06856 
 H                    -2.66858   2.3441    0.3162 
 H                    -0.50856   3.52416   0.33176 
 H                    -0.61427  -1.34893  -0.33587 
 H                     3.99261  -0.19386  -0.63351 
 H                     2.9215    0.67757  -1.73762 
 H                     4.09839   2.23791  -0.11281 
 H                     3.32159   1.38083   1.2094 
 H                     1.94502   3.33034   0.7446 
 H                     2.01797   3.04608  -0.97991 
 H                     1.49782  -3.54501  -0.69319 
 H                     3.17298  -2.94795  -0.55678 
 H                     2.55526  -2.82936   1.78904 
 H                     0.85816  -2.45825   1.38954 
 
                          Input orientation:                          
 ---------------------------------------------------------------------
 Center     Atomic      Atomic             Coordinates (Angstroms)
 Number     Number       Type             X           Y           Z
 ---------------------------------------------------------------------
      1         35           0       -3.420394   -0.497550   -0.039705
      2          6           0       -1.762308    0.422996    0.000332
      3          6           0       -1.745816    1.795267    0.187744
      4          6           0       -0.528128    2.448515    0.197619
      5          6           0        0.673560    1.763976    0.037120
      6          6           0        0.633609    0.380557   -0.131247
      7          6           0       -0.588518   -0.282921   -0.162404
      8          6           0        1.920919   -0.429060   -0.218770
      9          6           0        3.090406    0.416648   -0.689341
     10          6           0        3.207452    1.671665    0.162771
     11          6           0        1.967947    2.540354   -0.008875
     12          8           0        1.727242   -1.549088   -1.059837
     13          6           0        2.120510   -2.714637   -0.361651
     14          6           0        1.901508   -2.316815    1.084873
     15          8           0        2.244887   -0.948742    1.068564
     16          1           0       -2.668581    2.344100    0.316203
     17          1           0       -0.508555    3.524157    0.331763
     18          1           0       -0.614272   -1.348935   -0.335874
     19          1           0        3.992606   -0.193860   -0.633513
     20          1           0        2.921495    0.677565   -1.737615
     21          1           0        4.098394    2.237905   -0.112814
     22          1           0        3.321589    1.380830    1.209400
     23          1           0        1.945022    3.330343    0.744598
     24          1           0        2.017973    3.046082   -0.979914
     25          1           0        1.497824   -3.545012   -0.693187
     26          1           0        3.172982   -2.947952   -0.556775
     27          1           0        2.555257   -2.829355    1.789037
     28          1           0        0.858158   -2.458254    1.389540
 ---------------------------------------------------------------------
                    Distance matrix (angstroms):
                    1          2          3          4          5
     1  Br   0.000000
     2  C    1.896907   0.000000
     3  C    2.848325   1.385108   0.000000
     4  C    4.135314   2.380094   1.381881   0.000000
     5  C    4.677698   2.780833   2.424262   1.392267   0.000000
     6  C    4.149023   2.399903   2.786543   2.394626   1.394199
     7  C    2.842647   1.379342   2.404331   2.755722   2.412973
     8  C    5.344753   3.786841   4.307880   3.801532   2.535900
     9  C    6.606686   4.901482   5.104793   4.243698   2.860801
    10  C    6.976735   5.126800   4.954873   3.815661   2.538684
    11  C    6.185793   4.289300   3.792868   2.506285   1.510072
    12  O    5.352061   4.146086   4.980291   4.759067   3.645539
    13  C    5.976683   5.005202   5.965697   5.829769   4.723416
    14  C    5.735594   4.701738   5.569294   5.422059   4.388451
    15  O    5.790271   4.368111   4.922514   4.470963   3.300270
    16  H    2.960890   2.147498   1.081302   2.146277   3.403577
    17  H    4.979048   3.361390   2.130872   1.084151   2.140665
    18  H    2.947354   2.137934   3.382392   3.835709   3.389373
    19  H    7.442943   5.822483   6.128668   5.301883   3.911386
    20  H    6.669584   5.002327   5.171079   4.333739   3.063198
    21  H    8.001264   6.136328   5.868650   4.641706   3.460719
    22  H    7.109354   5.312749   5.185955   4.121162   2.921147
    23  H    6.637438   4.769790   4.035942   2.682029   2.137907
    24  H    6.558747   4.704465   4.134498   2.868153   2.117924
    25  H    5.822622   5.182134   6.309978   6.389083   5.422003
    26  H    7.052974   6.002562   6.873646   6.587047   5.366758
    27  H    6.670084   5.693735   6.515405   6.316311   5.263904
    28  H    4.918649   4.135014   5.130052   5.236301   4.437380
                    6          7          8          9         10
     6  C    0.000000
     7  C    1.390959   0.000000
     8  C    1.523255   2.514321   0.000000
     9  C    2.519647   3.781738   1.518012   0.000000
    10  C    2.894490   4.282001   2.492747   1.521467   0.000000
    11  C    2.541684   3.811819   2.977194   2.496613   1.523304
    12  O    2.404546   2.787707   1.413990   2.420661   3.749539
    13  C    3.441538   3.645789   2.298720   3.294393   4.549297
    14  C    3.219058   3.448573   2.294228   3.468881   4.296945
    15  O    2.408900   3.160187   1.425571   2.381055   2.934881
    16  H    3.867838   3.384814   5.388889   6.155658   5.916373
    17  H    3.376557   3.839849   4.672618   4.863310   4.155598
    18  H    2.142480   1.080343   2.699459   4.119085   4.896759
    19  H    3.444574   4.606145   2.125845   1.090780   2.175022
    20  H    2.811237   3.965352   2.129005   1.093383   2.163671
    21  H    3.931261   5.322045   3.444608   2.159954   1.091033
    22  H    3.165931   4.465294   2.697637   2.142034   1.092266
    23  H    3.344869   4.505236   3.880950   3.443502   2.164131
    24  H    3.121173   4.306318   3.558844   2.854552   2.147001
    25  H    4.058662   3.908426   3.180132   4.269787   5.556007
    26  H    4.208142   4.626748   2.833148   3.368223   4.675446
    27  H    4.205206   4.491745   3.192975   4.118893   4.830039
    28  H    3.228322   3.038663   2.798884   4.191627   4.907176
                   11         12         13         14         15
    11  C    0.000000
    12  O    4.229184   0.000000
    13  C    5.269028   1.414436   0.000000
    14  C    4.979236   2.284634   1.516132   0.000000
    15  O    3.662153   2.271225   2.275823   1.410602   0.000000
    16  H    4.652052   6.031058   6.998978   6.572724   5.962468
    17  H    2.686441   5.716044   6.805539   6.363374   5.303880
    18  H    4.679888   2.459039   3.056933   3.047042   3.210513
    19  H    3.459096   2.673999   3.151661   3.439837   2.553710
    20  H    2.714365   2.616029   3.747251   4.239472   3.313203
    21  H    2.154317   4.567333   5.338691   5.196752   3.871158
    22  H    2.158943   4.034328   4.547927   3.962918   2.570219
    23  H    1.091939   5.206944   6.147875   5.657568   4.301795
    24  H    1.095984   4.605052   5.794708   5.747832   4.495150
    25  H    6.141741   2.042248   1.089576   2.198392   3.225289
    26  H    5.645689   2.073658   1.095539   2.170251   2.738600
    27  H    5.693083   3.231219   2.197185   1.089005   2.037674
    28  H    5.307851   2.753423   2.173922   1.096087   2.074770
                   16         17         18         19         20
    16  H    0.000000
    17  H    2.461400   0.000000
    18  H    4.275967   4.919750   0.000000
    19  H    7.191287   5.917420   4.758793   0.000000
    20  H    6.184210   4.914332   4.309667   1.767965   0.000000
    21  H    6.781392   4.803756   5.926584   2.489136   2.541600
    22  H    6.132522   4.475947   5.032941   2.515202   3.056068
    23  H    4.737249   2.495603   5.441787   4.302534   3.761929
    24  H    4.912890   2.886589   5.163301   3.810038   2.645815
    25  H    7.284191   7.419517   3.067797   4.178243   4.576879
    26  H    7.930433   7.498761   4.116910   2.874490   3.821257
    27  H    7.498157   7.202618   4.093019   3.857532   4.986972
    28  H    6.054134   6.227041   2.525013   4.364056   4.885675
                   21         22         23         24         25
    21  H    0.000000
    22  H    1.756774   0.000000
    23  H    2.562340   2.431374   0.000000
    24  H    2.394403   3.043941   1.749305   0.000000
    25  H    6.367254   5.586580   7.038304   6.617801   0.000000
    26  H    5.286455   4.677586   6.528280   6.118949   1.783604
    27  H    5.628093   4.318437   6.277350   6.517402   2.791373
    28  H    5.900009   4.565031   5.924954   6.103867   2.434742
                   26         27         28
    26  H    0.000000
    27  H    2.428679   0.000000
    28  H    3.063716   1.782543   0.000000
 Stoichiometry    C12H13BrO2
 Framework group  C1[X(C12H13BrO2)]
 Deg. of freedom    78
 Full point group                 C1      NOp   1
 Largest Abelian subgroup         C1      NOp   1
 Largest concise Abelian subgroup C1      NOp   1
                         Standard orientation:                         
 ---------------------------------------------------------------------
 Center     Atomic      Atomic             Coordinates (Angstroms)
 Number     Number       Type             X           Y           Z
 ---------------------------------------------------------------------
      1         35           0       -3.420394   -0.497550   -0.039705
      2          6           0       -1.762308    0.422996    0.000332
      3          6           0       -1.745816    1.795267    0.187744
      4          6           0       -0.528128    2.448515    0.197619
      5          6           0        0.673560    1.763976    0.037120
      6          6           0        0.633609    0.380557   -0.131247
      7          6           0       -0.588518   -0.282921   -0.162404
      8          6           0        1.920919   -0.429060   -0.218770
      9          6           0        3.090406    0.416648   -0.689341
     10          6           0        3.207452    1.671665    0.162771
     11          6           0        1.967947    2.540354   -0.008875
     12          8           0        1.727242   -1.549088   -1.059837
     13          6           0        2.120510   -2.714637   -0.361651
     14          6           0        1.901508   -2.316815    1.084873
     15          8           0        2.244887   -0.948742    1.068564
     16          1           0       -2.668581    2.344100    0.316203
     17          1           0       -0.508555    3.524157    0.331763
     18          1           0       -0.614272   -1.348935   -0.335874
     19          1           0        3.992606   -0.193860   -0.633513
     20          1           0        2.921495    0.677565   -1.737615
     21          1           0        4.098394    2.237905   -0.112814
     22          1           0        3.321589    1.380830    1.209400
     23          1           0        1.945022    3.330343    0.744598
     24          1           0        2.017973    3.046082   -0.979914
     25          1           0        1.497824   -3.545012   -0.693187
     26          1           0        3.172982   -2.947952   -0.556775
     27          1           0        2.555257   -2.829355    1.789037
     28          1           0        0.858158   -2.458254    1.389540
 ---------------------------------------------------------------------
 Rotational constants (GHZ):           0.7786813           0.2937934           0.2272806
 Standard basis: def2TZVP (5D, 7F)
 There are   637 symmetry adapted cartesian basis functions of A   symmetry.
 There are   560 symmetry adapted basis functions of A   symmetry.
   560 basis functions,   932 primitive gaussians,   637 cartesian basis functions
    68 alpha electrons       68 beta electrons
       nuclear repulsion energy      1337.8435832559 Hartrees.
 NAtoms=   28 NActive=   28 NUniq=   28 SFac= 1.00D+00 NAtFMM=   60 NAOKFM=F Big=F
 Integral buffers will be    131072 words long.
 Raffenetti 2 integral format.
 Two-electron integral symmetry is turned on.
 Nuclear repulsion after empirical dispersion term =     1337.8217630436 Hartrees.
 One-electron integrals computed using PRISM.
   1 Symmetry operations used in ECPInt.
 ECPInt:  NShTT=   24753 NPrTT=   79416 LenC2=   23204 LenP2D=   54692.
 LDataN:  DoStor=T MaxTD1= 6 Len=  172
 NBasis=   560 RedAO= T EigKep=  5.25D-06  NBF=   560
 NBsUse=   560 1.00D-06 EigRej= -1.00D+00 NBFU=   560
 ExpMin= 9.52D-02 ExpMax= 5.65D+05 ExpMxC= 5.46D+03 IAcc=3 IRadAn=         5 AccDes= 0.00D+00
 Harris functional with IExCor= 4639 and IRadAn=       5 diagonalized for initial guess.
 HarFok:  IExCor= 4639 AccDes= 0.00D+00 IRadAn=         5 IDoV= 1 UseB2=F ITyADJ=14
 ICtDFT=  3500011 ScaDFX=  1.000000  1.000000  1.000000  1.000000
 FoFCou: FMM=F IPFlag=           0 FMFlag=      100000 FMFlg1=           0
         NFxFlg=           0 DoJE=T BraDBF=F KetDBF=T FulRan=T
         wScrn=  0.000000 ICntrl=       500 IOpCl=  0 I1Cent=   200000004 NGrid=           0
         NMat0=    1 NMatS0=      1 NMatT0=    0 NMatD0=    1 NMtDS0=    0 NMtDT0=    0
 Petite list used in FoFCou.
 Requested convergence on RMS density matrix=1.00D-08 within 128 cycles.
 Requested convergence on MAX density matrix=1.00D-06.
 Requested convergence on             energy=1.00D-06.
 No special actions if energy rises.
 Integral accuracy reduced to 1.0D-05 until final iterations.
 Problem detected with inexpensive integrals.
 Switching to full accuracy and repeating last cycle.
 SCF Done:  E(RwB97XD) =  -3189.79587373     A.U. after   24 cycles
            NFock= 24  Conv=0.10D-07     -V/T= 2.0020

 **********************************************************************

            Population analysis using the SCF Density.

 **********************************************************************

 Orbital symmetries:
       Occupied  (A) (A) (A) (A) (A) (A) (A) (A) (A) (A) (A) (A)
                 (A) (A) (A) (A) (A) (A) (A) (A) (A) (A) (A) (A)
                 (A) (A) (A) (A) (A) (A) (A) (A) (A) (A) (A) (A)
                 (A) (A) (A) (A) (A) (A) (A) (A) (A) (A) (A) (A)
                 (A) (A) (A) (A) (A) (A) (A) (A) (A) (A) (A) (A)
                 (A) (A) (A) (A) (A) (A) (A) (A)
       Virtual   (A) (A) (A) (A) (A) (A) (A) (A) (A) (A) (A) (A)
                 (A) (A) (A) (A) (A) (A) (A) (A) (A) (A) (A) (A)
                 (A) (A) (A) (A) (A) (A) (A) (A) (A) (A) (A) (A)
                 (A) (A) (A) (A) (A) (A) (A) (A) (A) (A) (A) (A)
                 (A) (A) (A) (A) (A) (A) (A) (A) (A) (A) (A) (A)
                 (A) (A) (A) (A) (A) (A) (A) (A) (A) (A) (A) (A)
                 (A) (A) (A) (A) (A) (A) (A) (A) (A) (A) (A) (A)
                 (A) (A) (A) (A) (A) (A) (A) (A) (A) (A) (A) (A)
                 (A) (A) (A) (A) (A) (A) (A) (A) (A) (A) (A) (A)
                 (A) (A) (A) (A) (A) (A) (A) (A) (A) (A) (A) (A)
                 (A) (A) (A) (A) (A) (A) (A) (A) (A) (A) (A) (A)
                 (A) (A) (A) (A) (A) (A) (A) (A) (A) (A) (A) (A)
                 (A) (A) (A) (A) (A) (A) (A) (A) (A) (A) (A) (A)
                 (A) (A) (A) (A) (A) (A) (A) (A) (A) (A) (A) (A)
                 (A) (A) (A) (A) (A) (A) (A) (A) (A) (A) (A) (A)
                 (A) (A) (A) (A) (A) (A) (A) (A) (A) (A) (A) (A)
                 (A) (A) (A) (A) (A) (A) (A) (A) (A) (A) (A) (A)
                 (A) (A) (A) (A) (A) (A) (A) (A) (A) (A) (A) (A)
                 (A) (A) (A) (A) (A) (A) (A) (A) (A) (A) (A) (A)
                 (A) (A) (A) (A) (A) (A) (A) (A) (A) (A) (A) (A)
                 (A) (A) (A) (A) (A) (A) (A) (A) (A) (A) (A) (A)
                 (A) (A) (A) (A) (A) (A) (A) (A) (A) (A) (A) (A)
                 (A) (A) (A) (A) (A) (A) (A) (A) (A) (A) (A) (A)
                 (A) (A) (A) (A) (A) (A) (A) (A) (A) (A) (A) (A)
                 (A) (A) (A) (A) (A) (A) (A) (A) (A) (A) (A) (A)
                 (A) (A) (A) (A) (A) (A) (A) (A) (A) (A) (A) (A)
                 (A) (A) (A) (A) (A) (A) (A) (A) (A) (A) (A) (A)
                 (A) (A) (A) (A) (A) (A) (A) (A) (A) (A) (A) (A)
                 (A) (A) (A) (A) (A) (A) (A) (A) (A) (A) (A) (A)
                 (A) (A) (A) (A) (A) (A) (A) (A) (A) (A) (A) (A)
                 (A) (A) (A) (A) (A) (A) (A) (A) (A) (A) (A) (A)
                 (A) (A) (A) (A) (A) (A) (A) (A) (A) (A) (A) (A)
                 (A) (A) (A) (A) (A) (A) (A) (A) (A) (A) (A) (A)
                 (A) (A) (A) (A) (A) (A) (A) (A) (A) (A) (A) (A)
                 (A) (A) (A) (A) (A) (A) (A) (A) (A) (A) (A) (A)
                 (A) (A) (A) (A) (A) (A) (A) (A) (A) (A) (A) (A)
                 (A) (A) (A) (A) (A) (A) (A) (A) (A) (A) (A) (A)
                 (A) (A) (A) (A) (A) (A) (A) (A) (A) (A) (A) (A)
                 (A) (A) (A) (A) (A) (A) (A) (A) (A) (A) (A) (A)
                 (A) (A) (A) (A) (A) (A) (A) (A) (A) (A) (A) (A)
                 (A) (A) (A) (A) (A) (A) (A) (A) (A) (A) (A) (A)
 The electronic state is 1-A.
 Alpha  occ. eigenvalues -- -483.12435 -62.67276 -56.46389 -56.46037 -56.46031
 Alpha  occ. eigenvalues --  -19.26537 -19.26431 -10.39609 -10.34177 -10.34015
 Alpha  occ. eigenvalues --  -10.33914 -10.30305 -10.29900 -10.29794 -10.29579
 Alpha  occ. eigenvalues --  -10.29365 -10.29073 -10.28388 -10.28202  -8.81392
 Alpha  occ. eigenvalues --   -6.63541  -6.62411  -6.62390  -2.73936  -2.73600
 Alpha  occ. eigenvalues --   -2.73586  -2.72671  -2.72670  -1.20683  -1.10660
 Alpha  occ. eigenvalues --   -0.98741  -0.93929  -0.89908  -0.88238  -0.85237
 Alpha  occ. eigenvalues --   -0.82993  -0.79267  -0.74082  -0.72873  -0.71350
 Alpha  occ. eigenvalues --   -0.69694  -0.64643  -0.61913  -0.60497  -0.58411
 Alpha  occ. eigenvalues --   -0.57675  -0.57425  -0.54001  -0.53475  -0.52558
 Alpha  occ. eigenvalues --   -0.51387  -0.50299  -0.49682  -0.49317  -0.46952
 Alpha  occ. eigenvalues --   -0.46709  -0.45499  -0.44134  -0.43711  -0.42567
 Alpha  occ. eigenvalues --   -0.41697  -0.41109  -0.39096  -0.37010  -0.36759
 Alpha  occ. eigenvalues --   -0.34371  -0.33568  -0.31119
 Alpha virt. eigenvalues --    0.04335   0.04870   0.07791   0.11030   0.11891
 Alpha virt. eigenvalues --    0.13967   0.14352   0.15118   0.15486   0.16033
 Alpha virt. eigenvalues --    0.16332   0.17795   0.18276   0.18776   0.19473
 Alpha virt. eigenvalues --    0.20132   0.20855   0.21510   0.22036   0.22779
 Alpha virt. eigenvalues --    0.23561   0.24767   0.25323   0.25684   0.26443
 Alpha virt. eigenvalues --    0.27531   0.27877   0.28365   0.28599   0.28849
 Alpha virt. eigenvalues --    0.29686   0.30475   0.30870   0.32138   0.32317
 Alpha virt. eigenvalues --    0.32445   0.33363   0.34118   0.34514   0.35700
 Alpha virt. eigenvalues --    0.36227   0.36916   0.37271   0.38412   0.38901
 Alpha virt. eigenvalues --    0.39165   0.40891   0.41342   0.41800   0.43218
 Alpha virt. eigenvalues --    0.43780   0.44158   0.44614   0.45148   0.45514
 Alpha virt. eigenvalues --    0.46572   0.46969   0.47349   0.47962   0.48433
 Alpha virt. eigenvalues --    0.48758   0.49526   0.49960   0.50116   0.50279
 Alpha virt. eigenvalues --    0.51040   0.51787   0.52502   0.53092   0.53678
 Alpha virt. eigenvalues --    0.54127   0.54602   0.54897   0.55083   0.55851
 Alpha virt. eigenvalues --    0.56780   0.57703   0.58744   0.59663   0.60105
 Alpha virt. eigenvalues --    0.61032   0.61552   0.61871   0.63265   0.64027
 Alpha virt. eigenvalues --    0.65322   0.66539   0.67788   0.68050   0.69849
 Alpha virt. eigenvalues --    0.71716   0.72955   0.74448   0.75122   0.75729
 Alpha virt. eigenvalues --    0.76463   0.76909   0.78944   0.79192   0.80178
 Alpha virt. eigenvalues --    0.80495   0.81519   0.82828   0.83537   0.84453
 Alpha virt. eigenvalues --    0.85875   0.86754   0.87999   0.88767   0.90282
 Alpha virt. eigenvalues --    0.91096   0.92294   0.92962   0.93742   0.94793
 Alpha virt. eigenvalues --    0.95096   0.96677   0.96797   0.97944   0.98097
 Alpha virt. eigenvalues --    0.99438   1.00592   1.01103   1.01544   1.02613
 Alpha virt. eigenvalues --    1.05223   1.06012   1.07418   1.08356   1.09096
 Alpha virt. eigenvalues --    1.10457   1.12220   1.12876   1.14314   1.14679
 Alpha virt. eigenvalues --    1.16858   1.18093   1.19545   1.19981   1.20596
 Alpha virt. eigenvalues --    1.20817   1.21878   1.23446   1.23719   1.25073
 Alpha virt. eigenvalues --    1.27399   1.29143   1.29401   1.29802   1.31126
 Alpha virt. eigenvalues --    1.31834   1.32944   1.33589   1.34858   1.35345
 Alpha virt. eigenvalues --    1.36909   1.38264   1.39990   1.41646   1.42530
 Alpha virt. eigenvalues --    1.43962   1.44948   1.45844   1.47129   1.47872
 Alpha virt. eigenvalues --    1.49152   1.49361   1.52025   1.52308   1.53397
 Alpha virt. eigenvalues --    1.54558   1.55243   1.56718   1.59120   1.59869
 Alpha virt. eigenvalues --    1.60116   1.62014   1.62683   1.63388   1.64104
 Alpha virt. eigenvalues --    1.65051   1.65802   1.66366   1.67888   1.68390
 Alpha virt. eigenvalues --    1.68409   1.69324   1.70750   1.71600   1.72554
 Alpha virt. eigenvalues --    1.73096   1.73300   1.73943   1.74563   1.75241
 Alpha virt. eigenvalues --    1.76480   1.78424   1.78666   1.79802   1.80525
 Alpha virt. eigenvalues --    1.81730   1.83390   1.83925   1.85098   1.87086
 Alpha virt. eigenvalues --    1.88713   1.89146   1.90013   1.90800   1.92944
 Alpha virt. eigenvalues --    1.94234   1.94750   1.95899   1.97785   1.98572
 Alpha virt. eigenvalues --    1.99297   2.00154   2.00989   2.02349   2.02979
 Alpha virt. eigenvalues --    2.05124   2.07064   2.08192   2.09333   2.10432
 Alpha virt. eigenvalues --    2.12360   2.13603   2.13858   2.14937   2.15530
 Alpha virt. eigenvalues --    2.17287   2.18303   2.20188   2.23676   2.25617
 Alpha virt. eigenvalues --    2.25875   2.27117   2.27400   2.29481   2.30196
 Alpha virt. eigenvalues --    2.31591   2.33172   2.34691   2.34920   2.37649
 Alpha virt. eigenvalues --    2.39019   2.39935   2.40705   2.42476   2.44169
 Alpha virt. eigenvalues --    2.44831   2.46076   2.47099   2.50668   2.51848
 Alpha virt. eigenvalues --    2.55114   2.55594   2.57116   2.57824   2.58698
 Alpha virt. eigenvalues --    2.59395   2.60201   2.60734   2.63422   2.64149
 Alpha virt. eigenvalues --    2.65335   2.66781   2.68016   2.68687   2.69722
 Alpha virt. eigenvalues --    2.70312   2.71699   2.72215   2.74204   2.74594
 Alpha virt. eigenvalues --    2.75241   2.75925   2.77074   2.77644   2.77854
 Alpha virt. eigenvalues --    2.79640   2.81087   2.81704   2.82337   2.82778
 Alpha virt. eigenvalues --    2.84491   2.86069   2.86919   2.87866   2.88500
 Alpha virt. eigenvalues --    2.89433   2.90235   2.91122   2.92331   2.93786
 Alpha virt. eigenvalues --    2.95109   2.95357   2.96968   2.98396   2.99185
 Alpha virt. eigenvalues --    3.00863   3.01294   3.02755   3.03910   3.05325
 Alpha virt. eigenvalues --    3.06454   3.08618   3.09585   3.10373   3.12197
 Alpha virt. eigenvalues --    3.13096   3.14288   3.15319   3.16833   3.17744
 Alpha virt. eigenvalues --    3.17992   3.20999   3.22031   3.22534   3.24534
 Alpha virt. eigenvalues --    3.25237   3.25663   3.26206   3.27331   3.28861
 Alpha virt. eigenvalues --    3.29005   3.30523   3.31661   3.31918   3.33228
 Alpha virt. eigenvalues --    3.34538   3.35279   3.36701   3.37627   3.38248
 Alpha virt. eigenvalues --    3.38773   3.40159   3.41323   3.41702   3.43118
 Alpha virt. eigenvalues --    3.44634   3.45671   3.45931   3.47705   3.48430
 Alpha virt. eigenvalues --    3.48878   3.49879   3.51195   3.51594   3.51987
 Alpha virt. eigenvalues --    3.53755   3.54031   3.56141   3.56554   3.56891
 Alpha virt. eigenvalues --    3.57174   3.58315   3.59873   3.60731   3.61731
 Alpha virt. eigenvalues --    3.63983   3.65013   3.65390   3.65845   3.66727
 Alpha virt. eigenvalues --    3.68091   3.70158   3.71898   3.72810   3.74156
 Alpha virt. eigenvalues --    3.76384   3.77542   3.79110   3.80350   3.83685
 Alpha virt. eigenvalues --    3.85067   3.85645   3.86930   3.90320   3.91573
 Alpha virt. eigenvalues --    3.92870   3.94617   3.96658   3.97512   4.01291
 Alpha virt. eigenvalues --    4.02767   4.04186   4.06941   4.08699   4.09029
 Alpha virt. eigenvalues --    4.10954   4.11731   4.12395   4.13060   4.14480
 Alpha virt. eigenvalues --    4.16931   4.18363   4.19581   4.21088   4.22106
 Alpha virt. eigenvalues --    4.22923   4.24223   4.26892   4.28004   4.29048
 Alpha virt. eigenvalues --    4.30719   4.32755   4.34976   4.35575   4.36945
 Alpha virt. eigenvalues --    4.38118   4.39057   4.40265   4.41446   4.45252
 Alpha virt. eigenvalues --    4.46445   4.46908   4.47876   4.49625   4.51861
 Alpha virt. eigenvalues --    4.54143   4.55777   4.56390   4.61183   4.62268
 Alpha virt. eigenvalues --    4.64245   4.67305   4.72246   4.76208   4.78255
 Alpha virt. eigenvalues --    4.79428   4.80547   4.81415   4.84989   4.86884
 Alpha virt. eigenvalues --    4.88484   4.92246   4.94281   4.96744   4.99614
 Alpha virt. eigenvalues --    5.04245   5.07205   5.10229   5.15311   5.20644
 Alpha virt. eigenvalues --    5.24212   5.28233   5.34083   5.36711   5.47785
 Alpha virt. eigenvalues --    5.48637   5.54207   5.57309   5.62036   5.67967
 Alpha virt. eigenvalues --    5.70556   5.79531   5.85027   5.93109   5.97627
 Alpha virt. eigenvalues --    5.99194   6.02424   6.03539   6.12013   6.30061
 Alpha virt. eigenvalues --    6.33214   6.44077   6.79623   6.84786   6.93111
 Alpha virt. eigenvalues --    7.03142   7.04543   7.16295   7.30614   7.31867
 Alpha virt. eigenvalues --    7.38038   7.55523   7.86850  22.22435  22.57049
 Alpha virt. eigenvalues --   22.61607  22.64558  22.69138  22.74041  22.82780
 Alpha virt. eigenvalues --   22.92306  22.99693  23.02324  23.10868  23.61115
 Alpha virt. eigenvalues --   44.49910  44.55501
          Condensed to atoms (all electrons):
               1          2          3          4          5          6
     1  Br  34.853204   0.363229  -0.079846   0.017861  -0.000413   0.019342
     2  C    0.363229   5.008810   0.293137   0.125658  -0.114505   0.120922
     3  C   -0.079846   0.293137   5.168705   0.318555   0.079619  -0.153210
     4  C    0.017861   0.125658   0.318555   5.205402   0.327985   0.061619
     5  C   -0.000413  -0.114505   0.079619   0.327985   5.286718   0.357366
     6  C    0.019342   0.120922  -0.153210   0.061619   0.357366   5.844641
     7  C   -0.091471   0.214946   0.119405  -0.203971   0.029065  -0.031623
     8  C   -0.001523  -0.004267   0.000781   0.002180  -0.077369   0.158570
     9  C    0.000014  -0.000469   0.000201  -0.002923  -0.029381  -0.042008
    10  C   -0.000002  -0.000323  -0.000245   0.010507  -0.019053   0.005342
    11  C    0.000004  -0.003622   0.009323  -0.070694   0.304329  -0.120055
    12  O    0.000049   0.003668   0.000412  -0.000138  -0.010014  -0.166012
    13  C    0.000041  -0.000140  -0.000133   0.000108   0.001319   0.021075
    14  C   -0.000169   0.000032  -0.000029   0.000133   0.002542   0.029592
    15  O    0.000031  -0.004451   0.001311  -0.002276   0.003872  -0.021960
    16  H   -0.003914  -0.076329   0.462842  -0.069288   0.015533  -0.006740
    17  H   -0.000335   0.011134  -0.061367   0.457000  -0.078355   0.023908
    18  H   -0.002694  -0.062581   0.016021  -0.005159   0.007237  -0.093124
    19  H   -0.000001   0.000013   0.000001   0.000093   0.000317   0.011497
    20  H   -0.000002   0.000258  -0.000176   0.000663  -0.014239   0.011694
    21  H    0.000000  -0.000006   0.000024  -0.001144   0.012049   0.000350
    22  H   -0.000000   0.000076  -0.000106   0.001095  -0.005476   0.001208
    23  H   -0.000001   0.000066   0.000378  -0.001775  -0.045692   0.010503
    24  H   -0.000003   0.000449  -0.000603   0.003757  -0.039959  -0.010067
    25  H    0.000002  -0.000244  -0.000013   0.000006   0.000267   0.006805
    26  H    0.000000   0.000099   0.000004  -0.000013  -0.000368  -0.005593
    27  H    0.000001  -0.000089   0.000019  -0.000032  -0.000012  -0.001876
    28  H    0.000203   0.002638  -0.000310   0.000182   0.000317  -0.002777
               7          8          9         10         11         12
     1  Br  -0.091471  -0.001523   0.000014  -0.000002   0.000004   0.000049
     2  C    0.214946  -0.004267  -0.000469  -0.000323  -0.003622   0.003668
     3  C    0.119405   0.000781   0.000201  -0.000245   0.009323   0.000412
     4  C   -0.203971   0.002180  -0.002923   0.010507  -0.070694  -0.000138
     5  C    0.029065  -0.077369  -0.029381  -0.019053   0.304329  -0.010014
     6  C   -0.031623   0.158570  -0.042008   0.005342  -0.120055  -0.166012
     7  C    5.753604  -0.018746   0.029705  -0.005924   0.015315   0.066241
     8  C   -0.018746   4.745314   0.297126  -0.052014   0.008932   0.329937
     9  C    0.029705   0.297126   5.002601   0.280896  -0.033592  -0.023025
    10  C   -0.005924  -0.052014   0.280896   4.945216   0.319742   0.008381
    11  C    0.015315   0.008932  -0.033592   0.319742   4.992141  -0.001838
    12  O    0.066241   0.329937  -0.023025   0.008381  -0.001838   8.042232
    13  C   -0.011750  -0.060717   0.001463  -0.000385   0.000022   0.280739
    14  C   -0.005725  -0.050988   0.001831   0.000563   0.000102  -0.075149
    15  O    0.018352   0.204957  -0.037778  -0.001672  -0.007778  -0.042199
    16  H    0.022894   0.000128  -0.000010   0.000010   0.000009  -0.000000
    17  H   -0.003383  -0.000024   0.000106   0.000491  -0.008457   0.000009
    18  H    0.458987   0.015877   0.001529  -0.000298   0.000046   0.012377
    19  H   -0.001625  -0.019721   0.384603  -0.028341   0.009330  -0.000715
    20  H   -0.000041  -0.055202   0.435700  -0.040609   0.004360   0.002109
    21  H    0.000416   0.009255  -0.033269   0.417056  -0.048436  -0.000259
    22  H   -0.000593  -0.005981  -0.035561   0.412323  -0.019866   0.000442
    23  H   -0.000366  -0.002985   0.011324  -0.031573   0.410215   0.000009
    24  H   -0.000498  -0.002420  -0.006283  -0.023462   0.407102   0.000056
    25  H   -0.003438  -0.004925  -0.000303   0.000080   0.000028  -0.032899
    26  H    0.002460   0.027453  -0.003178  -0.001170   0.000047  -0.046838
    27  H    0.001111   0.001993   0.000582   0.000045   0.000035   0.004755
    28  H   -0.005168   0.025375  -0.000396  -0.000602   0.000116  -0.000406
              13         14         15         16         17         18
     1  Br   0.000041  -0.000169   0.000031  -0.003914  -0.000335  -0.002694
     2  C   -0.000140   0.000032  -0.004451  -0.076329   0.011134  -0.062581
     3  C   -0.000133  -0.000029   0.001311   0.462842  -0.061367   0.016021
     4  C    0.000108   0.000133  -0.002276  -0.069288   0.457000  -0.005159
     5  C    0.001319   0.002542   0.003872   0.015533  -0.078355   0.007237
     6  C    0.021075   0.029592  -0.021960  -0.006740   0.023908  -0.093124
     7  C   -0.011750  -0.005725   0.018352   0.022894  -0.003383   0.458987
     8  C   -0.060717  -0.050988   0.204957   0.000128  -0.000024   0.015877
     9  C    0.001463   0.001831  -0.037778  -0.000010   0.000106   0.001529
    10  C   -0.000385   0.000563  -0.001672   0.000010   0.000491  -0.000298
    11  C    0.000022   0.000102  -0.007778   0.000009  -0.008457   0.000046
    12  O    0.280739  -0.075149  -0.042199  -0.000000   0.000009   0.012377
    13  C    4.748324   0.392760  -0.071000  -0.000000  -0.000001  -0.003421
    14  C    0.392760   4.725895   0.292171  -0.000001  -0.000005  -0.001958
    15  O   -0.071000   0.292171   8.071899   0.000002   0.000013   0.001538
    16  H   -0.000000  -0.000001   0.000002   0.529613  -0.007323   0.000125
    17  H   -0.000001  -0.000005   0.000013  -0.007323   0.551971   0.000039
    18  H   -0.003421  -0.001958   0.001538   0.000125   0.000039   0.502933
    19  H    0.002075  -0.000248   0.001705   0.000000  -0.000004  -0.000064
    20  H   -0.001221   0.000351   0.004628  -0.000001   0.000020  -0.000041
    21  H    0.000028   0.000018   0.000167  -0.000000  -0.000010   0.000003
    22  H   -0.000097   0.000004   0.008645  -0.000001  -0.000011  -0.000004
    23  H   -0.000002  -0.000019   0.000211  -0.000029   0.003015   0.000009
    24  H   -0.000004  -0.000000  -0.000082  -0.000014   0.000209   0.000019
    25  H    0.401605  -0.019492   0.004082  -0.000000  -0.000000  -0.000168
    26  H    0.387559  -0.045081   0.002593  -0.000000   0.000000   0.000580
    27  H   -0.009871   0.388227  -0.028075  -0.000000  -0.000000   0.000423
    28  H   -0.068587   0.419055  -0.053155  -0.000002  -0.000000  -0.001350
              19         20         21         22         23         24
     1  Br  -0.000001  -0.000002   0.000000  -0.000000  -0.000001  -0.000003
     2  C    0.000013   0.000258  -0.000006   0.000076   0.000066   0.000449
     3  C    0.000001  -0.000176   0.000024  -0.000106   0.000378  -0.000603
     4  C    0.000093   0.000663  -0.001144   0.001095  -0.001775   0.003757
     5  C    0.000317  -0.014239   0.012049  -0.005476  -0.045692  -0.039959
     6  C    0.011497   0.011694   0.000350   0.001208   0.010503  -0.010067
     7  C   -0.001625  -0.000041   0.000416  -0.000593  -0.000366  -0.000498
     8  C   -0.019721  -0.055202   0.009255  -0.005981  -0.002985  -0.002420
     9  C    0.384603   0.435700  -0.033269  -0.035561   0.011324  -0.006283
    10  C   -0.028341  -0.040609   0.417056   0.412323  -0.031573  -0.023462
    11  C    0.009330   0.004360  -0.048436  -0.019866   0.410215   0.407102
    12  O   -0.000715   0.002109  -0.000259   0.000442   0.000009   0.000056
    13  C    0.002075  -0.001221   0.000028  -0.000097  -0.000002  -0.000004
    14  C   -0.000248   0.000351   0.000018   0.000004  -0.000019  -0.000000
    15  O    0.001705   0.004628   0.000167   0.008645   0.000211  -0.000082
    16  H    0.000000  -0.000001  -0.000000  -0.000001  -0.000029  -0.000014
    17  H   -0.000004   0.000020  -0.000010  -0.000011   0.003015   0.000209
    18  H   -0.000064  -0.000041   0.000003  -0.000004   0.000009   0.000019
    19  H    0.566195  -0.020136  -0.006146  -0.001705  -0.000284   0.000009
    20  H   -0.020136   0.555338  -0.003546   0.005462   0.000069   0.002512
    21  H   -0.006146  -0.003546   0.579309  -0.025135  -0.001789  -0.006793
    22  H   -0.001705   0.005462  -0.025135   0.548883  -0.007210   0.005890
    23  H   -0.000284   0.000069  -0.001789  -0.007210   0.567619  -0.030024
    24  H    0.000009   0.002512  -0.006793   0.005890  -0.030024   0.588746
    25  H    0.000166  -0.000038  -0.000004  -0.000003  -0.000000  -0.000000
    26  H    0.000098   0.000349   0.000027   0.000050  -0.000000   0.000001
    27  H   -0.000314  -0.000052  -0.000000  -0.000157   0.000001  -0.000000
    28  H    0.000204   0.000132  -0.000003   0.000157  -0.000002   0.000000
              25         26         27         28
     1  Br   0.000002   0.000000   0.000001   0.000203
     2  C   -0.000244   0.000099  -0.000089   0.002638
     3  C   -0.000013   0.000004   0.000019  -0.000310
     4  C    0.000006  -0.000013  -0.000032   0.000182
     5  C    0.000267  -0.000368  -0.000012   0.000317
     6  C    0.006805  -0.005593  -0.001876  -0.002777
     7  C   -0.003438   0.002460   0.001111  -0.005168
     8  C   -0.004925   0.027453   0.001993   0.025375
     9  C   -0.000303  -0.003178   0.000582  -0.000396
    10  C    0.000080  -0.001170   0.000045  -0.000602
    11  C    0.000028   0.000047   0.000035   0.000116
    12  O   -0.032899  -0.046838   0.004755  -0.000406
    13  C    0.401605   0.387559  -0.009871  -0.068587
    14  C   -0.019492  -0.045081   0.388227   0.419055
    15  O    0.004082   0.002593  -0.028075  -0.053155
    16  H   -0.000000  -0.000000  -0.000000  -0.000002
    17  H   -0.000000   0.000000  -0.000000  -0.000000
    18  H   -0.000168   0.000580   0.000423  -0.001350
    19  H    0.000166   0.000098  -0.000314   0.000204
    20  H   -0.000038   0.000349  -0.000052   0.000132
    21  H   -0.000004   0.000027  -0.000000  -0.000003
    22  H   -0.000003   0.000050  -0.000157   0.000157
    23  H   -0.000000  -0.000000   0.000001  -0.000002
    24  H   -0.000000   0.000001  -0.000000   0.000000
    25  H    0.579817  -0.041941   0.004279  -0.006729
    26  H   -0.041941   0.641289  -0.010421   0.009483
    27  H    0.004279  -0.010421   0.578340  -0.042096
    28  H   -0.006729   0.009483  -0.042096   0.632133
 Mulliken charges:
               1
     1  Br  -0.073605
     2  C    0.121891
     3  C   -0.174702
     4  C   -0.175391
     5  C    0.006303
     6  C   -0.029386
     7  C   -0.348179
     8  C    0.529004
     9  C   -0.199505
    10  C   -0.194979
    11  C   -0.166860
    12  O   -0.351925
    13  C   -0.009792
    14  C   -0.054410
    15  O   -0.345751
    16  H    0.132495
    17  H    0.111361
    18  H    0.153120
    19  H    0.102997
    20  H    0.111661
    21  H    0.107842
    22  H    0.117669
    23  H    0.118333
    24  H    0.111462
    25  H    0.113060
    26  H    0.082512
    27  H    0.113186
    28  H    0.091591
 Sum of Mulliken charges =  -0.00000
 Mulliken charges with hydrogens summed into heavy atoms:
               1
     1  Br  -0.073605
     2  C    0.121891
     3  C   -0.042207
     4  C   -0.064030
     5  C    0.006303
     6  C   -0.029386
     7  C   -0.195059
     8  C    0.529004
     9  C    0.015152
    10  C    0.030533
    11  C    0.062935
    12  O   -0.351925
    13  C    0.185781
    14  C    0.150366
    15  O   -0.345751
 Electronic spatial extent (au):  <R**2>=           4469.6581
 Charge=             -0.0000 electrons
 Dipole moment (field-independent basis, Debye):
    X=              2.3443    Y=              0.0904    Z=              0.3679  Tot=              2.3747
 Quadrupole moment (field-independent basis, Debye-Ang):
   XX=            -99.5612   YY=            -86.3304   ZZ=           -105.0327
   XY=             -2.8486   XZ=             -0.9915   YZ=             -1.8764
 Traceless Quadrupole moment (field-independent basis, Debye-Ang):
   XX=             -2.5864   YY=             10.6443   ZZ=             -8.0579
   XY=             -2.8486   XZ=             -0.9915   YZ=             -1.8764
 Octapole moment (field-independent basis, Debye-Ang**2):
  XXX=            -65.0847  YYY=            -36.8420  ZZZ=              1.0044  XYY=            -14.7641
  XXY=             -9.3232  XXZ=             -3.2493  XZZ=            -29.4750  YZZ=            -10.0523
  YYZ=              7.4381  XYZ=             -6.6487
 Hexadecapole moment (field-independent basis, Debye-Ang**3):
 XXXX=          -3298.9745 YYYY=          -1527.3431 ZZZZ=           -304.2128 XXXY=             24.6807
 XXXZ=            -10.7251 YYYX=            -20.3918 YYYZ=              6.2297 ZZZX=             12.4777
 ZZZY=            -11.2162 XXYY=           -768.5825 XXZZ=           -625.5072 YYZZ=           -325.7602
 XXYZ=             -6.3367 YYXZ=             10.5644 ZZXY=             16.3559
 N-N= 1.337821763044D+03 E-N=-1.026251023151D+04  KE= 3.183271198975D+03
 There are a total of      643302 grid points.
 ElSum from          density=      136.0000333967
 ElSum from atomic densities=      136.0000955156

 Hirshfeld populations at iteration   1 (CX, CA, CB, DipXYZ):
               1          2          3          4          5          6
     1  Br   0.000000  17.526102  17.526102   0.063261   0.034604  -0.003004
     2  C    0.000000   3.000304   3.000304  -0.052497  -0.025649  -0.002315
     3  C    0.000000   3.023381   3.023381  -0.037274   0.042141   0.008765
     4  C    0.000000   3.020482   3.020482   0.007804   0.056630   0.004539
     5  C    0.000000   2.997417   2.997417   0.060347   0.031349   0.003448
     6  C    0.000000   3.006348   3.006348   0.052587  -0.019754  -0.009740
     7  C    0.000000   3.023374   3.023374   0.015423  -0.036302  -0.004048
     8  C    0.000000   2.925904   2.925904  -0.004127  -0.043079   0.007191
     9  C    0.000000   3.031774   3.031774   0.011384   0.025401   0.004623
    10  C    0.000000   3.025763   3.025763  -0.002623   0.006158  -0.013366
    11  C    0.000000   3.024979   3.024979   0.006169  -0.015960   0.010476
    12  O    0.000000   4.082695   4.082695   0.045385  -0.004482   0.129671
    13  C    0.000000   2.990675   2.990675  -0.012158   0.005576  -0.032433
    14  C    0.000000   2.991419   2.991419   0.015091   0.017596   0.025119
    15  O    0.000000   4.083965   4.083965  -0.050844  -0.067267  -0.100761
    16  H    0.000000   0.476186   0.476186  -0.123567   0.098546   0.020726
    17  H    0.000000   0.477435   0.477435  -0.002312   0.154803   0.019241
    18  H    0.000000   0.479683   0.479683  -0.006747  -0.143196  -0.021155
    19  H    0.000000   0.482020   0.482020   0.128337  -0.070851   0.003553
    20  H    0.000000   0.481508   0.481508  -0.013064   0.040535  -0.139386
    21  H    0.000000   0.482593   0.482593   0.118607   0.075226  -0.038595
    22  H    0.000000   0.483531   0.483531   0.023019  -0.020782   0.135163
    23  H    0.000000   0.481026   0.481026   0.004989   0.104124   0.103983
    24  H    0.000000   0.481927   0.481927   0.012581   0.068574  -0.127223
    25  H    0.000000   0.476632   0.476632  -0.083370  -0.120291  -0.043705
    26  H    0.000000   0.483186   0.483186   0.134648  -0.038157  -0.023732
    27  H    0.000000   0.475977   0.475977   0.089003  -0.077170   0.098938
    28  H    0.000000   0.483731   0.483731  -0.125887  -0.031638   0.045690
       Tot   0.000000  68.000017  68.000017   0.274164   0.046687   0.061661

 Dip from Atomic Chgs              0.648043  -0.011129   0.083029
         Total Dipole              0.922208   0.035557   0.144690

 Hirshfeld charges, spin densities, dipoles, and CM5 charges using IRadAn=      5:
              Q-H        S-H        Dx         Dy         Dz        Q-CM5   
     1  Br  -0.052204   0.000000   0.063261   0.034604  -0.003004  -0.037277
     2  C   -0.000609   0.000000  -0.052497  -0.025649  -0.002315  -0.021935
     3  C   -0.046761   0.000000  -0.037274   0.042141   0.008765  -0.100775
     4  C   -0.040963   0.000000   0.007804   0.056630   0.004539  -0.094600
     5  C    0.005166   0.000000   0.060347   0.031349   0.003448  -0.006826
     6  C   -0.012696   0.000000   0.052587  -0.019754  -0.009740  -0.014667
     7  C   -0.046749   0.000000   0.015423  -0.036302  -0.004048  -0.096758
     8  C    0.148192   0.000000  -0.004127  -0.043079   0.007191   0.180371
     9  C   -0.063547   0.000000   0.011384   0.025401   0.004623  -0.162709
    10  C   -0.051526   0.000000  -0.002623   0.006158  -0.013366  -0.159616
    11  C   -0.049958   0.000000   0.006169  -0.015960   0.010476  -0.153234
    12  O   -0.165390   0.000000   0.045385  -0.004482   0.129671  -0.250821
    13  C    0.018651   0.000000  -0.012158   0.005576  -0.032433  -0.058755
    14  C    0.017161   0.000000   0.015091   0.017596   0.025119  -0.059961
    15  O   -0.167930   0.000000  -0.050844  -0.067267  -0.100761  -0.251801
    16  H    0.047627   0.000000  -0.123567   0.098546   0.020726   0.104785
    17  H    0.045130   0.000000  -0.002312   0.154803   0.019241   0.102152
    18  H    0.040634   0.000000  -0.006747  -0.143196  -0.021155   0.104466
    19  H    0.035961   0.000000   0.128337  -0.070851   0.003553   0.097003
    20  H    0.036984   0.000000  -0.013064   0.040535  -0.139386   0.096687
    21  H    0.034815   0.000000   0.118607   0.075226  -0.038595   0.089766
    22  H    0.032938   0.000000   0.023019  -0.020782   0.135163   0.092354
    23  H    0.037948   0.000000   0.004989   0.104124   0.103983   0.093818
    24  H    0.036146   0.000000   0.012581   0.068574  -0.127223   0.092184
    25  H    0.046735   0.000000  -0.083370  -0.120291  -0.043705   0.110112
    26  H    0.033628   0.000000   0.134648  -0.038157  -0.023732   0.097580
    27  H    0.048047   0.000000   0.089003  -0.077170   0.098938   0.111581
    28  H    0.032537   0.000000  -0.125887  -0.031638   0.045690   0.096844
       Tot  -0.000033   0.000000   0.274164   0.046687   0.061661  -0.000033
 Hirshfeld charges with hydrogens summed into heavy atoms:
              Q-H       Q-CM5   
     1  Br  -0.052204  -0.037277
     2  C   -0.000609  -0.021935
     3  C    0.000866   0.004010
     4  C    0.004167   0.007552
     5  C    0.005166  -0.006826
     6  C   -0.012696  -0.014667
     7  C   -0.006115   0.007708
     8  C    0.148192   0.180371
     9  C    0.009398   0.030981
    10  C    0.016226   0.022504
    11  C    0.024136   0.032768
    12  O   -0.165390  -0.250821
    13  C    0.099014   0.148937
    14  C    0.097745   0.148464
    15  O   -0.167930  -0.251801
 
 EQQ= 0.000000000000E+00 EQD= 0.000000000000E+00 EDD= 0.287368815831E-02
 EQQ+QD+DD= 0.287368815831E-02
 
 Running external command "gaunbo6 R"
         input file       "/home/rpaton/opt/tzvp/popn/Gau-2187408.EIn"
         output file      "/home/rpaton/opt/tzvp/popn/Gau-2187408.EOu"
         message file     "/home/rpaton/opt/tzvp/popn/Gau-2187408.EMs"
         fchk file        "/home/rpaton/opt/tzvp/popn/Gau-2187408.EFC"
         mat. el file     "/home/rpaton/opt/tzvp/popn/Gau-2187408.EUF"

 Writing WrtUnf unformatted file "/home/rpaton/opt/tzvp/popn/Gau-2187408.EUF"
 Gaussian matrix elements                                         Version   2 NLab=11 Len12L=8 Len4L=8
 Write SHELL TO ATOM MAP                   from file      0 offset           0 length                 222 to matrix element file.
 Write SHELL TYPES                         from file      0 offset           0 length                 222 to matrix element file.
 Write NUMBER OF PRIMITIVES PER SHELL      from file      0 offset           0 length                 222 to matrix element file.
 Write PRIMITIVE EXPONENTS                 from file      0 offset           0 length                 397 to matrix element file.
 Write CONTRACTION COEFFICIENTS            from file      0 offset           0 length                 397 to matrix element file.
 Write P(S=P) CONTRACTION COEFFICIENTS     from file      0 offset           0 length                 397 to matrix element file.
 Write COORDINATES OF EACH SHELL           from file      0 offset           0 length                 666 to matrix element file.
 Write BONDS PER ATOM                      from file      0 offset           0 length                  28 to matrix element file.
 Write BONDED ATOMS                        from file      0 offset           0 length                  60 to matrix element file.
 Write BOND TYPES                          from file      0 offset           0 length                  60 to matrix element file.
 Write ONIOM CHARGE/MULT                   from file      0 offset           0 length                  32 to matrix element file.
 Write ONIOM ATOM LAYERS                   from file      0 offset           0 length                  28 to matrix element file.
 Write ONIOM ATOM MODIFIERS                from file      0 offset           0 length                  28 to matrix element file.
 Write ONIOM ATOM TYPES                    from file      0 offset           0 length                  28 to matrix element file.
 Write ONIOM LINK ATOMS                    from file      0 offset           0 length                  28 to matrix element file.
 Write ONIOM LINK CHARGES                  from file      0 offset           0 length                  28 to matrix element file.
 Write ONIOM LINK DISTANCES                from file      0 offset           0 length                 112 to matrix element file.
 Write SYMINF INTS                         from file      0 offset           0 length                  26 to matrix element file.
 Write ROTTR TO SO                         from file      0 offset           0 length                  12 to matrix element file.
 Write GAUSSIAN SCALARS                    from file    501 offset           0 to matrix element file.
 Write OPTIMIZATION FLAGS                  from file      0 offset           0 length                  28 to matrix element file.
 Write INTEGER ISO                         from file      0 offset           0 length                  28 to matrix element file.
 Write INTEGER SPIN                        from file      0 offset           0 length                  28 to matrix element file.
 Write REAL ZEFFECTIVE                     from file      0 offset           0 length                  28 to matrix element file.
 Write REAL QUADRUPOLEMOMENT               from file      0 offset           0 length                  28 to matrix element file.
 Write REAL GFACTOR                        from file      0 offset           0 length                  28 to matrix element file.
 Write REAL ZNUCLEAR                       from file      0 offset           0 length                  28 to matrix element file.
 Write MULLIKEN CHARGES                    from file      0 offset           0 length                  28 to matrix element file.
 Write TYPE 6 CHARGES                      from file      0 offset           0 length                  28 to matrix element file.
 Write TYPE 7 CHARGES                      from file      0 offset           0 length                  28 to matrix element file.
 Write NUCLEAR GRADIENT                    from file  10584 offset           0 length                  84 to matrix element file.
 Array NUCLEAR FORCE CONSTANTS              on  file  10585 does not exist.
 Write ELECTRIC DIPOLE MOMENT              from file      0 offset           0 length                   3 to matrix element file.
 Write NON-ADIABATIC COUPLING              from file  10810 offset           0 length                  84 to matrix element file.
 Write FINITE EM FIELD                     from file  10521 offset           0 length                  35 to matrix element file.
 Write OVERLAP                             from file  10514 offset           0 length              157080 to matrix element file.
 Write CORE HAMILTONIAN ALPHA              from file  10515 offset           0 length              157080 to matrix element file.
 Write CORE HAMILTONIAN BETA               from file  10515 offset      157080 length              157080 to matrix element file.
 Write KINETIC ENERGY                      from file  10516 offset           0 length              157080 to matrix element file.
 Write ORTHOGONAL BASIS                    from file  10685 offset           0 length              313600 to matrix element file.
 Write DIPOLE INTEGRALS                    from file  10518 offset           0 length              471240 to matrix element file.
 Array DIP VEL INTEGRALS                    on  file  10572 does not exist.
 Array R X DEL INTEGRALS                    on  file  10572 does not exist.
 Write ALPHA ORBITAL ENERGIES              from file      0 offset           0 length                 560 to matrix element file.
 Write ALPHA MO COEFFICIENTS               from file  10524 offset           0 length              313600 to matrix element file.
 Write ALPHA DENSITY MATRIX                from file      0 offset           0 length              157080 to matrix element file.
 Write ALPHA FOCK MATRIX                   from file  10536 offset           0 length              157080 to matrix element file.
 Write ENERGY-WEIGHTED DENSITY             from file  10571 offset           0 length              157080 to matrix element file.
 Write ALPHA SCF DENSITY MATRIX            from file      0 offset           0 length              157080 to matrix element file.
 Write INTEGER PARAMETERS                  from file      0 offset           0 length                   2 to matrix element file.
 No 2e integrals to process.
 Perform NBO analysis...

 *********************************** NBO 7.0 ***********************************
             N A T U R A L   A T O M I C   O R B I T A L   A N D
          N A T U R A L   B O N D   O R B I T A L   A N A L Y S I S
 **************************** Robert Paton (I101709) ***************************
  (c) Copyright 1996-2019 Board of Regents of the University of Wisconsin System
      on behalf of the Theoretical Chemistry Institute.  All rights reserved.

          Cite this program [NBO 7.0.5 (4-Jun-2019)] as:

          NBO 7.0.  E. D. Glendening, J. K. Badenhoop, A. E. Reed,
          J. E. Carpenter, J. A. Bohmann, C. M. Morales, P. Karafiloglou,
          C. R. Landis, and F. Weinhold, Theoretical Chemistry Institute,
          University of Wisconsin, Madison, WI (2018)

       /AONBO  / : Checkpoint the AO to NBO transformation
                   NBOs sorted by occupancy
       /BNDIDX / : Print bond indices based on the NAO density matrix

 Filename set to /home/rpaton/opt/tzvp/popn/Gau-2187408

 Job title:  arbr42_wb97xd_popncreated by GaussianPrep


 NATURAL POPULATIONS:  Natural atomic orbital occupancies

  NAO Atom No lang   Type(AO)    Occupancy      Energy
 -------------------------------------------------------
   1   Br  1  s      Cor( 1s)     2.00000    -468.35802
   2   Br  1  s      Cor( 2s)     2.00000     -71.73833
   3   Br  1  s      Cor( 3s)     1.99999     -14.51446
   4   Br  1  s      Val( 4s)     1.85993      -0.76241
   5   Br  1  s      Ryd( 5s)     0.00111       1.24554
   6   Br  1  s      Ryd( 6s)     0.00000       7.50743
   7   Br  1  px     Cor( 2p)     2.00000     -41.28733
   8   Br  1  px     Cor( 3p)     2.00000     -21.80837
   9   Br  1  px     Val( 4p)     1.35536      -0.27425
  10   Br  1  px     Ryd( 5p)     0.00195       0.60083
  11   Br  1  px     Ryd( 6p)     0.00003       1.67966
  12   Br  1  py     Cor( 2p)     2.00000     -41.28344
  13   Br  1  py     Cor( 3p)     2.00000     -21.80429
  14   Br  1  py     Val( 4p)     1.78180      -0.33640
  15   Br  1  py     Ryd( 5p)     0.00118       0.58765
  16   Br  1  py     Ryd( 6p)     0.00001       1.62282
  17   Br  1  pz     Cor( 2p)     2.00000     -41.28185
  18   Br  1  pz     Cor( 3p)     2.00000     -21.80260
  19   Br  1  pz     Val( 4p)     1.94522      -0.36169
  20   Br  1  pz     Ryd( 5p)     0.00133       0.54788
  21   Br  1  pz     Ryd( 6p)     0.00003       1.55314
  22   Br  1  dxy    Cor( 3d)     1.99999      -2.73601
  23   Br  1  dxy    Ryd( 5d)     0.00162       1.59753
  24   Br  1  dxy    Ryd( 4d)     0.00003       1.45904
  25   Br  1  dxy    Ryd( 6d)     0.00001       4.54133
  26   Br  1  dxz    Cor( 3d)     1.99999      -2.73381
  27   Br  1  dxz    Ryd( 4d)     0.00179       0.85408
  28   Br  1  dxz    Ryd( 5d)     0.00002       1.34682
  29   Br  1  dxz    Ryd( 6d)     0.00000       4.18653
  30   Br  1  dyz    Cor( 3d)     2.00000      -2.72890
  31   Br  1  dyz    Ryd( 4d)     0.00060       0.74284
  32   Br  1  dyz    Ryd( 5d)     0.00003       1.27421
  33   Br  1  dyz    Ryd( 6d)     0.00000       4.11140
  34   Br  1  dx2y2  Cor( 3d)     1.99999      -2.73591
  35   Br  1  dx2y2  Ryd( 4d)     0.00111       1.31541
  36   Br  1  dx2y2  Ryd( 5d)     0.00003       1.50768
  37   Br  1  dx2y2  Ryd( 6d)     0.00000       4.44797
  38   Br  1  dz2    Cor( 3d)     1.99999      -2.72995
  39   Br  1  dz2    Ryd( 4d)     0.00058       1.09788
  40   Br  1  dz2    Ryd( 5d)     0.00003       1.34703
  41   Br  1  dz2    Ryd( 6d)     0.00000       4.32776
  42   Br  1  f(0)   Ryd( 4f)     0.00008       1.80166
  43   Br  1  f(c1)  Ryd( 4f)     0.00005       2.01892
  44   Br  1  f(s1)  Ryd( 4f)     0.00003       1.77682
  45   Br  1  f(c2)  Ryd( 4f)     0.00003       1.80565
  46   Br  1  f(s2)  Ryd( 4f)     0.00008       1.88392
  47   Br  1  f(c3)  Ryd( 4f)     0.00011       2.27574
  48   Br  1  f(s3)  Ryd( 4f)     0.00012       2.18913

  49    C  2  s      Cor( 1s)     1.99999     -10.34163
  50    C  2  s      Val( 2s)     0.97263      -0.18224
  51    C  2  s      Ryd( 3s)     0.00097       2.30215
  52    C  2  s      Ryd( 4s)     0.00036       3.02471
  53    C  2  s      Ryd( 5s)     0.00001      16.30806
  54    C  2  px     Val( 2p)     0.97366      -0.08699
  55    C  2  px     Ryd( 3p)     0.00494       1.35963
  56    C  2  px     Ryd( 4p)     0.00085       2.30733
  57    C  2  py     Val( 2p)     1.03688      -0.05681
  58    C  2  py     Ryd( 3p)     0.00470       1.24078
  59    C  2  py     Ryd( 4p)     0.00036       2.02375
  60    C  2  pz     Val( 2p)     1.07694      -0.14627
  61    C  2  pz     Ryd( 3p)     0.00149       0.92930
  62    C  2  pz     Ryd( 4p)     0.00046       1.26119
  63    C  2  dxy    Ryd( 3d)     0.00191       2.30792
  64    C  2  dxy    Ryd( 4d)     0.00040       4.09625
  65    C  2  dxz    Ryd( 3d)     0.00120       1.46050
  66    C  2  dxz    Ryd( 4d)     0.00018       3.29761
  67    C  2  dyz    Ryd( 3d)     0.00058       1.61355
  68    C  2  dyz    Ryd( 4d)     0.00016       3.36865
  69    C  2  dx2y2  Ryd( 3d)     0.00168       2.33138
  70    C  2  dx2y2  Ryd( 4d)     0.00032       4.05748
  71    C  2  dz2    Ryd( 3d)     0.00197       2.11878
  72    C  2  dz2    Ryd( 4d)     0.00011       3.62284
  73    C  2  f(0)   Ryd( 4f)     0.00066       3.24799
  74    C  2  f(c1)  Ryd( 4f)     0.00053       3.28293
  75    C  2  f(s1)  Ryd( 4f)     0.00049       3.40131
  76    C  2  f(c2)  Ryd( 4f)     0.00005       3.35467
  77    C  2  f(s2)  Ryd( 4f)     0.00006       3.30248
  78    C  2  f(c3)  Ryd( 4f)     0.00015       3.78365
  79    C  2  f(s3)  Ryd( 4f)     0.00078       3.86553

  80    C  3  s      Cor( 1s)     1.99999     -10.29780
  81    C  3  s      Val( 2s)     0.97541      -0.13272
  82    C  3  s      Ryd( 3s)     0.00089       1.52199
  83    C  3  s      Ryd( 4s)     0.00007       2.52206
  84    C  3  s      Ryd( 5s)     0.00000      21.27235
  85    C  3  px     Val( 2p)     1.14893      -0.05898
  86    C  3  px     Ryd( 3p)     0.00485       1.22241
  87    C  3  px     Ryd( 4p)     0.00023       2.04029
  88    C  3  py     Val( 2p)     1.08669      -0.04984
  89    C  3  py     Ryd( 3p)     0.00298       1.04521
  90    C  3  py     Ryd( 4p)     0.00016       1.90044
  91    C  3  pz     Val( 2p)     0.99648      -0.11647
  92    C  3  pz     Ryd( 3p)     0.00140       0.74483
  93    C  3  pz     Ryd( 4p)     0.00018       1.32686
  94    C  3  dxy    Ryd( 3d)     0.00109       2.46972
  95    C  3  dxy    Ryd( 4d)     0.00031       3.82372
  96    C  3  dxz    Ryd( 3d)     0.00042       1.69056
  97    C  3  dxz    Ryd( 4d)     0.00008       2.90514
  98    C  3  dyz    Ryd( 3d)     0.00033       1.77260
  99    C  3  dyz    Ryd( 4d)     0.00010       3.00564
 100    C  3  dx2y2  Ryd( 3d)     0.00187       2.44489
 101    C  3  dx2y2  Ryd( 4d)     0.00023       3.75112
 102    C  3  dz2    Ryd( 3d)     0.00113       2.06342
 103    C  3  dz2    Ryd( 4d)     0.00002       3.39864
 104    C  3  f(0)   Ryd( 4f)     0.00047       3.27408
 105    C  3  f(c1)  Ryd( 4f)     0.00045       3.42843
 106    C  3  f(s1)  Ryd( 4f)     0.00042       3.41817
 107    C  3  f(c2)  Ryd( 4f)     0.00005       3.35332
 108    C  3  f(s2)  Ryd( 4f)     0.00006       3.34685
 109    C  3  f(c3)  Ryd( 4f)     0.00012       3.73220
 110    C  3  f(s3)  Ryd( 4f)     0.00062       4.03919

 111    C  4  s      Cor( 1s)     1.99999     -10.29356
 112    C  4  s      Val( 2s)     0.96539      -0.12403
 113    C  4  s      Ryd( 3s)     0.00076       1.94823
 114    C  4  s      Ryd( 4s)     0.00004       2.86372
 115    C  4  s      Ryd( 5s)     0.00000      18.12485
 116    C  4  px     Val( 2p)     1.04220      -0.01714
 117    C  4  px     Ryd( 3p)     0.00270       1.13812
 118    C  4  px     Ryd( 4p)     0.00011       1.92269
 119    C  4  py     Val( 2p)     1.16412      -0.06388
 120    C  4  py     Ryd( 3p)     0.00426       1.28903
 121    C  4  py     Ryd( 4p)     0.00010       2.05258
 122    C  4  pz     Val( 2p)     1.00261      -0.11500
 123    C  4  pz     Ryd( 3p)     0.00113       0.78285
 124    C  4  pz     Ryd( 4p)     0.00019       1.31939
 125    C  4  dxy    Ryd( 3d)     0.00162       2.70511
 126    C  4  dxy    Ryd( 4d)     0.00018       3.74413
 127    C  4  dxz    Ryd( 3d)     0.00028       1.98737
 128    C  4  dxz    Ryd( 4d)     0.00011       3.01595
 129    C  4  dyz    Ryd( 3d)     0.00039       1.77731
 130    C  4  dyz    Ryd( 4d)     0.00005       2.83915
 131    C  4  dx2y2  Ryd( 3d)     0.00062       2.68322
 132    C  4  dx2y2  Ryd( 4d)     0.00051       3.98119
 133    C  4  dz2    Ryd( 3d)     0.00099       2.24737
 134    C  4  dz2    Ryd( 4d)     0.00002       3.40425
 135    C  4  f(0)   Ryd( 4f)     0.00043       3.29989
 136    C  4  f(c1)  Ryd( 4f)     0.00034       3.52773
 137    C  4  f(s1)  Ryd( 4f)     0.00043       3.38319
 138    C  4  f(c2)  Ryd( 4f)     0.00007       3.39703
 139    C  4  f(s2)  Ryd( 4f)     0.00002       3.38686
 140    C  4  f(c3)  Ryd( 4f)     0.00013       3.83664
 141    C  4  f(s3)  Ryd( 4f)     0.00055       4.09020

 142    C  5  s      Cor( 1s)     1.99999     -10.30287
 143    C  5  s      Val( 2s)     0.91298      -0.09559
 144    C  5  s      Ryd( 4s)     0.00078       1.94528
 145    C  5  s      Ryd( 3s)     0.00011       1.66892
 146    C  5  s      Ryd( 5s)     0.00000      19.89685
 147    C  5  px     Val( 2p)     1.04223      -0.01991
 148    C  5  px     Ryd( 3p)     0.00386       1.37035
 149    C  5  px     Ryd( 4p)     0.00016       2.24016
 150    C  5  py     Val( 2p)     1.05139      -0.01137
 151    C  5  py     Ryd( 3p)     0.00290       1.21460
 152    C  5  py     Ryd( 4p)     0.00013       2.18144
 153    C  5  pz     Val( 2p)     0.97766      -0.10295
 154    C  5  pz     Ryd( 3p)     0.00155       0.76879
 155    C  5  pz     Ryd( 4p)     0.00008       1.49890
 156    C  5  dxy    Ryd( 3d)     0.00064       3.27110
 157    C  5  dxy    Ryd( 4d)     0.00055       4.23162
 158    C  5  dxz    Ryd( 3d)     0.00029       2.12559
 159    C  5  dxz    Ryd( 4d)     0.00022       3.07257
 160    C  5  dyz    Ryd( 3d)     0.00041       2.22483
 161    C  5  dyz    Ryd( 4d)     0.00010       3.14422
 162    C  5  dx2y2  Ryd( 3d)     0.00101       3.12737
 163    C  5  dx2y2  Ryd( 4d)     0.00055       4.22882
 164    C  5  dz2    Ryd( 3d)     0.00088       3.46071
 165    C  5  dz2    Ryd( 4d)     0.00007       3.56305
 166    C  5  f(0)   Ryd( 4f)     0.00044       3.37778
 167    C  5  f(c1)  Ryd( 4f)     0.00045       3.40813
 168    C  5  f(s1)  Ryd( 4f)     0.00040       3.46317
 169    C  5  f(c2)  Ryd( 4f)     0.00005       3.41460
 170    C  5  f(s2)  Ryd( 4f)     0.00005       3.46184
 171    C  5  f(c3)  Ryd( 4f)     0.00011       3.99584
 172    C  5  f(s3)  Ryd( 4f)     0.00059       4.00589

 173    C  6  s      Cor( 1s)     1.99999     -10.29884
 174    C  6  s      Val( 2s)     0.92522      -0.09937
 175    C  6  s      Ryd( 3s)     0.00116       1.71079
 176    C  6  s      Ryd( 4s)     0.00016       1.82170
 177    C  6  s      Ryd( 5s)     0.00000      20.28266
 178    C  6  px     Val( 2p)     1.04210      -0.02530
 179    C  6  px     Ryd( 3p)     0.00450       1.33186
 180    C  6  px     Ryd( 4p)     0.00033       2.37609
 181    C  6  py     Val( 2p)     1.06040      -0.01978
 182    C  6  py     Ryd( 3p)     0.00402       1.22274
 183    C  6  py     Ryd( 4p)     0.00026       2.32632
 184    C  6  pz     Val( 2p)     1.00924      -0.10821
 185    C  6  pz     Ryd( 3p)     0.00246       0.79829
 186    C  6  pz     Ryd( 4p)     0.00013       1.55402
 187    C  6  dxy    Ryd( 3d)     0.00095       3.30007
 188    C  6  dxy    Ryd( 4d)     0.00058       4.26911
 189    C  6  dxz    Ryd( 3d)     0.00035       1.88283
 190    C  6  dxz    Ryd( 4d)     0.00018       3.37376
 191    C  6  dyz    Ryd( 3d)     0.00045       1.95880
 192    C  6  dyz    Ryd( 4d)     0.00016       3.42627
 193    C  6  dx2y2  Ryd( 3d)     0.00111       3.16864
 194    C  6  dx2y2  Ryd( 4d)     0.00049       4.35017
 195    C  6  dz2    Ryd( 3d)     0.00111       3.41032
 196    C  6  dz2    Ryd( 4d)     0.00003       3.83014
 197    C  6  f(0)   Ryd( 4f)     0.00054       3.37370
 198    C  6  f(c1)  Ryd( 4f)     0.00052       3.42273
 199    C  6  f(s1)  Ryd( 4f)     0.00050       3.44733
 200    C  6  f(c2)  Ryd( 4f)     0.00004       3.41147
 201    C  6  f(s2)  Ryd( 4f)     0.00007       3.45804
 202    C  6  f(c3)  Ryd( 4f)     0.00011       3.95780
 203    C  6  f(s3)  Ryd( 4f)     0.00070       4.01508

 204    C  7  s      Cor( 1s)     1.99999     -10.29570
 205    C  7  s      Val( 2s)     0.96778      -0.12078
 206    C  7  s      Ryd( 3s)     0.00100       1.75702
 207    C  7  s      Ryd( 4s)     0.00016       2.08426
 208    C  7  s      Ryd( 5s)     0.00000      20.88737
 209    C  7  px     Val( 2p)     1.05343      -0.02905
 210    C  7  px     Ryd( 3p)     0.00366       1.07835
 211    C  7  px     Ryd( 4p)     0.00026       2.12023
 212    C  7  py     Val( 2p)     1.18629      -0.07464
 213    C  7  py     Ryd( 3p)     0.00474       1.20066
 214    C  7  py     Ryd( 4p)     0.00020       2.09237
 215    C  7  pz     Val( 2p)     0.98692      -0.11211
 216    C  7  pz     Ryd( 3p)     0.00139       0.70854
 217    C  7  pz     Ryd( 4p)     0.00015       1.46939
 218    C  7  dxy    Ryd( 3d)     0.00242       2.38189
 219    C  7  dxy    Ryd( 4d)     0.00011       3.92837
 220    C  7  dxz    Ryd( 3d)     0.00022       1.76640
 221    C  7  dxz    Ryd( 4d)     0.00018       3.22282
 222    C  7  dyz    Ryd( 3d)     0.00056       1.59982
 223    C  7  dyz    Ryd( 4d)     0.00005       3.05190
 224    C  7  dx2y2  Ryd( 3d)     0.00076       2.51416
 225    C  7  dx2y2  Ryd( 4d)     0.00058       4.01144
 226    C  7  dz2    Ryd( 3d)     0.00129       2.05601
 227    C  7  dz2    Ryd( 4d)     0.00002       3.56639
 228    C  7  f(0)   Ryd( 4f)     0.00049       3.28676
 229    C  7  f(c1)  Ryd( 4f)     0.00039       3.48835
 230    C  7  f(s1)  Ryd( 4f)     0.00049       3.35974
 231    C  7  f(c2)  Ryd( 4f)     0.00009       3.39093
 232    C  7  f(s2)  Ryd( 4f)     0.00003       3.36070
 233    C  7  f(c3)  Ryd( 4f)     0.00017       3.79704
 234    C  7  f(s3)  Ryd( 4f)     0.00065       4.05402

 235    C  8  s      Cor( 1s)     1.99999     -10.39595
 236    C  8  s      Val( 2s)     0.89215      -0.16617
 237    C  8  s      Ryd( 4s)     0.00167       2.14403
 238    C  8  s      Ryd( 3s)     0.00023       2.14288
 239    C  8  s      Ryd( 5s)     0.00000      20.33996
 240    C  8  px     Val( 2p)     1.01327      -0.08327
 241    C  8  px     Ryd( 3p)     0.00331       1.41929
 242    C  8  px     Ryd( 4p)     0.00052       1.62679
 243    C  8  py     Val( 2p)     0.84808      -0.06377
 244    C  8  py     Ryd( 3p)     0.00422       1.51738
 245    C  8  py     Ryd( 4p)     0.00096       1.66845
 246    C  8  pz     Val( 2p)     0.71096      -0.03375
 247    C  8  pz     Ryd( 4p)     0.00600       1.32876
 248    C  8  pz     Ryd( 3p)     0.00045       1.27341
 249    C  8  dxy    Ryd( 4d)     0.00153       3.59630
 250    C  8  dxy    Ryd( 3d)     0.00021       3.32270
 251    C  8  dxz    Ryd( 3d)     0.00114       2.77452
 252    C  8  dxz    Ryd( 4d)     0.00030       2.97433
 253    C  8  dyz    Ryd( 4d)     0.00089       3.48275
 254    C  8  dyz    Ryd( 3d)     0.00043       3.18782
 255    C  8  dx2y2  Ryd( 3d)     0.00070       3.07227
 256    C  8  dx2y2  Ryd( 4d)     0.00067       3.47258
 257    C  8  dz2    Ryd( 4d)     0.00125       3.46294
 258    C  8  dz2    Ryd( 3d)     0.00035       3.10910
 259    C  8  f(0)   Ryd( 4f)     0.00010       3.88318
 260    C  8  f(c1)  Ryd( 4f)     0.00004       3.76976
 261    C  8  f(s1)  Ryd( 4f)     0.00013       4.09012
 262    C  8  f(c2)  Ryd( 4f)     0.00002       3.81173
 263    C  8  f(s2)  Ryd( 4f)     0.00011       3.88497
 264    C  8  f(c3)  Ryd( 4f)     0.00005       3.98975
 265    C  8  f(s3)  Ryd( 4f)     0.00022       3.95570

 266    C  9  s      Cor( 1s)     1.99999     -10.28186
 267    C  9  s      Val( 2s)     1.05882      -0.20924
 268    C  9  s      Ryd( 3s)     0.00073       1.95184
 269    C  9  s      Ryd( 4s)     0.00004       2.37930
 270    C  9  s      Ryd( 5s)     0.00000      20.75839
 271    C  9  px     Val( 2p)     1.12217      -0.10012
 272    C  9  px     Ryd( 3p)     0.00126       1.09788
 273    C  9  px     Ryd( 4p)     0.00033       1.69491
 274    C  9  py     Val( 2p)     1.07852      -0.08343
 275    C  9  py     Ryd( 3p)     0.00191       1.15736
 276    C  9  py     Ryd( 4p)     0.00005       1.58996
 277    C  9  pz     Val( 2p)     1.15026      -0.10294
 278    C  9  pz     Ryd( 3p)     0.00143       1.04476
 279    C  9  pz     Ryd( 4p)     0.00013       1.52918
 280    C  9  dxy    Ryd( 3d)     0.00157       2.11210
 281    C  9  dxy    Ryd( 4d)     0.00020       3.93018
 282    C  9  dxz    Ryd( 3d)     0.00108       1.72551
 283    C  9  dxz    Ryd( 4d)     0.00015       3.34678
 284    C  9  dyz    Ryd( 3d)     0.00140       1.93874
 285    C  9  dyz    Ryd( 4d)     0.00009       3.69576
 286    C  9  dx2y2  Ryd( 3d)     0.00059       1.86792
 287    C  9  dx2y2  Ryd( 4d)     0.00022       3.58376
 288    C  9  dz2    Ryd( 3d)     0.00122       1.87933
 289    C  9  dz2    Ryd( 4d)     0.00019       3.74915
 290    C  9  f(0)   Ryd( 4f)     0.00028       3.67337
 291    C  9  f(c1)  Ryd( 4f)     0.00005       3.54887
 292    C  9  f(s1)  Ryd( 4f)     0.00021       3.69097
 293    C  9  f(c2)  Ryd( 4f)     0.00005       3.48064
 294    C  9  f(s2)  Ryd( 4f)     0.00009       3.53589
 295    C  9  f(c3)  Ryd( 4f)     0.00004       3.64063
 296    C  9  f(s3)  Ryd( 4f)     0.00036       3.76404

 297    C 10  s      Cor( 1s)     1.99999     -10.28370
 298    C 10  s      Val( 2s)     1.04406      -0.20232
 299    C 10  s      Ryd( 3s)     0.00062       1.65274
 300    C 10  s      Ryd( 4s)     0.00003       2.59757
 301    C 10  s      Ryd( 5s)     0.00000      20.68456
 302    C 10  px     Val( 2p)     1.11340      -0.09228
 303    C 10  px     Ryd( 3p)     0.00144       1.01722
 304    C 10  px     Ryd( 4p)     0.00026       1.70373
 305    C 10  py     Val( 2p)     1.05805      -0.07428
 306    C 10  py     Ryd( 3p)     0.00135       1.03464
 307    C 10  py     Ryd( 4p)     0.00009       1.65096
 308    C 10  pz     Val( 2p)     1.16624      -0.10378
 309    C 10  pz     Ryd( 3p)     0.00111       0.97502
 310    C 10  pz     Ryd( 4p)     0.00006       1.56471
 311    C 10  dxy    Ryd( 3d)     0.00110       2.25329
 312    C 10  dxy    Ryd( 4d)     0.00016       3.68097
 313    C 10  dxz    Ryd( 3d)     0.00037       1.82728
 314    C 10  dxz    Ryd( 4d)     0.00026       3.09755
 315    C 10  dyz    Ryd( 3d)     0.00115       2.14249
 316    C 10  dyz    Ryd( 4d)     0.00007       3.45800
 317    C 10  dx2y2  Ryd( 3d)     0.00049       2.07686
 318    C 10  dx2y2  Ryd( 4d)     0.00024       3.34590
 319    C 10  dz2    Ryd( 3d)     0.00121       2.09116
 320    C 10  dz2    Ryd( 4d)     0.00011       3.48413
 321    C 10  f(0)   Ryd( 4f)     0.00025       3.70599
 322    C 10  f(c1)  Ryd( 4f)     0.00003       3.46009
 323    C 10  f(s1)  Ryd( 4f)     0.00018       3.65885
 324    C 10  f(c2)  Ryd( 4f)     0.00004       3.46219
 325    C 10  f(s2)  Ryd( 4f)     0.00003       3.59159
 326    C 10  f(c3)  Ryd( 4f)     0.00002       3.65395
 327    C 10  f(s3)  Ryd( 4f)     0.00031       3.75149

 328    C 11  s      Cor( 1s)     1.99999     -10.29056
 329    C 11  s      Val( 2s)     1.04249      -0.20156
 330    C 11  s      Ryd( 3s)     0.00086       1.76493
 331    C 11  s      Ryd( 4s)     0.00004       2.63270
 332    C 11  s      Ryd( 5s)     0.00000      20.47786
 333    C 11  px     Val( 2p)     1.02412      -0.06513
 334    C 11  px     Ryd( 3p)     0.00115       0.99098
 335    C 11  px     Ryd( 4p)     0.00017       1.63956
 336    C 11  py     Val( 2p)     1.13498      -0.10177
 337    C 11  py     Ryd( 3p)     0.00186       0.86427
 338    C 11  py     Ryd( 4p)     0.00013       1.57905
 339    C 11  pz     Val( 2p)     1.20478      -0.12036
 340    C 11  pz     Ryd( 3p)     0.00134       0.99801
 341    C 11  pz     Ryd( 4p)     0.00014       1.59301
 342    C 11  dxy    Ryd( 3d)     0.00122       2.56928
 343    C 11  dxy    Ryd( 4d)     0.00011       3.81856
 344    C 11  dxz    Ryd( 3d)     0.00025       1.77704
 345    C 11  dxz    Ryd( 4d)     0.00011       3.01293
 346    C 11  dyz    Ryd( 3d)     0.00118       2.01490
 347    C 11  dyz    Ryd( 4d)     0.00012       3.46228
 348    C 11  dx2y2  Ryd( 3d)     0.00028       2.13266
 349    C 11  dx2y2  Ryd( 4d)     0.00038       3.51475
 350    C 11  dz2    Ryd( 3d)     0.00142       2.28959
 351    C 11  dz2    Ryd( 4d)     0.00003       3.45826
 352    C 11  f(0)   Ryd( 4f)     0.00007       3.49367
 353    C 11  f(c1)  Ryd( 4f)     0.00003       3.45367
 354    C 11  f(s1)  Ryd( 4f)     0.00036       3.84434
 355    C 11  f(c2)  Ryd( 4f)     0.00002       3.64783
 356    C 11  f(s2)  Ryd( 4f)     0.00002       3.50074
 357    C 11  f(c3)  Ryd( 4f)     0.00003       3.84316
 358    C 11  f(s3)  Ryd( 4f)     0.00032       3.71827

 359    O 12  s      Cor( 1s)     1.99999     -19.26525
 360    O 12  s      Val( 2s)     1.61763      -0.76710
 361    O 12  s      Ryd( 3s)     0.00057       1.85744
 362    O 12  s      Ryd( 4s)     0.00007       7.26346
 363    O 12  s      Ryd( 5s)     0.00000      39.85185
 364    O 12  px     Val( 2p)     1.87199      -0.37949
 365    O 12  px     Ryd( 3p)     0.00276       0.90381
 366    O 12  px     Ryd( 4p)     0.00009       3.15584
 367    O 12  py     Val( 2p)     1.29557      -0.27688
 368    O 12  py     Ryd( 3p)     0.00135       1.06355
 369    O 12  py     Ryd( 4p)     0.00005       3.93560
 370    O 12  pz     Val( 2p)     1.70121      -0.36578
 371    O 12  pz     Ryd( 3p)     0.00155       0.80653
 372    O 12  pz     Ryd( 4p)     0.00032       3.48377
 373    O 12  dxy    Ryd( 3d)     0.00095       2.23015
 374    O 12  dxy    Ryd( 4d)     0.00006       6.68363
 375    O 12  dxz    Ryd( 3d)     0.00326       2.01482
 376    O 12  dxz    Ryd( 4d)     0.00002       6.61989
 377    O 12  dyz    Ryd( 3d)     0.00510       2.42957
 378    O 12  dyz    Ryd( 4d)     0.00005       6.67865
 379    O 12  dx2y2  Ryd( 3d)     0.00156       2.26385
 380    O 12  dx2y2  Ryd( 4d)     0.00004       6.70382
 381    O 12  dz2    Ryd( 3d)     0.00277       2.19573
 382    O 12  dz2    Ryd( 4d)     0.00004       6.69319
 383    O 12  f(0)   Ryd( 4f)     0.00003       5.69346
 384    O 12  f(c1)  Ryd( 4f)     0.00002       5.49257
 385    O 12  f(s1)  Ryd( 4f)     0.00001       6.05205
[...]
  215.  0.00017     2.34529  300.   RY (13) C  8
  216.  0.00017     2.13976  507.   RY ( 2) H 18
  217.  0.00017     1.59229  270.   RY ( 9) C  7
  218.  0.00016     2.49640  164.   RY ( 7) C  3
  219.  0.00016     3.12489  218.   RY ( 9) C  5
  220.  0.00016     2.91329  245.   RY (10) C  6
  221.  0.00016     2.59272  397.   RY ( 6) O 12
  222.  0.00015     1.92495  371.   RY ( 6) C 11
  223.  0.00015     2.24475  320.   RY ( 7) C  9
  224.  0.00015     2.73062  475.   RY ( 6) O 15
  225.  0.00014     2.30480  450.   RY ( 7) C 14
  226.  0.00013     1.70428  165.   RY ( 8) C  3
  227.  0.00013     2.24269  508.   RY ( 3) H 18
  228.  0.00012     2.21283  502.   RY ( 2) H 17
  229.  0.00012     3.23395  372.   RY ( 7) C 11
  230.  0.00012     2.49501  532.   RY ( 2) H 23
  231.  0.00012     2.79925  345.   RY ( 6) C 10
  232.  0.00012     2.47355  537.   RY ( 2) H 24
  233.  0.00012     2.26746  542.   RY ( 2) H 25
  234.  0.00012     2.26394  552.   RY ( 2) H 27
  235.  0.00011     2.21188  497.   RY ( 2) H 16
  236.  0.00011     2.63644  246.   RY (11) C  6
  237.  0.00011     3.00185  398.   RY ( 7) O 12
  238.  0.00011     2.61542  424.   RY ( 7) C 13
  239.  0.00011     2.32998  547.   RY ( 2) H 26
  240.  0.00011     2.32663  557.   RY ( 2) H 28
  241.  0.00011     2.76165  301.   RY (14) C  8
  242.  0.00011     3.13506  476.   RY ( 7) O 15
  243.  0.00011     0.53141  106.   RY ( 5)Br  1
  244.  0.00011     2.48797  247.   RY (12) C  6
  245.  0.00011     2.49168  522.   RY ( 2) H 21
  246.  0.00010     2.67571  321.   RY ( 8) C  9
  247.  0.00010     2.10898  498.   RY ( 3) H 16
  248.  0.00010     2.45422  190.   RY ( 7) C  4
  249.  0.00010     1.99646  503.   RY ( 3) H 17
  250.  0.00010     2.47316  527.   RY ( 2) H 22
  251.  0.00009     3.70440  346.   RY ( 7) C 10
  252.  0.00009     2.51414  512.   RY ( 2) H 19
  253.  0.00009     2.40244  219.   RY (10) C  5
  254.  0.00008     2.54875  509.   RY ( 4) H 18
  255.  0.00008     2.61389  322.   RY ( 9) C  9
  256.  0.00008     2.28361  141.   RY (10) C  2
  257.  0.00008     2.90040  166.   RY ( 9) C  3
  258.  0.00008     2.65586  248.   RY (13) C  6
  259.  0.00008     2.80762  271.   RY (10) C  7
  260.  0.00008     2.48590  517.   RY ( 2) H 20
  261.  0.00008     2.98758  425.   RY ( 8) C 13
  262.  0.00008     2.67194  373.   RY ( 8) C 11
  263.  0.00007     5.13267  399.   RY ( 8) O 12
  264.  0.00007     2.50968  523.   RY ( 3) H 21
  265.  0.00007     3.52784  451.   RY ( 8) C 14
  266.  0.00007     2.55005  499.   RY ( 4) H 16
  267.  0.00007     2.45432  533.   RY ( 3) H 23
  268.  0.00007     2.41410  538.   RY ( 3) H 24
  269.  0.00007     2.82919  220.   RY (11) C  5
  270.  0.00007     2.42133  302.   RY (15) C  8
  271.  0.00007     2.39896  452.   RY ( 9) C 14
  272.  0.00006     4.71618  477.   RY ( 8) O 15
  273.  0.00006     2.29585  553.   RY ( 3) H 27
  274.  0.00006     3.41179  249.   RY (14) C  6
  275.  0.00006     2.01533  323.   RY (10) C  9
  276.  0.00006     2.34009  558.   RY ( 3) H 28
  277.  0.00006     2.42489  513.   RY ( 3) H 19
  278.  0.00006     2.05250  191.   RY ( 8) C  4
  279.  0.00006     2.51251  518.   RY ( 3) H 20
  280.  0.00006     2.32013  543.   RY ( 3) H 25
  281.  0.00006     2.09003  374.   RY ( 9) C 11
  282.  0.00006     2.43826  426.   RY ( 9) C 13
  283.  0.00005     2.73105  167.   RY (10) C  3
  284.  0.00005     4.57458  400.   RY ( 9) O 12
  285.  0.00005     2.60092  504.   RY ( 4) H 17
  286.  0.00005     2.75798  401.   RY (10) O 12
  287.  0.00005     4.55890  478.   RY ( 9) O 15
  288.  0.00005     1.75521  347.   RY ( 8) C 10
  289.  0.00005     2.76231  192.   RY ( 9) C  4
  290.  0.00004     2.46254  375.   RY (10) C 11
  291.  0.00004     2.48043  528.   RY ( 3) H 22
  292.  0.00004     3.22497  221.   RY (12) C  5
  293.  0.00004     2.86702  250.   RY (15) C  6
  294.  0.00004     3.34015  324.   RY (11) C  9
  295.  0.00004     3.74504  272.   RY (11) C  7
  296.  0.00004     2.24213  348.   RY ( 9) C 10
  297.  0.00004     2.75739  303.   RY (16) C  8
  298.  0.00004     2.66053  193.   RY (10) C  4
  299.  0.00003     1.25213  107.   RY ( 6)Br  1
  300.  0.00004     2.62628  376.   RY (11) C 11
  301.  0.00003     2.79571  453.   RY (10) C 14
  302.  0.00004     6.01477  479.   RY (10) O 15
  303.  0.00003     2.34390  548.   RY ( 3) H 26
  304.  0.00003     3.01164  222.   RY (13) C  5
  305.  0.00003     2.14528  273.   RY (12) C  7
  306.  0.00003     2.77851  427.   RY (10) C 13
  307.  0.00003     2.38272  514.   RY ( 4) H 19
  308.  0.00003     2.05226  325.   RY (12) C  9
  309.  0.00003     2.20431  544.   RY ( 4) H 25
  310.  0.00003     2.21774  554.   RY ( 4) H 27
  311.  0.00003     2.41567  559.   RY ( 4) H 28
  312.  0.00003     2.86074  142.   RY (11) C  2
  313.  0.00003     2.47566  349.   RY (10) C 10
  314.  0.00003     2.46319  519.   RY ( 4) H 20
  315.  0.00003     2.33522  549.   RY ( 4) H 26
  316.  0.00003     4.53992  480.   RY (11) O 15
  317.  0.00002     4.01837  304.   RY (17) C  8
  318.  0.00002     2.35848  223.   RY (14) C  5
  319.  0.00002     3.08956  251.   RY (16) C  6
  320.  0.00002     1.77790  350.   RY (11) C 10
  321.  0.00002     4.25965  402.   RY (11) O 12
  322.  0.00002     1.19550  108.   RY ( 7)Br  1
  323.  0.00002     2.60607  274.   RY (13) C  7
  324.  0.00002     1.49343  454.   RY (11) C 14
  325.  0.00002     2.50661  529.   RY ( 4) H 22
  326.  0.00002     2.54598  539.   RY ( 4) H 24
  327.  0.00002     3.62231  305.   RY (18) C  8
  328.  0.00002     3.44527  224.   RY (15) C  5
  329.  0.00002     2.56283  275.   RY (14) C  7
  330.  0.00002     2.40775  351.   RY (12) C 10
  331.  0.00002     2.01607  377.   RY (12) C 11
  332.  0.00002     2.85118  143.   RY (12) C  2
  333.  0.00002     2.26979  194.   RY (11) C  4
  334.  0.00002     2.39367  455.   RY (12) C 14
  335.  0.00002     2.81049  481.   RY (12) O 15
  336.  0.00002     2.32611  524.   RY ( 4) H 21
  337.  0.00002     2.39480  534.   RY ( 4) H 23
  338.  0.00001     2.15492  195.   RY (12) C  4
  339.  0.00001     3.70737  252.   RY (17) C  6
  340.  0.00001     2.99112  276.   RY (15) C  7
  341.  0.00001     2.91193  326.   RY (13) C  9
  342.  0.00001     2.32399  378.   RY (13) C 11
  343.  0.00001     2.07595  428.   RY (11) C 13
  344.  0.00001     3.08177  510.   RY ( 5) H 18
  345.  0.00001     2.75744  225.   RY (16) C  5
  346.  0.00001     3.07909  253.   RY (18) C  6
  347.  0.00001     3.28953  306.   RY (19) C  8
  348.  0.00001     5.50497  403.   RY (12) O 12
  349.  0.00001     1.46709  109.   RY ( 8)Br  1
  350.  0.00001     2.99852  168.   RY (11) C  3
  351.  0.00001     2.94428  196.   RY (13) C  4
  352.  0.00001     3.45492  254.   RY (19) C  6
  353.  0.00001     2.70163  560.   RY ( 5) H 28
  354.  0.00001     2.68150  327.   RY (14) C  9
  355.  0.00001     3.30363  144.   RY (13) C  2
  356.  0.00001     2.27024  169.   RY (12) C  3
  357.  0.00001     2.38850  145.   RY (14) C  2
  358.  0.00001     2.75720  226.   RY (17) C  5
  359.  0.00001     3.32397  255.   RY (20) C  6
  360.  0.00001     2.61084  277.   RY (16) C  7
  361.  0.00001     3.87035  307.   RY (20) C  8
  362.  0.00001     2.70321  328.   RY (15) C  9
  363.  0.00001     2.20773  352.   RY (13) C 10
  364.  0.00001     2.17892  379.   RY (14) C 11
  365.  0.00001     1.82960  429.   RY (12) C 13
  366.  0.00001     2.12486  456.   RY (13) C 14
  367.  0.00001     2.69821  545.   RY ( 5) H 25
  368.  0.00001     2.67354  550.   RY ( 5) H 26
  369.  0.00001     2.65826  555.   RY ( 5) H 27
  370.  0.00001     3.13292  329.   RY (16) C  9
  371.  0.00001     2.80846  353.   RY (14) C 10
  372.  0.00001     3.56642  404.   RY (13) O 12
  373.  0.00001     2.40754  515.   RY ( 5) H 19
  374.  0.00001     1.39323  110.   RY ( 9)Br  1
  375.  0.00001     0.98563  111.   RY (10)Br  1
  376.  0.00001     2.67170  146.   RY (15) C  2
  377.  0.00001     3.63626  170.   RY (13) C  3
  378.  0.00001     2.29827  197.   RY (14) C  4
  379.  0.00001     3.40568  227.   RY (18) C  5
  380.  0.00001     4.12231  256.   RY (21) C  6
  381.  0.00001     3.57655  278.   RY (17) C  7
  382.  0.00001     3.09067  380.   RY (15) C 11
  383.  0.00001     2.38531  430.   RY (13) C 13
  384.  0.00001     3.84515  431.   RY (14) C 13
  385.  0.00001     4.86527  482.   RY (13) O 15
  386.  0.00001     3.03747  500.   RY ( 5) H 16
  387.  0.00001     3.03741  505.   RY ( 5) H 17
  388.  0.00001     2.29903  520.   RY ( 5) H 20
  389.  0.00000     3.85948  112.   RY (11)Br  1
  390.  0.00000     2.09647  113.   RY (12)Br  1
  391.  0.00000     3.32164  147.   RY (16) C  2
  392.  0.00000     2.73097  114.   RY (13)Br  1
  393.  0.00000     4.18760  115.   RY (14)Br  1
  394.  0.00000     2.45275  116.   RY (15)Br  1
  395.  0.00000     2.29578  117.   RY (16)Br  1
  396.  0.00000     2.07066  118.   RY (17)Br  1
  397.  0.00000     2.11753  119.   RY (18)Br  1
  398.  0.00000     2.84409  120.   RY (19)Br  1
  399.  0.00000     1.74223  121.   RY (20)Br  1
  400.  0.00000     1.95264  122.   RY (21)Br  1
  401.  0.00000     3.87796  148.   RY (17) C  2
  402.  0.00000     2.85410  149.   RY (18) C  2
  403.  0.00000     2.82455  123.   RY (22)Br  1
  404.  0.00000     1.77203  124.   RY (23)Br  1
  405.  0.00000     3.60649  125.   RY (24)Br  1
  406.  0.00000     2.99184  126.   RY (25)Br  1
  407.  0.00000     3.65688  127.   RY (26)Br  1
  408.  0.00000     1.93090  128.   RY (27)Br  1
  409.  0.00000     2.11172  129.   RY (28)Br  1
  410.  0.00000     2.90404  130.   RY (29)Br  1
  411.  0.00000     5.04576  150.   RY (19) C  2
  412.  0.00000     5.46476  171.   RY (14) C  3
  413.  0.00000     2.86366  172.   RY (15) C  3
  414.  0.00000     2.66493  173.   RY (16) C  3
  415.  0.00000     5.05214  198.   RY (15) C  4
  416.  0.00000     3.21992  279.   RY (18) C  7
  417.  0.00001     3.68572  308.   RY (21) C  8
  418.  0.00001     2.96189  330.   RY (17) C  9
  419.  0.00000     2.99668  331.   RY (18) C  9
  420.  0.00000     2.62755  131.   RY (30)Br  1
  421.  0.00000     3.44234  151.   RY (20) C  2
  422.  0.00000    10.83559  152.   RY (21) C  2
  423.  0.00000     3.64966  153.   RY (22) C  2
  424.  0.00000     3.89719  154.   RY (23) C  2
  425.  0.00000     3.42246  155.   RY (24) C  2
  426.  0.00000     4.80629  156.   RY (25) C  2
  427.  0.00000     4.91875  157.   RY (26) C  2
  428.  0.00000     3.35989  174.   RY (17) C  3
  429.  0.00000     3.50951  175.   RY (18) C  3
  430.  0.00000     7.10524  176.   RY (19) C  3
  431.  0.00000     2.71933  177.   RY (20) C  3
  432.  0.00000     4.64049  178.   RY (21) C  3
  433.  0.00000    11.73823  179.   RY (22) C  3
  434.  0.00000     3.18449  180.   RY (23) C  3
  435.  0.00000     3.44125  181.   RY (24) C  3
  436.  0.00000     3.14822  182.   RY (25) C  3
  437.  0.00000     3.17358  183.   RY (26) C  3
  438.  0.00000     7.91597  199.   RY (16) C  4
  439.  0.00000     4.00020  200.   RY (17) C  4
  440.  0.00000     6.57930  201.   RY (18) C  4
  441.  0.00000     3.54706  202.   RY (19) C  4
  442.  0.00000     2.71570  203.   RY (20) C  4
  443.  0.00000     2.88558  228.   RY (19) C  5
  444.  0.00000     3.27010  204.   RY (21) C  4
  445.  0.00000     6.03362  205.   RY (22) C  4
  446.  0.00000     3.12677  206.   RY (23) C  4
  447.  0.00000     4.11711  207.   RY (24) C  4
  448.  0.00000     3.60424  208.   RY (25) C  4
  449.  0.00000     3.10717  209.   RY (26) C  4
  450.  0.00000     5.43912  229.   RY (20) C  5
  451.  0.00000     3.74158  230.   RY (21) C  5
  452.  0.00000     2.78116  231.   RY (22) C  5
  453.  0.00000     3.22245  257.   RY (22) C  6
  454.  0.00000     3.72880  280.   RY (19) C  7
  455.  0.00000     4.42457  232.   RY (23) C  5
  456.  0.00000    13.62676  233.   RY (24) C  5
  457.  0.00000     3.74705  234.   RY (25) C  5
  458.  0.00000     5.78939  235.   RY (26) C  5
  459.  0.00000    19.22560  258.   RY (23) C  6
  460.  0.00000     4.05740  259.   RY (24) C  6
  461.  0.00000     3.69406  260.   RY (25) C  6
  462.  0.00000     3.65451  261.   RY (26) C  6
  463.  0.00000     3.56723  281.   RY (20) C  7
  464.  0.00000     3.48236  282.   RY (21) C  7
  465.  0.00000     3.75284  309.   RY (22) C  8
  466.  0.00000     3.65769  310.   RY (23) C  8
  467.  0.00000     3.04546  332.   RY (19) C  9
  468.  0.00001     2.53558  354.   RY (15) C 10
  469.  0.00000     3.68001  355.   RY (16) C 10
  470.  0.00000     4.34047  405.   RY (14) O 12
  471.  0.00000     5.98057  283.   RY (22) C  7
  472.  0.00000     4.99260  284.   RY (23) C  7
  473.  0.00000    12.78444  285.   RY (24) C  7
  474.  0.00000     3.51820  286.   RY (25) C  7
  475.  0.00000     5.41066  287.   RY (26) C  7
  476.  0.00000     9.46217  311.   RY (24) C  8
  477.  0.00000     4.10639  312.   RY (25) C  8
  478.  0.00000    13.63871  313.   RY (26) C  8
  479.  0.00000     4.00895  333.   RY (20) C  9
  480.  0.00000     2.52484  334.   RY (21) C  9
  481.  0.00000     3.38275  335.   RY (22) C  9
  482.  0.00000     3.01716  356.   RY (17) C 10
  483.  0.00000     2.67070  381.   RY (16) C 11
  484.  0.00000     8.57101  336.   RY (23) C  9
  485.  0.00000     4.85425  337.   RY (24) C  9
  486.  0.00000     6.15098  338.   RY (25) C  9
  487.  0.00000     2.66728  357.   RY (18) C 10
  488.  0.00000     3.29751  358.   RY (19) C 10
  489.  0.00000     9.96539  339.   RY (26) C  9
  490.  0.00000     7.07059  359.   RY (20) C 10
  491.  0.00000     6.99312  360.   RY (21) C 10
  492.  0.00000     3.79048  361.   RY (22) C 10
  493.  0.00000     3.87523  362.   RY (23) C 10
  494.  0.00000     4.90570  363.   RY (24) C 10
  495.  0.00000     8.59704  364.   RY (25) C 10
  496.  0.00000     3.47654  382.   RY (17) C 11
  497.  0.00000     2.95156  383.   RY (18) C 11
  498.  0.00000     2.90448  384.   RY (19) C 11
  499.  0.00000     4.76911  406.   RY (15) O 12
  500.  0.00000     2.74228  432.   RY (15) C 13
  501.  0.00000     2.05846  457.   RY (14) C 14
  502.  0.00000     4.91927  483.   RY (14) O 15
  503.  0.00001     2.32034  530.   RY ( 5) H 22
  504.  0.00000     2.37471  535.   RY ( 5) H 23
  505.  0.00000     2.28346  540.   RY ( 5) H 24
  506.  0.00000     4.33985  365.   RY (26) C 10
  507.  0.00000     8.69348  385.   RY (20) C 11
  508.  0.00000     6.69409  386.   RY (21) C 11
  509.  0.00000     3.51923  387.   RY (22) C 11
  510.  0.00000     5.60960  388.   RY (23) C 11
  511.  0.00000     3.52978  389.   RY (24) C 11
  512.  0.00000     5.53815  407.   RY (16) O 12
  513.  0.00000     5.55865  408.   RY (17) O 12
  514.  0.00000     6.17487  390.   RY (25) C 11
  515.  0.00000     6.27085  391.   RY (26) C 11
  516.  0.00000    15.89236  409.   RY (18) O 12
  517.  0.00000     6.70571  410.   RY (19) O 12
  518.  0.00000     5.58887  411.   RY (20) O 12
  519.  0.00000    11.35929  412.   RY (21) O 12
  520.  0.00000     7.33153  413.   RY (22) O 12
  521.  0.00000     7.50231  414.   RY (23) O 12
  522.  0.00000    20.33678  415.   RY (24) O 12
  523.  0.00000     6.31418  416.   RY (25) O 12
  524.  0.00000     3.73939  433.   RY (16) C 13
  525.  0.00000     2.22668  434.   RY (17) C 13
  526.  0.00000     5.72404  458.   RY (15) C 14
  527.  0.00000     5.28945  417.   RY (26) O 12
  528.  0.00000     7.16153  435.   RY (18) C 13
  529.  0.00000     4.48732  436.   RY (19) C 13
  530.  0.00000     7.55224  437.   RY (20) C 13
  531.  0.00000     3.82869  438.   RY (21) C 13
  532.  0.00000     5.09525  439.   RY (22) C 13
  533.  0.00000     3.75488  440.   RY (23) C 13
  534.  0.00000     3.83122  441.   RY (24) C 13
  535.  0.00000     3.67001  442.   RY (25) C 13
  536.  0.00000     5.43743  443.   RY (26) C 13
  537.  0.00000     2.46212  459.   RY (16) C 14
  538.  0.00000     2.82712  460.   RY (17) C 14
  539.  0.00000     6.56873  461.   RY (18) C 14
  540.  0.00000     3.77921  462.   RY (19) C 14
  541.  0.00000     3.70370  463.   RY (20) C 14
  542.  0.00000     7.68452  464.   RY (21) C 14
  543.  0.00000     5.55897  465.   RY (22) C 14
  544.  0.00000     5.72794  466.   RY (23) C 14
  545.  0.00000     3.85559  467.   RY (24) C 14
  546.  0.00000     3.67291  468.   RY (25) C 14
  547.  0.00000     3.26374  469.   RY (26) C 14
  548.  0.00000     4.41927  484.   RY (15) O 15
  549.  0.00000     4.42140  485.   RY (16) O 15
  550.  0.00000     2.43679  525.   RY ( 5) H 21
  551.  0.00000     9.77710  486.   RY (17) O 15
  552.  0.00000    21.11132  487.   RY (18) O 15
  553.  0.00000    14.28464  488.   RY (19) O 15
  554.  0.00000     5.25525  489.   RY (20) O 15
  555.  0.00000     8.40226  490.   RY (21) O 15
  556.  0.00000     7.84533  491.   RY (22) O 15
  557.  0.00000     5.93085  492.   RY (23) O 15
  558.  0.00000     5.40450  493.   RY (24) O 15
  559.  0.00000     7.27208  494.   RY (25) O 15
  560.  0.00000     6.07580  495.   RY (26) O 15

 NBO analysis completed in 12.78 CPU seconds (13 wall seconds)
 Maximum scratch memory used by NBO was 3309750 words (25.25 MB)
 Maximum scratch memory used by G16NBO was 482858 words (3.68 MB)

 Opening RunExU unformatted file "/home/rpaton/opt/tzvp/popn/Gau-2187408.EUF"
 Read unf file /home/rpaton/opt/tzvp/popn/Gau-2187408.EUF:
 Label Gaussian matrix elements                                         IVers= 2 NLab= 2 Version=ES64L-G16RevC.01
 Title arbr42_wb97xd_popncreated by GaussianPrep                       
 NAtoms=    28 NBasis=   560 NBsUse=   560 ICharg=     0 Multip=     1 NE=   136 Len12L=8 Len4L=8 IOpCl= 0 ICGU=111
 GAUSSIAN SCALARS                    NI= 1 NR= 1 NTot=       1 LenBuf=    2 NRI=1 N=    1000
 ALPHA ORBITAL ENERGIES              NI= 0 NR= 1 NTot=     560 LenBuf= 2048 NRI=1 N=     560
 ALPHA MO COEFFICIENTS               NI= 0 NR= 1 NTot=  313600 LenBuf= 2048 NRI=1 N=     560     560
 Store file  10524 Len=  313600.
 NPA CHARGES                         NI= 0 NR= 1 NTot=      28 LenBuf= 2048 NRI=1 N=      28
 Recovered energy= -3189.79587373     dipole=      0.922299532946      0.035554450903      0.144740552437
 Unable to Open any file for archive entry.
 1\1\GINC-DYNAMO\SP\RwB97XD\def2TZVP\C12H13Br1O2\RPATON\23-Sep-2024\0\\
 # pop=(nbo6read,savenbos,hirshfeld) wb97xd/def2tzvp\\arbr42_wb97xd_pop
 ncreated by GaussianPrep\\0,1\Br,0,-3.420394,-0.49755,-0.039705\C,0,-1
 .762308,0.422996,0.000332\C,0,-1.745816,1.795267,0.187744\C,0,-0.52812
 8,2.448515,0.197619\C,0,0.67356,1.763976,0.03712\C,0,0.633609,0.380557
 ,-0.131247\C,0,-0.588518,-0.282921,-0.162404\C,0,1.920919,-0.42906,-0.
 21877\C,0,3.090406,0.416648,-0.689341\C,0,3.207452,1.671665,0.162771\C
 ,0,1.967947,2.540354,-0.008875\O,0,1.727242,-1.549088,-1.059837\C,0,2.
 12051,-2.714637,-0.361651\C,0,1.901508,-2.316815,1.084873\O,0,2.244887
 ,-0.948742,1.068564\H,0,-2.668581,2.3441,0.316203\H,0,-0.508555,3.5241
 57,0.331763\H,0,-0.614272,-1.348935,-0.335874\H,0,3.992606,-0.19386,-0
 .633513\H,0,2.921495,0.677565,-1.737615\H,0,4.098394,2.237905,-0.11281
 4\H,0,3.321589,1.38083,1.2094\H,0,1.945022,3.330343,0.744598\H,0,2.017
 973,3.046082,-0.979914\H,0,1.497824,-3.545012,-0.693187\H,0,3.172982,-
 2.947952,-0.556775\H,0,2.555257,-2.829355,1.789037\H,0,0.858158,-2.458
 254,1.38954\\Version=ES64L-G16RevC.01\State=1-A\HF=-3189.7958737\RMSD=
 9.974e-09\Dipole=0.9222995,0.0355544,0.1447406\Quadrupole=-1.922947,7.
 9137993,-5.9908523,-2.117872,-0.737161,-1.3950724\PG=C01 [X(C12H13Br1O
 2)]\\@
 The archive entry for this job was punched.


 WHAT, THEN, IS TIME?  IF NO ONE ASKS ME, I KNOW WHAT IT IS.
 IF I WISH TO EXPLAIN WHAT IT IS TO HIM WHO ASKS ME, I DO NOT KNOW.
                                   -- ST. AUGUSTINE (FIFTH CENTURY)
 Job cpu time:       0 days  1 hours 51 minutes 59.9 seconds.
 Elapsed time:       0 days  0 hours  4 minutes 42.7 seconds.
 File lengths (MBytes):  RWF=    175 Int=      0 D2E=      0 Chk=     17 Scr=      1
 Normal termination of Gaussian 16 at Mon Sep 23 04:02:55 2024.
