 Entering Gaussian System, Link 0=/usr/local/Gaussian/G16C/g16/g16
 Input=arbr35_wb97xd_red.com
 Output=arbr35_wb97xd_red.log
 Initial command:
 /usr/local/Gaussian/G16C/g16/l1.exe "/home/rpaton/arbr500/tzvp/fukui/Gau-2298512.inp" -scrdir="/home/rpaton/arbr500/tzvp/fukui/"
 Entering Link 1 = /usr/local/Gaussian/G16C/g16/l1.exe PID=   2298513.
  
 Copyright (c) 1988-2019, Gaussian, Inc.  All Rights Reserved.
  
 This is part of the Gaussian(R) 16 program.  It is based on
 the Gaussian(R) 09 system (copyright 2009, Gaussian, Inc.),
 the Gaussian(R) 03 system (copyright 2003, Gaussian, Inc.),
 the Gaussian(R) 98 system (copyright 1998, Gaussian, Inc.),
 the Gaussian(R) 94 system (copyright 1995, Gaussian, Inc.),
 the Gaussian 92(TM) system (copyright 1992, Gaussian, Inc.),
 the Gaussian 90(TM) system (copyright 1990, Gaussian, Inc.),
 the Gaussian 88(TM) system (copyright 1988, Gaussian, Inc.),
 the Gaussian 86(TM) system (copyright 1986, Carnegie Mellon
 University), and the Gaussian 82(TM) system (copyright 1983,
 Carnegie Mellon University). Gaussian is a federally registered
 trademark of Gaussian, Inc.
  
 This software contains proprietary and confidential information,
 including trade secrets, belonging to Gaussian, Inc.
  
 This software is provided under written license and may be
 used, copied, transmitted, or stored only in accord with that
 written license.
  
 The following legend is applicable only to US Government
 contracts under FAR:
  
                    RESTRICTED RIGHTS LEGEND
  
 Use, reproduction and disclosure by the US Government is
 subject to restrictions as set forth in subparagraphs (a)
 and (c) of the Commercial Computer Software - Restricted
 Rights clause in FAR 52.227-19.
  
 Gaussian, Inc.
 340 Quinnipiac St., Bldg. 40, Wallingford CT 06492
  
  
 ---------------------------------------------------------------
 Warning -- This program may not be used in any manner that
 competes with the business of Gaussian, Inc. or will provide
 assistance to any competitor of Gaussian, Inc.  The licensee
 of this program is prohibited from giving any competitor of
 Gaussian, Inc. access to this program.  By using this program,
 the user acknowledges that Gaussian, Inc. is engaged in the
 business of creating and licensing software in the field of
 computational chemistry and represents and warrants to the
 licensee that it is not a competitor of Gaussian, Inc. and that
 it will not use this program in any manner prohibited above.
 ---------------------------------------------------------------
  

 Cite this work as:
 Gaussian 16, Revision C.01,
 M. J. Frisch, G. W. Trucks, H. B. Schlegel, G. E. Scuseria, 
 M. A. Robb, J. R. Cheeseman, G. Scalmani, V. Barone, 
 G. A. Petersson, H. Nakatsuji, X. Li, M. Caricato, A. V. Marenich, 
 J. Bloino, B. G. Janesko, R. Gomperts, B. Mennucci, H. P. Hratchian, 
 J. V. Ortiz, A. F. Izmaylov, J. L. Sonnenberg, D. Williams-Young, 
 F. Ding, F. Lipparini, F. Egidi, J. Goings, B. Peng, A. Petrone, 
 T. Henderson, D. Ranasinghe, V. G. Zakrzewski, J. Gao, N. Rega, 
 G. Zheng, W. Liang, M. Hada, M. Ehara, K. Toyota, R. Fukuda, 
 J. Hasegawa, M. Ishida, T. Nakajima, Y. Honda, O. Kitao, H. Nakai, 
 T. Vreven, K. Throssell, J. A. Montgomery, Jr., J. E. Peralta, 
 F. Ogliaro, M. J. Bearpark, J. J. Heyd, E. N. Brothers, K. N. Kudin, 
 V. N. Staroverov, T. A. Keith, R. Kobayashi, J. Normand, 
 K. Raghavachari, A. P. Rendell, J. C. Burant, S. S. Iyengar, 
 J. Tomasi, M. Cossi, J. M. Millam, M. Klene, C. Adamo, R. Cammi, 
 J. W. Ochterski, R. L. Martin, K. Morokuma, O. Farkas, 
 J. B. Foresman, and D. J. Fox, Gaussian, Inc., Wallingford CT, 2019.
 
 ******************************************
 Gaussian 16:  ES64L-G16RevC.01  3-Jul-2019
                28-Sep-2024 
 ******************************************
 %chk=arbr35_wb97xd_red.chk
 %mem=48GB
 %nprocshared=24
 Will use up to   24 processors via shared memory.
 --------------------------------------
 # pop=(nbo6,hirshfeld) wb97xd/def2tzvp
 --------------------------------------
 1/38=1,172=1/1;
 2/12=2,17=6,18=5,40=1/2;
 3/5=44,7=101,11=2,25=1,30=1,74=-58/1,2,3;
 4//1;
 5/5=2,38=5/2;
 6/7=2,8=2,9=2,10=2,28=1,40=1,79=1,113=1,114=1,124=3103,126=1/1,12;
 99/5=1,9=1/99;
 ----------------------------------------
 arbr35_wb97xd_redcreated by GaussianPrep
 ----------------------------------------
 Symbolic Z-matrix:
 Charge = -1 Multiplicity = 2
 Br                    5.88619  -0.30865  0. 
 C                     4.03218   0.087     0. 
 C                     3.62564   1.41484   0. 
 C                     2.27343   1.71898   0. 
 C                     1.34888   0.68652   0. 
 C                     1.77412  -0.64453   0. 
 C                     3.11954  -0.95779   0. 
 C                     0.58691  -1.57251   0.00001 
 C                    -0.57571  -0.61356   0. 
 C                    -1.92907  -0.89111   0. 
 C                    -2.82011   0.17477   0. 
 I                    -4.87771  -0.20894  0. 
 C                    -2.37293   1.49148  0. 
 C                    -1.01307   1.76125  0. 
 C                    -0.11551   0.7056    0. 
 H                     4.36485   2.20388   0. 
 H                     1.95504   2.75408   0.00001 
 H                     3.46003  -1.98491  0. 
 H                     0.57856  -2.22164   0.87923 
 H                     0.57856  -2.22165  -0.87922 
 H                    -2.2877   -1.91234   0. 
 H                    -3.08471   2.30567  0. 
 H                    -0.66835   2.78797  0. 
 
                          Input orientation:                          
 ---------------------------------------------------------------------
 Center     Atomic      Atomic             Coordinates (Angstroms)
 Number     Number       Type             X           Y           Z
 ---------------------------------------------------------------------
      1         35           0        5.886194   -0.308653   -0.000003
      2          6           0        4.032178    0.086996    0.000001
      3          6           0        3.625638    1.414840    0.000001
      4          6           0        2.273431    1.718984    0.000004
      5          6           0        1.348877    0.686520    0.000004
      6          6           0        1.774122   -0.644528    0.000002
      7          6           0        3.119543   -0.957789    0.000000
      8          6           0        0.586907   -1.572513    0.000005
      9          6           0       -0.575714   -0.613558    0.000004
     10          6           0       -1.929071   -0.891107    0.000003
     11          6           0       -2.820108    0.174766    0.000001
     12         53           0       -4.877713   -0.208940   -0.000002
     13          6           0       -2.372930    1.491477   -0.000001
     14          6           0       -1.013073    1.761246   -0.000001
     15          6           0       -0.115505    0.705597    0.000003
     16          1           0        4.364849    2.203878    0.000000
     17          1           0        1.955037    2.754079    0.000005
     18          1           0        3.460028   -1.984910   -0.000002
     19          1           0        0.578557   -2.221640    0.879233
     20          1           0        0.578555   -2.221649   -0.879215
     21          1           0       -2.287702   -1.912338    0.000002
     22          1           0       -3.084714    2.305668   -0.000001
     23          1           0       -0.668349    2.787972   -0.000003
 ---------------------------------------------------------------------
                    Distance matrix (angstroms):
                    1          2          3          4          5
     1  Br   0.000000
     2  C    1.895762   0.000000
     3  C    2.842629   1.388684   0.000000
     4  C    4.142870   2.399287   1.385990   0.000000
     5  C    4.645171   2.749461   2.390416   1.385923   0.000000
     6  C    4.125766   2.373593   2.769315   2.415678   1.397327
     7  C    2.841784   1.387256   2.426005   2.807315   2.416404
     8  C    5.447916   3.824116   4.261240   3.698421   2.384078
     9  C    6.469097   4.660842   4.665379   3.682170   2.322553
    10  C    7.836939   6.040958   6.014332   4.947080   3.637836
    11  C    8.719713   6.852848   6.563949   5.322476   4.200277
    12  I   10.764369   8.914804   8.656999   7.406467   6.290650
    13  C    8.453023   6.557284   5.999058   4.651928   3.807861
    14  C    7.203080   5.315794   4.651627   3.286776   2.594965
    15  C    6.086797   4.193560   3.807778   2.594989   1.464506
    16  H    2.937227   2.142862   1.081209   2.146893   3.376161
    17  H    4.983405   3.380510   2.141137   1.082957   2.154584
    18  H    2.948918   2.149453   3.403781   3.889324   3.404922
    19  H    5.709955   4.246216   4.825115   4.378831   3.134299
    20  H    5.709956   4.246219   4.825120   4.378838   3.134305
    21  H    8.329729   6.628591   6.785109   5.830132   4.469762
    22  H    9.344082   7.454707   6.769224   5.390168   4.719997
    23  H    7.249215   5.421275   4.508194   3.129985   2.912954
                    6          7          8          9         10
     6  C    0.000000
     7  C    1.381409   0.000000
     8  C    1.506863   2.606172   0.000000
     9  C    2.350040   3.711256   1.507077   0.000000
    10  C    3.711393   5.049054   2.606618   1.381524   0.000000
    11  C    4.666711   6.046663   3.828934   2.378815   1.389256
    12  I    6.666082   8.032240   5.632176   4.320985   3.026523
    13  C    4.664821   6.013831   4.260126   2.767880   2.423575
    14  C    3.681875   4.946885   3.697822   2.414742   2.806070
    15  C    2.322397   3.637635   2.383940   1.397126   2.416296
    16  H    3.850361   3.398077   5.341720   5.687452   7.013727
    17  H    3.403419   3.890249   4.537750   4.212562   5.326695
    18  H    2.153811   1.082085   2.902567   4.262373   5.498981
    19  H    2.165573   2.971023   1.092922   2.165944   2.971794
    20  H    2.165575   2.971024   1.092920   2.165945   2.971793
    21  H    4.255086   5.490853   2.894626   2.148891   1.082372
    22  H    5.684360   7.010204   5.340514   3.849281   3.399247
    23  H    4.212804   5.327180   4.537565   3.402791   3.889093
                   11         12         13         14         15
    11  C    0.000000
    12  I    2.093076   0.000000
    13  C    1.390574   3.027434   0.000000
    14  C    2.404640   4.337865   1.386357   0.000000
    15  C    2.756204   4.849227   2.390309   1.385649   0.000000
    16  H    7.465983   9.552311   6.775336   5.396107   4.724237
    17  H    5.427234   7.447547   4.508377   3.129759   2.912632
    18  H    6.641107   8.524787   6.790336   5.834579   4.474736
    19  H    4.250498   5.881743   4.824061   4.378324   3.134244
    20  H    4.250498   5.881741   4.824063   4.378327   3.134248
    21  H    2.153940   3.099955   3.404882   3.888431   3.401768
    22  H    2.147268   3.088381   1.081454   2.141983   3.372896
    23  H    3.385102   5.167226   2.141611   1.083052   2.154512
                   16         17         18         19         20
    16  H    0.000000
    17  H    2.471824   0.000000
    18  H    4.285399   4.972224   0.000000
    19  H    5.890184   5.236938   3.021915   0.000000
    20  H    5.890189   5.236946   3.021911   1.758448   0.000000
    21  H    7.823022   6.306844   5.748188   3.013993   3.013988
    22  H    7.450258   5.059660   7.825772   5.889747   5.889750
    23  H    5.066976   2.623605   6.310618   5.236797   5.236801
                   21         22         23
    21  H    0.000000
    22  H    4.292645   0.000000
    23  H    4.971440   2.464029   0.000000
 Stoichiometry    C13H8BrI(1-,2)
 Framework group  C1[X(C13H8BrI)]
 Deg. of freedom    63
 Full point group                 C1      NOp   1
 Largest Abelian subgroup         C1      NOp   1
 Largest concise Abelian subgroup C1      NOp   1
                         Standard orientation:                         
 ---------------------------------------------------------------------
 Center     Atomic      Atomic             Coordinates (Angstroms)
 Number     Number       Type             X           Y           Z
 ---------------------------------------------------------------------
      1         35           0        5.886194   -0.308653   -0.000003
      2          6           0        4.032178    0.086996    0.000001
      3          6           0        3.625638    1.414840    0.000001
      4          6           0        2.273431    1.718984    0.000004
      5          6           0        1.348877    0.686520    0.000004
      6          6           0        1.774122   -0.644528    0.000002
      7          6           0        3.119543   -0.957789    0.000000
      8          6           0        0.586907   -1.572513    0.000005
      9          6           0       -0.575714   -0.613558    0.000004
     10          6           0       -1.929071   -0.891107    0.000003
     11          6           0       -2.820108    0.174766    0.000001
     12         53           0       -4.877713   -0.208940   -0.000002
     13          6           0       -2.372930    1.491477   -0.000001
     14          6           0       -1.013073    1.761246   -0.000001
     15          6           0       -0.115505    0.705597    0.000003
     16          1           0        4.364849    2.203878    0.000000
     17          1           0        1.955037    2.754079    0.000005
     18          1           0        3.460028   -1.984910   -0.000002
     19          1           0        0.578557   -2.221640    0.879233
     20          1           0        0.578555   -2.221649   -0.879215
     21          1           0       -2.287702   -1.912338    0.000002
     22          1           0       -3.084714    2.305668   -0.000001
     23          1           0       -0.668349    2.787972   -0.000003
 ---------------------------------------------------------------------
 Rotational constants (GHZ):           1.9980247           0.0763675           0.0735895
 Standard basis: def2TZVP (5D, 7F)
 There are   630 symmetry adapted cartesian basis functions of A   symmetry.
 There are   549 symmetry adapted basis functions of A   symmetry.
   549 basis functions,   950 primitive gaussians,   630 cartesian basis functions
    74 alpha electrons       73 beta electrons
       nuclear repulsion energy      1312.3848086087 Hartrees.
 NAtoms=   23 NActive=   23 NUniq=   23 SFac= 1.00D+00 NAtFMM=   60 NAOKFM=F Big=F
 Integral buffers will be    131072 words long.
 Raffenetti 2 integral format.
 Two-electron integral symmetry is turned on.
 Nuclear repulsion after empirical dispersion term =     1312.3688639721 Hartrees.
 One-electron integrals computed using PRISM.
   1 Symmetry operations used in ECPInt.
 ECPInt:  NShTT=   21528 NPrTT=   72042 LenC2=   19399 LenP2D=   46920.
 LDataN:  DoStor=T MaxTD1= 7 Len=  274
 NBasis=   549 RedAO= T EigKep=  5.66D-06  NBF=   549
 NBsUse=   549 1.00D-06 EigRej= -1.00D+00 NBFU=   549
 Defaulting to unpruned grid for atomic number  53.
 ExpMin= 7.49D-02 ExpMax= 5.65D+05 ExpMxC= 5.46D+03 IAcc=3 IRadAn=         5 AccDes= 0.00D+00
 Harris functional with IExCor= 4639 and IRadAn=       5 diagonalized for initial guess.
 HarFok:  IExCor= 4639 AccDes= 0.00D+00 IRadAn=         5 IDoV= 1 UseB2=F ITyADJ=14
 ICtDFT=  3500011 ScaDFX=  1.000000  1.000000  1.000000  1.000000
 Defaulting to unpruned grid for atomic number  53.
 FoFCou: FMM=F IPFlag=           0 FMFlag=      100000 FMFlg1=           0
         NFxFlg=           0 DoJE=T BraDBF=F KetDBF=T FulRan=T
         wScrn=  0.000000 ICntrl=       500 IOpCl=  0 I1Cent=   200000004 NGrid=           0
         NMat0=    1 NMatS0=      1 NMatT0=    0 NMatD0=    1 NMtDS0=    0 NMtDT0=    0
 Petite list used in FoFCou.
 Initial guess <Sx>= 0.0000 <Sy>= 0.0000 <Sz>= 0.5000 <S**2>= 0.7500 S= 0.5000
 Requested convergence on RMS density matrix=1.00D-08 within 128 cycles.
 Requested convergence on MAX density matrix=1.00D-06.
 Requested convergence on             energy=1.00D-06.
 No special actions if energy rises.
 Integral accuracy reduced to 1.0D-05 until final iterations.
 Defaulting to unpruned grid for atomic number  53.
 Defaulting to unpruned grid for atomic number  53.
 Defaulting to unpruned grid for atomic number  53.
 Defaulting to unpruned grid for atomic number  53.
 Defaulting to unpruned grid for atomic number  53.
 Defaulting to unpruned grid for atomic number  53.
 Defaulting to unpruned grid for atomic number  53.
 Defaulting to unpruned grid for atomic number  53.
 Defaulting to unpruned grid for atomic number  53.
 Defaulting to unpruned grid for atomic number  53.
 Defaulting to unpruned grid for atomic number  53.
 Defaulting to unpruned grid for atomic number  53.
 Defaulting to unpruned grid for atomic number  53.
 Defaulting to unpruned grid for atomic number  53.
 Defaulting to unpruned grid for atomic number  53.
 Defaulting to unpruned grid for atomic number  53.
 Defaulting to unpruned grid for atomic number  53.
 Defaulting to unpruned grid for atomic number  53.
 Defaulting to unpruned grid for atomic number  53.
 Defaulting to unpruned grid for atomic number  53.
 Defaulting to unpruned grid for atomic number  53.
 Defaulting to unpruned grid for atomic number  53.
 Defaulting to unpruned grid for atomic number  53.
 Defaulting to unpruned grid for atomic number  53.
 Rare condition: small coef for last iteration:  0.000D+00
 Rare condition: small coef for last iteration:  0.000D+00
 Rare condition: small coef for last iteration:  0.000D+00
 Restarting incremental Fock formation.
 Rare condition: small coef for last iteration:  0.000D+00
 Rare condition: small coef for last iteration:  0.000D+00
 Rare condition: small coef for last iteration:  0.000D+00
 Rare condition: small coef for last iteration:  0.000D+00
 Rare condition: small coef for last iteration:  0.000D+00
 Problem detected with inexpensive integrals.
 Switching to full accuracy and repeating last cycle.
 SCF Done:  E(UwB97XD) =  -3372.21733007     A.U. after   43 cycles
            NFock= 43  Conv=0.56D-08     -V/T= 2.0597
 <Sx>= 0.0000 <Sy>= 0.0000 <Sz>= 0.5000 <S**2>= 0.7757 S= 0.5128
 <L.S>= 0.000000000000E+00
 Annihilation of the first spin contaminant:
 S**2 before annihilation     0.7757,   after     0.7504

 **********************************************************************

            Population analysis using the SCF Density.

 **********************************************************************

 Orbital symmetries:
 Alpha Orbitals:
       Occupied  (A) (A) (A) (A) (A) (A) (A) (A) (A) (A) (A) (A)
                 (A) (A) (A) (A) (A) (A) (A) (A) (A) (A) (A) (A)
                 (A) (A) (A) (A) (A) (A) (A) (A) (A) (A) (A) (A)
                 (A) (A) (A) (A) (A) (A) (A) (A) (A) (A) (A) (A)
                 (A) (A) (A) (A) (A) (A) (A) (A) (A) (A) (A) (A)
                 (A) (A) (A) (A) (A) (A) (A) (A) (A) (A) (A) (A)
                 (A) (A)
       Virtual   (A) (A) (A) (A) (A) (A) (A) (A) (A) (A) (A) (A)
                 (A) (A) (A) (A) (A) (A) (A) (A) (A) (A) (A) (A)
                 (A) (A) (A) (A) (A) (A) (A) (A) (A) (A) (A) (A)
                 (A) (A) (A) (A) (A) (A) (A) (A) (A) (A) (A) (A)
                 (A) (A) (A) (A) (A) (A) (A) (A) (A) (A) (A) (A)
                 (A) (A) (A) (A) (A) (A) (A) (A) (A) (A) (A) (A)
                 (A) (A) (A) (A) (A) (A) (A) (A) (A) (A) (A) (A)
                 (A) (A) (A) (A) (A) (A) (A) (A) (A) (A) (A) (A)
                 (A) (A) (A) (A) (A) (A) (A) (A) (A) (A) (A) (A)
                 (A) (A) (A) (A) (A) (A) (A) (A) (A) (A) (A) (A)
                 (A) (A) (A) (A) (A) (A) (A) (A) (A) (A) (A) (A)
                 (A) (A) (A) (A) (A) (A) (A) (A) (A) (A) (A) (A)
                 (A) (A) (A) (A) (A) (A) (A) (A) (A) (A) (A) (A)
                 (A) (A) (A) (A) (A) (A) (A) (A) (A) (A) (A) (A)
                 (A) (A) (A) (A) (A) (A) (A) (A) (A) (A) (A) (A)
                 (A) (A) (A) (A) (A) (A) (A) (A) (A) (A) (A) (A)
                 (A) (A) (A) (A) (A) (A) (A) (A) (A) (A) (A) (A)
                 (A) (A) (A) (A) (A) (A) (A) (A) (A) (A) (A) (A)
                 (A) (A) (A) (A) (A) (A) (A) (A) (A) (A) (A) (A)
                 (A) (A) (A) (A) (A) (A) (A) (A) (A) (A) (A) (A)
                 (A) (A) (A) (A) (A) (A) (A) (A) (A) (A) (A) (A)
                 (A) (A) (A) (A) (A) (A) (A) (A) (A) (A) (A) (A)
                 (A) (A) (A) (A) (A) (A) (A) (A) (A) (A) (A) (A)
                 (A) (A) (A) (A) (A) (A) (A) (A) (A) (A) (A) (A)
                 (A) (A) (A) (A) (A) (A) (A) (A) (A) (A) (A) (A)
                 (A) (A) (A) (A) (A) (A) (A) (A) (A) (A) (A) (A)
                 (A) (A) (A) (A) (A) (A) (A) (A) (A) (A) (A) (A)
                 (A) (A) (A) (A) (A) (A) (A) (A) (A) (A) (A) (A)
                 (A) (A) (A) (A) (A) (A) (A) (A) (A) (A) (A) (A)
                 (A) (A) (A) (A) (A) (A) (A) (A) (A) (A) (A) (A)
                 (A) (A) (A) (A) (A) (A) (A) (A) (A) (A) (A) (A)
                 (A) (A) (A) (A) (A) (A) (A) (A) (A) (A) (A) (A)
                 (A) (A) (A) (A) (A) (A) (A) (A) (A) (A) (A) (A)
                 (A) (A) (A) (A) (A) (A) (A) (A) (A) (A) (A) (A)
                 (A) (A) (A) (A) (A) (A) (A) (A) (A) (A) (A) (A)
                 (A) (A) (A) (A) (A) (A) (A) (A) (A) (A) (A) (A)
                 (A) (A) (A) (A) (A) (A) (A) (A) (A) (A) (A) (A)
                 (A) (A) (A) (A) (A) (A) (A) (A) (A) (A) (A) (A)
                 (A) (A) (A) (A) (A) (A) (A) (A) (A) (A) (A) (A)
                 (A) (A) (A) (A) (A) (A) (A)
 Beta  Orbitals:
       Occupied  (A) (A) (A) (A) (A) (A) (A) (A) (A) (A) (A) (A)
                 (A) (A) (A) (A) (A) (A) (A) (A) (A) (A) (A) (A)
                 (A) (A) (A) (A) (A) (A) (A) (A) (A) (A) (A) (A)
                 (A) (A) (A) (A) (A) (A) (A) (A) (A) (A) (A) (A)
                 (A) (A) (A) (A) (A) (A) (A) (A) (A) (A) (A) (A)
                 (A) (A) (A) (A) (A) (A) (A) (A) (A) (A) (A) (A)
                 (A)
       Virtual   (A) (A) (A) (A) (A) (A) (A) (A) (A) (A) (A) (A)
                 (A) (A) (A) (A) (A) (A) (A) (A) (A) (A) (A) (A)
                 (A) (A) (A) (A) (A) (A) (A) (A) (A) (A) (A) (A)
                 (A) (A) (A) (A) (A) (A) (A) (A) (A) (A) (A) (A)
                 (A) (A) (A) (A) (A) (A) (A) (A) (A) (A) (A) (A)
                 (A) (A) (A) (A) (A) (A) (A) (A) (A) (A) (A) (A)
                 (A) (A) (A) (A) (A) (A) (A) (A) (A) (A) (A) (A)
                 (A) (A) (A) (A) (A) (A) (A) (A) (A) (A) (A) (A)
                 (A) (A) (A) (A) (A) (A) (A) (A) (A) (A) (A) (A)
                 (A) (A) (A) (A) (A) (A) (A) (A) (A) (A) (A) (A)
                 (A) (A) (A) (A) (A) (A) (A) (A) (A) (A) (A) (A)
                 (A) (A) (A) (A) (A) (A) (A) (A) (A) (A) (A) (A)
                 (A) (A) (A) (A) (A) (A) (A) (A) (A) (A) (A) (A)
                 (A) (A) (A) (A) (A) (A) (A) (A) (A) (A) (A) (A)
                 (A) (A) (A) (A) (A) (A) (A) (A) (A) (A) (A) (A)
                 (A) (A) (A) (A) (A) (A) (A) (A) (A) (A) (A) (A)
                 (A) (A) (A) (A) (A) (A) (A) (A) (A) (A) (A) (A)
                 (A) (A) (A) (A) (A) (A) (A) (A) (A) (A) (A) (A)
                 (A) (A) (A) (A) (A) (A) (A) (A) (A) (A) (A) (A)
                 (A) (A) (A) (A) (A) (A) (A) (A) (A) (A) (A) (A)
                 (A) (A) (A) (A) (A) (A) (A) (A) (A) (A) (A) (A)
                 (A) (A) (A) (A) (A) (A) (A) (A) (A) (A) (A) (A)
                 (A) (A) (A) (A) (A) (A) (A) (A) (A) (A) (A) (A)
                 (A) (A) (A) (A) (A) (A) (A) (A) (A) (A) (A) (A)
                 (A) (A) (A) (A) (A) (A) (A) (A) (A) (A) (A) (A)
                 (A) (A) (A) (A) (A) (A) (A) (A) (A) (A) (A) (A)
                 (A) (A) (A) (A) (A) (A) (A) (A) (A) (A) (A) (A)
                 (A) (A) (A) (A) (A) (A) (A) (A) (A) (A) (A) (A)
                 (A) (A) (A) (A) (A) (A) (A) (A) (A) (A) (A) (A)
                 (A) (A) (A) (A) (A) (A) (A) (A) (A) (A) (A) (A)
                 (A) (A) (A) (A) (A) (A) (A) (A) (A) (A) (A) (A)
                 (A) (A) (A) (A) (A) (A) (A) (A) (A) (A) (A) (A)
                 (A) (A) (A) (A) (A) (A) (A) (A) (A) (A) (A) (A)
                 (A) (A) (A) (A) (A) (A) (A) (A) (A) (A) (A) (A)
                 (A) (A) (A) (A) (A) (A) (A) (A) (A) (A) (A) (A)
                 (A) (A) (A) (A) (A) (A) (A) (A) (A) (A) (A) (A)
                 (A) (A) (A) (A) (A) (A) (A) (A) (A) (A) (A) (A)
                 (A) (A) (A) (A) (A) (A) (A) (A) (A) (A) (A) (A)
                 (A) (A) (A) (A) (A) (A) (A) (A) (A) (A) (A) (A)
                 (A) (A) (A) (A) (A) (A) (A) (A)
 The electronic state is 2-A.
 Alpha  occ. eigenvalues -- -483.00471 -62.55329 -56.34408 -56.34103 -56.34100
 Alpha  occ. eigenvalues --  -10.19125 -10.18340 -10.17004 -10.16163 -10.16134
 Alpha  occ. eigenvalues --  -10.15944 -10.15809 -10.15453 -10.15315 -10.14332
 Alpha  occ. eigenvalues --  -10.14228 -10.14187 -10.14049  -8.69465  -6.83899
 Alpha  occ. eigenvalues --   -6.51522  -6.50531  -6.50518  -4.85764  -4.84784
 Alpha  occ. eigenvalues --   -4.84754  -2.61937  -2.61639  -2.61628  -2.60821
 Alpha  occ. eigenvalues --   -2.60821  -1.89253  -1.88926  -1.88887  -1.88046
 Alpha  occ. eigenvalues --   -1.88046  -0.86223  -0.83086  -0.79401  -0.75620
 Alpha  occ. eigenvalues --   -0.73409  -0.71519  -0.68877  -0.66175  -0.64274
 Alpha  occ. eigenvalues --   -0.59070  -0.55289  -0.53595  -0.53246  -0.48152
 Alpha  occ. eigenvalues --   -0.44386  -0.42610  -0.41556  -0.40554  -0.39900
 Alpha  occ. eigenvalues --   -0.39048  -0.37101  -0.36373  -0.34634  -0.34318
 Alpha  occ. eigenvalues --   -0.33628  -0.30640  -0.29433  -0.28606  -0.28452
 Alpha  occ. eigenvalues --   -0.27666  -0.25217  -0.25164  -0.22534  -0.21164
 Alpha  occ. eigenvalues --   -0.20965  -0.20262  -0.15973  -0.00682
 Alpha virt. eigenvalues --    0.15897   0.17317   0.19310   0.19753   0.20229
 Alpha virt. eigenvalues --    0.22791   0.24329   0.25115   0.26471   0.26893
 Alpha virt. eigenvalues --    0.27955   0.28601   0.29977   0.30818   0.32338
 Alpha virt. eigenvalues --    0.33113   0.33356   0.33601   0.34692   0.35301
 Alpha virt. eigenvalues --    0.35411   0.36107   0.37131   0.38365   0.39305
 Alpha virt. eigenvalues --    0.39357   0.40103   0.40206   0.40405   0.40430
 Alpha virt. eigenvalues --    0.41373   0.42005   0.42850   0.43049   0.43260
 Alpha virt. eigenvalues --    0.43856   0.43984   0.45817   0.45830   0.46926
 Alpha virt. eigenvalues --    0.47302   0.47984   0.48518   0.48557   0.49904
 Alpha virt. eigenvalues --    0.50785   0.51547   0.51911   0.53408   0.53874
 Alpha virt. eigenvalues --    0.54277   0.54548   0.55284   0.55602   0.55923
 Alpha virt. eigenvalues --    0.56383   0.57102   0.57963   0.58355   0.59205
 Alpha virt. eigenvalues --    0.59495   0.60254   0.61791   0.62562   0.62768
 Alpha virt. eigenvalues --    0.63234   0.64442   0.64570   0.65026   0.65415
 Alpha virt. eigenvalues --    0.65460   0.67174   0.68440   0.68751   0.68980
 Alpha virt. eigenvalues --    0.70745   0.71584   0.71988   0.72178   0.74336
 Alpha virt. eigenvalues --    0.74848   0.76139   0.77528   0.78623   0.79375
 Alpha virt. eigenvalues --    0.80873   0.81127   0.82452   0.83482   0.84094
 Alpha virt. eigenvalues --    0.86091   0.86122   0.86139   0.86760   0.87700
 Alpha virt. eigenvalues --    0.89177   0.89507   0.89605   0.89999   0.90721
 Alpha virt. eigenvalues --    0.92141   0.93114   0.94596   0.95414   0.95544
 Alpha virt. eigenvalues --    0.96737   0.98033   0.98730   0.98817   0.99970
 Alpha virt. eigenvalues --    1.00445   1.02606   1.02939   1.03392   1.03864
 Alpha virt. eigenvalues --    1.05665   1.07068   1.07651   1.08064   1.09210
 Alpha virt. eigenvalues --    1.09515   1.09646   1.11008   1.11762   1.12570
 Alpha virt. eigenvalues --    1.14357   1.15064   1.15987   1.16931   1.17096
 Alpha virt. eigenvalues --    1.18744   1.19221   1.19985   1.21652   1.23463
 Alpha virt. eigenvalues --    1.24512   1.24702   1.25694   1.27522   1.29590
 Alpha virt. eigenvalues --    1.30654   1.31299   1.34390   1.35488   1.35708
 Alpha virt. eigenvalues --    1.36313   1.37304   1.38710   1.40187   1.40920
 Alpha virt. eigenvalues --    1.41568   1.42501   1.43659   1.44734   1.45803
 Alpha virt. eigenvalues --    1.46415   1.47344   1.47374   1.47714   1.50156
 Alpha virt. eigenvalues --    1.50371   1.51472   1.52818   1.53713   1.54877
 Alpha virt. eigenvalues --    1.54960   1.55280   1.56603   1.56651   1.58439
 Alpha virt. eigenvalues --    1.58766   1.59111   1.59809   1.60442   1.61133
 Alpha virt. eigenvalues --    1.61543   1.63344   1.64154   1.64604   1.66468
 Alpha virt. eigenvalues --    1.67260   1.69114   1.69423   1.70659   1.70800
 Alpha virt. eigenvalues --    1.71634   1.73116   1.74164   1.74198   1.74771
 Alpha virt. eigenvalues --    1.75464   1.77057   1.77269   1.78207   1.78641
 Alpha virt. eigenvalues --    1.80252   1.81120   1.82738   1.82939   1.82977
 Alpha virt. eigenvalues --    1.85030   1.85631   1.87315   1.87425   1.88942
 Alpha virt. eigenvalues --    1.90193   1.90993   1.92187   1.92446   1.93053
 Alpha virt. eigenvalues --    1.94040   1.97454   1.97618   1.98520   2.00980
 Alpha virt. eigenvalues --    2.04203   2.04660   2.05362   2.07590   2.08979
 Alpha virt. eigenvalues --    2.09254   2.09986   2.12151   2.12883   2.16270
 Alpha virt. eigenvalues --    2.17262   2.18311   2.18341   2.20819   2.25675
 Alpha virt. eigenvalues --    2.26312   2.26482   2.27269   2.29208   2.32802
 Alpha virt. eigenvalues --    2.33557   2.34081   2.35608   2.36131   2.38778
 Alpha virt. eigenvalues --    2.39288   2.40463   2.41595   2.42142   2.42968
 Alpha virt. eigenvalues --    2.43413   2.46508   2.50631   2.51788   2.52370
 Alpha virt. eigenvalues --    2.55348   2.56944   2.61160   2.62181   2.64197
 Alpha virt. eigenvalues --    2.65607   2.66965   2.68715   2.71074   2.72434
 Alpha virt. eigenvalues --    2.73820   2.74882   2.75317   2.77825   2.80904
 Alpha virt. eigenvalues --    2.81925   2.82512   2.83290   2.84589   2.85239
 Alpha virt. eigenvalues --    2.87771   2.87809   2.89180   2.89460   2.91738
 Alpha virt. eigenvalues --    2.92451   2.92501   2.92515   2.94130   2.94604
 Alpha virt. eigenvalues --    2.96977   2.97379   2.98130   3.00009   3.00192
 Alpha virt. eigenvalues --    3.02882   3.03677   3.03905   3.05161   3.05783
 Alpha virt. eigenvalues --    3.06985   3.08381   3.09043   3.10405   3.12095
 Alpha virt. eigenvalues --    3.12659   3.14098   3.14524   3.16567   3.17156
 Alpha virt. eigenvalues --    3.18810   3.19334   3.21497   3.22155   3.22163
 Alpha virt. eigenvalues --    3.22648   3.24846   3.25633   3.25852   3.26397
 Alpha virt. eigenvalues --    3.26834   3.27458   3.27592   3.28895   3.31237
 Alpha virt. eigenvalues --    3.31631   3.32227   3.33562   3.34162   3.35844
 Alpha virt. eigenvalues --    3.36146   3.36548   3.37206   3.37549   3.39198
 Alpha virt. eigenvalues --    3.40202   3.41123   3.42139   3.43786   3.45291
 Alpha virt. eigenvalues --    3.45461   3.46312   3.46543   3.47467   3.48669
 Alpha virt. eigenvalues --    3.49101   3.50645   3.51365   3.52802   3.54903
 Alpha virt. eigenvalues --    3.55378   3.56007   3.56635   3.57123   3.58257
 Alpha virt. eigenvalues --    3.60481   3.61744   3.62893   3.63216   3.64541
 Alpha virt. eigenvalues --    3.66010   3.66269   3.68765   3.69075   3.70018
 Alpha virt. eigenvalues --    3.70492   3.72758   3.73057   3.73487   3.74465
 Alpha virt. eigenvalues --    3.74839   3.76291   3.77098   3.79034   3.80244
 Alpha virt. eigenvalues --    3.81721   3.83086   3.83192   3.85502   3.86009
 Alpha virt. eigenvalues --    3.86690   3.87543   3.88303   3.92492   3.93315
 Alpha virt. eigenvalues --    3.96967   3.98258   4.00782   4.01559   4.03720
 Alpha virt. eigenvalues --    4.05560   4.07719   4.10660   4.11608   4.14554
 Alpha virt. eigenvalues --    4.16736   4.16972   4.22655   4.23330   4.23852
 Alpha virt. eigenvalues --    4.25035   4.25629   4.27517   4.31076   4.32501
 Alpha virt. eigenvalues --    4.33162   4.34896   4.36945   4.39486   4.39948
 Alpha virt. eigenvalues --    4.40277   4.41154   4.43185   4.43829   4.44568
 Alpha virt. eigenvalues --    4.45529   4.47631   4.49054   4.51859   4.52301
 Alpha virt. eigenvalues --    4.53196   4.55512   4.56841   4.58436   4.60436
 Alpha virt. eigenvalues --    4.61661   4.64819   4.67347   4.67578   4.68903
 Alpha virt. eigenvalues --    4.69843   4.71013   4.76356   4.78366   4.80844
 Alpha virt. eigenvalues --    4.85147   4.91011   4.91616   4.91913   4.94702
 Alpha virt. eigenvalues --    4.97297   5.01073   5.03252   5.04195   5.08109
 Alpha virt. eigenvalues --    5.08116   5.10518   5.16781   5.18758   5.22057
 Alpha virt. eigenvalues --    5.22748   5.30291   5.31928   5.34997   5.45761
 Alpha virt. eigenvalues --    5.46973   5.56432   5.57995   5.64261   5.67228
 Alpha virt. eigenvalues --    5.72493   5.77962   5.82779   5.93587   5.99087
 Alpha virt. eigenvalues --    6.33037   7.98791  22.13622  22.73168  22.84900
 Alpha virt. eigenvalues --   22.91448  22.92845  22.95909  23.03063  23.08030
 Alpha virt. eigenvalues --   23.23736  23.25024  23.40408  23.88898  24.03823
 Alpha virt. eigenvalues --   34.88878  34.98996  35.26547  43.12038 119.86841
  Beta  occ. eigenvalues -- -483.00471 -62.55326 -56.34412 -56.34103 -56.34091
  Beta  occ. eigenvalues --  -10.18806 -10.18015 -10.17006 -10.16274 -10.16241
  Beta  occ. eigenvalues --  -10.15915 -10.15792 -10.15418 -10.15259 -10.14155
  Beta  occ. eigenvalues --  -10.14081 -10.13980 -10.13909  -8.69464  -6.83898
  Beta  occ. eigenvalues --   -6.51531  -6.50531  -6.50505  -4.85770  -4.84784
  Beta  occ. eigenvalues --   -4.84746  -2.61941  -2.61643  -2.61620  -2.60815
  Beta  occ. eigenvalues --   -2.60815  -1.89258  -1.88933  -1.88883  -1.88042
  Beta  occ. eigenvalues --   -1.88042  -0.85884  -0.82707  -0.79058  -0.75396
  Beta  occ. eigenvalues --   -0.72936  -0.71202  -0.68596  -0.66047  -0.64072
  Beta  occ. eigenvalues --   -0.58551  -0.55100  -0.53219  -0.52808  -0.48029
  Beta  occ. eigenvalues --   -0.44115  -0.42353  -0.41279  -0.40297  -0.39683
  Beta  occ. eigenvalues --   -0.38887  -0.36949  -0.36259  -0.34404  -0.33394
  Beta  occ. eigenvalues --   -0.32622  -0.30469  -0.29261  -0.28472  -0.27462
  Beta  occ. eigenvalues --   -0.27452  -0.25197  -0.24406  -0.22529  -0.20064
  Beta  occ. eigenvalues --   -0.19934  -0.18997  -0.14082
  Beta virt. eigenvalues --    0.16267   0.16679   0.17392   0.20000   0.20119
  Beta virt. eigenvalues --    0.22755   0.23218   0.24328   0.25177   0.26474
  Beta virt. eigenvalues --    0.26866   0.28602   0.28687   0.30010   0.30813
  Beta virt. eigenvalues --    0.32304   0.33095   0.33641   0.33686   0.34702
  Beta virt. eigenvalues --    0.35419   0.36071   0.36139   0.37101   0.38877
  Beta virt. eigenvalues --    0.39324   0.39400   0.40142   0.40311   0.40427
  Beta virt. eigenvalues --    0.41096   0.41391   0.42075   0.43063   0.43194
  Beta virt. eigenvalues --    0.43279   0.43936   0.43970   0.45867   0.46129
  Beta virt. eigenvalues --    0.46993   0.47338   0.48069   0.48593   0.48881
  Beta virt. eigenvalues --    0.50031   0.50866   0.51729   0.52110   0.53430
  Beta virt. eigenvalues --    0.53940   0.54750   0.54812   0.55573   0.55726
  Beta virt. eigenvalues --    0.56136   0.56546   0.57211   0.58049   0.58662
  Beta virt. eigenvalues --    0.59336   0.59554   0.60469   0.61786   0.62705
  Beta virt. eigenvalues --    0.62973   0.63288   0.64561   0.64631   0.65109
  Beta virt. eigenvalues --    0.65500   0.65682   0.67287   0.68600   0.68929
  Beta virt. eigenvalues --    0.69148   0.70840   0.71666   0.72038   0.72307
  Beta virt. eigenvalues --    0.74432   0.74963   0.76206   0.77573   0.78688
  Beta virt. eigenvalues --    0.79423   0.81253   0.81597   0.82512   0.83671
  Beta virt. eigenvalues --    0.84160   0.86159   0.86273   0.86373   0.86859
  Beta virt. eigenvalues --    0.87770   0.89279   0.89561   0.89891   0.90084
  Beta virt. eigenvalues --    0.90856   0.92555   0.93204   0.94708   0.95559
  Beta virt. eigenvalues --    0.95951   0.96750   0.98077   0.98770   0.99271
  Beta virt. eigenvalues --    1.00013   1.00619   1.03064   1.03128   1.03701
  Beta virt. eigenvalues --    1.03989   1.05885   1.07062   1.07717   1.08149
  Beta virt. eigenvalues --    1.09490   1.09674   1.09680   1.11057   1.11804
  Beta virt. eigenvalues --    1.12617   1.14430   1.15327   1.16185   1.17168
  Beta virt. eigenvalues --    1.17329   1.18953   1.19328   1.20439   1.21817
  Beta virt. eigenvalues --    1.23757   1.24720   1.24780   1.25939   1.27611
  Beta virt. eigenvalues --    1.29955   1.30790   1.31383   1.34765   1.35639
  Beta virt. eigenvalues --    1.35937   1.36507   1.37573   1.38766   1.40636
  Beta virt. eigenvalues --    1.41013   1.41648   1.42648   1.43959   1.44800
  Beta virt. eigenvalues --    1.45978   1.46498   1.47443   1.47670   1.47794
  Beta virt. eigenvalues --    1.50400   1.50574   1.51510   1.53020   1.54029
  Beta virt. eigenvalues --    1.55010   1.55103   1.55563   1.56729   1.56838
  Beta virt. eigenvalues --    1.58661   1.59140   1.59243   1.59922   1.60644
  Beta virt. eigenvalues --    1.61283   1.61678   1.63432   1.64715   1.64780
  Beta virt. eigenvalues --    1.66953   1.67305   1.69257   1.69572   1.70732
  Beta virt. eigenvalues --    1.70934   1.71702   1.73617   1.74261   1.74286
  Beta virt. eigenvalues --    1.74884   1.75819   1.77397   1.77493   1.78258
  Beta virt. eigenvalues --    1.78933   1.80395   1.81229   1.82877   1.83103
  Beta virt. eigenvalues --    1.83149   1.85170   1.85954   1.87555   1.87954
  Beta virt. eigenvalues --    1.89106   1.90386   1.91761   1.92582   1.92593
  Beta virt. eigenvalues --    1.93165   1.94564   1.97725   1.97913   1.98652
  Beta virt. eigenvalues --    2.01401   2.04297   2.04820   2.05671   2.07753
  Beta virt. eigenvalues --    2.09386   2.09498   2.10388   2.12678   2.13074
  Beta virt. eigenvalues --    2.16558   2.17360   2.18438   2.18491   2.20973
  Beta virt. eigenvalues --    2.25912   2.26516   2.26696   2.27595   2.29490
  Beta virt. eigenvalues --    2.33150   2.34103   2.34535   2.35765   2.36449
  Beta virt. eigenvalues --    2.39100   2.39584   2.40717   2.41821   2.42449
  Beta virt. eigenvalues --    2.43189   2.43727   2.46758   2.50843   2.52092
  Beta virt. eigenvalues --    2.52576   2.55659   2.57254   2.61405   2.62394
  Beta virt. eigenvalues --    2.64405   2.65830   2.67184   2.68971   2.71417
  Beta virt. eigenvalues --    2.72611   2.74011   2.75098   2.75490   2.77998
  Beta virt. eigenvalues --    2.81093   2.82164   2.82709   2.83665   2.84849
  Beta virt. eigenvalues --    2.85552   2.88013   2.88247   2.89294   2.89927
  Beta virt. eigenvalues --    2.92060   2.92601   2.92763   2.92812   2.94244
  Beta virt. eigenvalues --    2.94863   2.97413   2.97618   2.98460   3.00289
  Beta virt. eigenvalues --    3.00486   3.03198   3.04000   3.04128   3.05511
  Beta virt. eigenvalues --    3.06089   3.07150   3.08745   3.09321   3.10561
  Beta virt. eigenvalues --    3.12443   3.12866   3.14348   3.14769   3.16908
  Beta virt. eigenvalues --    3.17450   3.19019   3.19651   3.21903   3.22391
  Beta virt. eigenvalues --    3.22393   3.22824   3.25170   3.25879   3.25916
  Beta virt. eigenvalues --    3.26569   3.27203   3.27701   3.27780   3.29231
  Beta virt. eigenvalues --    3.31557   3.31916   3.32481   3.33684   3.34335
  Beta virt. eigenvalues --    3.36104   3.36355   3.36807   3.37433   3.37780
  Beta virt. eigenvalues --    3.39464   3.40412   3.41527   3.42296   3.44085
  Beta virt. eigenvalues --    3.45562   3.45758   3.46645   3.46873   3.47893
  Beta virt. eigenvalues --    3.49024   3.49287   3.50816   3.51678   3.53258
  Beta virt. eigenvalues --    3.55297   3.55652   3.56383   3.56895   3.57324
  Beta virt. eigenvalues --    3.58778   3.60682   3.61998   3.63048   3.63396
  Beta virt. eigenvalues --    3.64709   3.66548   3.66591   3.69182   3.69299
  Beta virt. eigenvalues --    3.70280   3.70579   3.72902   3.73553   3.73602
  Beta virt. eigenvalues --    3.74681   3.75237   3.76788   3.77234   3.79433
  Beta virt. eigenvalues --    3.80686   3.82120   3.83342   3.83665   3.86000
  Beta virt. eigenvalues --    3.86448   3.86922   3.87656   3.88556   3.92706
  Beta virt. eigenvalues --    3.93513   3.97327   3.98453   4.00939   4.01756
  Beta virt. eigenvalues --    4.04058   4.05792   4.07884   4.10868   4.11981
  Beta virt. eigenvalues --    4.14688   4.16951   4.17177   4.22716   4.23586
  Beta virt. eigenvalues --    4.23977   4.25259   4.25739   4.27659   4.31347
  Beta virt. eigenvalues --    4.32757   4.33414   4.35080   4.37616   4.39734
  Beta virt. eigenvalues --    4.40121   4.40830   4.41355   4.43367   4.44041
  Beta virt. eigenvalues --    4.44900   4.45957   4.48184   4.49214   4.52022
  Beta virt. eigenvalues --    4.52496   4.53617   4.55838   4.57346   4.58657
  Beta virt. eigenvalues --    4.60582   4.61753   4.64964   4.67453   4.68066
  Beta virt. eigenvalues --    4.69028   4.70144   4.71223   4.76499   4.78570
  Beta virt. eigenvalues --    4.80967   4.85573   4.91232   4.91924   4.92141
  Beta virt. eigenvalues --    4.94825   4.97485   5.01273   5.03503   5.04788
  Beta virt. eigenvalues --    5.08305   5.08516   5.10822   5.17005   5.18923
  Beta virt. eigenvalues --    5.22232   5.22972   5.30460   5.32129   5.35197
  Beta virt. eigenvalues --    5.45940   5.47129   5.56610   5.58204   5.64420
  Beta virt. eigenvalues --    5.67390   5.72691   5.78130   5.82933   5.93754
  Beta virt. eigenvalues --    5.99345   6.33166   7.98814  22.13777  22.73346
  Beta virt. eigenvalues --   22.84921  22.91524  22.93116  22.95912  23.03309
  Beta virt. eigenvalues --   23.08306  23.23893  23.25199  23.40532  23.89041
  Beta virt. eigenvalues --   24.03935  34.88898  34.98996  35.26540  43.12043
  Beta virt. eigenvalues --  119.86847
          Condensed to atoms (all electrons):
               1          2          3          4          5          6
     1  Br  35.041996   0.262469  -0.078243   0.024997  -0.004187   0.018106
     2  C    0.262469   5.193592   0.310215   0.071856  -0.116120   0.068193
     3  C   -0.078243   0.310215   5.135845   0.345114   0.052054  -0.121144
     4  C    0.024997   0.071856   0.345114   5.411438   0.262188   0.018843
     5  C   -0.004187  -0.116120   0.052054   0.262188   5.274751   0.435357
     6  C    0.018106   0.068193  -0.121144   0.018843   0.435357   5.215835
     7  C   -0.062495   0.211492   0.075388  -0.097593   0.038611   0.303891
     8  C   -0.001899   0.009602   0.003449   0.014080  -0.095353   0.333686
     9  C    0.000168   0.000252  -0.001807   0.019746  -0.116135  -0.083101
    10  C    0.000001  -0.000253   0.000202  -0.002762   0.007902   0.017750
    11  C   -0.000000   0.000013   0.000021  -0.000085  -0.005605   0.000010
    12  I   -0.000000  -0.000001   0.000001  -0.000013  -0.000457   0.000253
    13  C    0.000000   0.000023  -0.000143  -0.000678   0.005875  -0.000902
    14  C   -0.000006  -0.000180  -0.000472   0.020326  -0.145725   0.017475
    15  C   -0.000432  -0.008154   0.009739  -0.151425   0.377041  -0.121162
    16  H   -0.004377  -0.089263   0.471888  -0.082272   0.018437  -0.004466
    17  H   -0.000458   0.013799  -0.076143   0.466067  -0.073761   0.015849
    18  H   -0.002154  -0.091214   0.018809  -0.006855   0.019048  -0.081142
    19  H    0.000021  -0.000521   0.000044  -0.000510  -0.001654   0.002518
    20  H    0.000021  -0.000521   0.000044  -0.000510  -0.001653   0.002515
    21  H    0.000000  -0.000001  -0.000003   0.000047  -0.000073   0.000668
    22  H   -0.000000  -0.000000  -0.000001   0.000035   0.000499  -0.000057
    23  H   -0.000001  -0.000021  -0.000097   0.006488  -0.015299   0.000449
               7          8          9         10         11         12
     1  Br  -0.062495  -0.001899   0.000168   0.000001  -0.000000  -0.000000
     2  C    0.211492   0.009602   0.000252  -0.000253   0.000013  -0.000001
     3  C    0.075388   0.003449  -0.001807   0.000202   0.000021   0.000001
     4  C   -0.097593   0.014080   0.019746  -0.002762  -0.000085  -0.000013
     5  C    0.038611  -0.095353  -0.116135   0.007902  -0.005605  -0.000457
     6  C    0.303891   0.333686  -0.083101   0.017750   0.000010   0.000253
     7  C    5.535483  -0.138579   0.018587   0.001285  -0.000258   0.000006
     8  C   -0.138579   5.034079   0.334056  -0.132501   0.009311  -0.001846
     9  C    0.018587   0.334056   5.154824   0.343291   0.024928   0.020904
    10  C    0.001285  -0.132501   0.343291   5.590132   0.256435  -0.083140
    11  C   -0.000258   0.009311   0.024928   0.256435   5.079146   0.317098
    12  I    0.000006  -0.001846   0.020904  -0.083140   0.317098  24.984765
    13  C    0.000204  -0.000155  -0.093098   0.022199   0.368585  -0.085094
    14  C   -0.002753   0.019991  -0.006360  -0.066969   0.028501   0.019715
    15  C    0.008358  -0.089928   0.460292  -0.002113  -0.081219  -0.000894
    16  H    0.018275   0.000304  -0.000062  -0.000001  -0.000000  -0.000000
    17  H   -0.003427  -0.000715   0.000673  -0.000035  -0.000004  -0.000002
    18  H    0.479162  -0.009532   0.000552   0.000002  -0.000001   0.000000
    19  H    0.003483   0.313963   0.002819   0.002544  -0.000426   0.000026
    20  H    0.003482   0.313968   0.002817   0.002544  -0.000426   0.000026
    21  H    0.000018  -0.008856  -0.062836   0.458238  -0.079634  -0.011129
    22  H   -0.000001   0.000236  -0.004455   0.019250  -0.083368  -0.010875
    23  H   -0.000013  -0.000545   0.017387  -0.004368   0.012379  -0.000662
              13         14         15         16         17         18
     1  Br   0.000000  -0.000006  -0.000432  -0.004377  -0.000458  -0.002154
     2  C    0.000023  -0.000180  -0.008154  -0.089263   0.013799  -0.091214
     3  C   -0.000143  -0.000472   0.009739   0.471888  -0.076143   0.018809
     4  C   -0.000678   0.020326  -0.151425  -0.082272   0.466067  -0.006855
     5  C    0.005875  -0.145725   0.377041   0.018437  -0.073761   0.019048
     6  C   -0.000902   0.017475  -0.121162  -0.004466   0.015849  -0.081142
     7  C    0.000204  -0.002753   0.008358   0.018275  -0.003427   0.479162
     8  C   -0.000155   0.019991  -0.089928   0.000304  -0.000715  -0.009532
     9  C   -0.093098  -0.006360   0.460292  -0.000062   0.000673   0.000552
    10  C    0.022199  -0.066969  -0.002113  -0.000001  -0.000035   0.000002
    11  C    0.368585   0.028501  -0.081219  -0.000000  -0.000004  -0.000001
    12  I   -0.085094   0.019715  -0.000894  -0.000000  -0.000002   0.000000
    13  C    5.135042   0.403983   0.024349  -0.000002  -0.000130  -0.000003
    14  C    0.403983   5.355028   0.280755   0.000045   0.006162   0.000035
    15  C    0.024349   0.280755   5.269535   0.000540  -0.014362   0.000169
    16  H   -0.000002   0.000045   0.000540   0.596612  -0.009911   0.000004
    17  H   -0.000130   0.006162  -0.014362  -0.009911   0.601877   0.000073
    18  H   -0.000003   0.000035   0.000169   0.000004   0.000073   0.594161
    19  H    0.000053  -0.000517  -0.001245  -0.000003   0.000031   0.001533
    20  H    0.000053  -0.000517  -0.001246  -0.000003   0.000031   0.001533
    21  H    0.017465  -0.005335   0.015855   0.000000   0.000002   0.000005
    22  H    0.461299  -0.073211   0.016416   0.000000   0.000014   0.000000
    23  H   -0.074328   0.464135  -0.072674   0.000014   0.004284   0.000002
              19         20         21         22         23
     1  Br   0.000021   0.000021   0.000000  -0.000000  -0.000001
     2  C   -0.000521  -0.000521  -0.000001  -0.000000  -0.000021
     3  C    0.000044   0.000044  -0.000003  -0.000001  -0.000097
     4  C   -0.000510  -0.000510   0.000047   0.000035   0.006488
     5  C   -0.001654  -0.001653  -0.000073   0.000499  -0.015299
     6  C    0.002518   0.002515   0.000668  -0.000057   0.000449
     7  C    0.003483   0.003482   0.000018  -0.000001  -0.000013
     8  C    0.313963   0.313968  -0.008856   0.000236  -0.000545
     9  C    0.002819   0.002817  -0.062836  -0.004455   0.017387
    10  C    0.002544   0.002544   0.458238   0.019250  -0.004368
    11  C   -0.000426  -0.000426  -0.079634  -0.083368   0.012379
    12  I    0.000026   0.000026  -0.011129  -0.010875  -0.000662
    13  C    0.000053   0.000053   0.017465   0.461299  -0.074328
    14  C   -0.000517  -0.000517  -0.005335  -0.073211   0.464135
    15  C   -0.001245  -0.001246   0.015855   0.016416  -0.072674
    16  H   -0.000003  -0.000003   0.000000   0.000000   0.000014
    17  H    0.000031   0.000031   0.000002   0.000014   0.004284
    18  H    0.001533   0.001533   0.000005   0.000000   0.000002
    19  H    0.640230  -0.040007   0.001497  -0.000002   0.000031
    20  H   -0.040007   0.640228   0.001497  -0.000002   0.000031
    21  H    0.001497   0.001497   0.590818   0.000046   0.000071
    22  H   -0.000002  -0.000002   0.000046   0.595900  -0.009112
    23  H    0.000031   0.000031   0.000071  -0.009112   0.602487
          Atomic-Atomic Spin Densities.
               1          2          3          4          5          6
     1  Br   0.020803  -0.030047   0.003317   0.000925  -0.000470   0.000336
     2  C   -0.030047   0.370601   0.000174  -0.046389   0.025943  -0.024742
     3  C    0.003317   0.000174  -0.104574   0.022733  -0.004821   0.005672
     4  C    0.000925  -0.046389   0.022733   0.318467  -0.091329   0.004948
     5  C   -0.000470   0.025943  -0.004821  -0.091329   0.131942  -0.048153
     6  C    0.000336  -0.024742   0.005672   0.004948  -0.048153   0.036600
     7  C    0.009204  -0.085306   0.001056   0.018940  -0.023660   0.059636
     8  C    0.000021   0.001419  -0.000326  -0.000505   0.006467  -0.003783
     9  C    0.000000  -0.000625   0.000075   0.003708  -0.006426   0.003852
    10  C    0.000000  -0.000074   0.000003   0.000766  -0.006154   0.001939
    11  C   -0.000000   0.000016  -0.000005  -0.000459   0.003382  -0.000662
    12  I    0.000000  -0.000000  -0.000000   0.000005  -0.000025  -0.000005
    13  C   -0.000000  -0.000005   0.000007   0.000301  -0.001736   0.000120
    14  C    0.000002  -0.000455   0.000265   0.008979  -0.026713   0.003695
    15  C   -0.000023   0.003318  -0.001371  -0.029133   0.101647  -0.008153
    16  H    0.000192  -0.000332   0.000415   0.000066   0.000076   0.000047
    17  H    0.000004  -0.000551   0.002450   0.000291   0.000608  -0.000904
    18  H    0.000243  -0.000045  -0.000218  -0.000004  -0.000549   0.000524
    19  H   -0.000003   0.000172  -0.000017  -0.000069   0.000719  -0.001672
    20  H   -0.000003   0.000172  -0.000017  -0.000068   0.000719  -0.001672
    21  H    0.000000  -0.000000   0.000000   0.000001   0.000067   0.000009
    22  H    0.000000  -0.000000   0.000000  -0.000000  -0.000008   0.000004
    23  H   -0.000000  -0.000002  -0.000016  -0.000357   0.000771   0.000081
               7          8          9         10         11         12
     1  Br   0.009204   0.000021   0.000000   0.000000  -0.000000   0.000000
     2  C   -0.085306   0.001419  -0.000625  -0.000074   0.000016  -0.000000
     3  C    0.001056  -0.000326   0.000075   0.000003  -0.000005  -0.000000
     4  C    0.018940  -0.000505   0.003708   0.000766  -0.000459   0.000005
     5  C   -0.023660   0.006467  -0.006426  -0.006154   0.003382  -0.000025
     6  C    0.059636  -0.003783   0.003852   0.001939  -0.000662  -0.000005
     7  C    0.069038  -0.003051   0.001756   0.000467  -0.000076   0.000001
     8  C   -0.003051  -0.006072  -0.003339  -0.003403   0.001424   0.000055
     9  C    0.001756  -0.003339   0.026117   0.064518  -0.026644   0.000151
    10  C    0.000467  -0.003403   0.064518   0.085036  -0.088479   0.009279
    11  C   -0.000076   0.001424  -0.026644  -0.088479   0.383926  -0.024547
    12  I    0.000001   0.000055   0.000151   0.009279  -0.024547   0.011694
    13  C    0.000006  -0.000350   0.006779   0.001204  -0.002106   0.004103
    14  C    0.000757  -0.000710   0.004814   0.021468  -0.048805   0.000707
    15  C   -0.005954   0.007035  -0.051154  -0.027678   0.028373  -0.000601
    16  H   -0.000096  -0.000007   0.000002   0.000000  -0.000000   0.000000
    17  H    0.000291  -0.000024   0.000079   0.000006  -0.000002  -0.000000
    18  H    0.000852  -0.000035  -0.000004   0.000001  -0.000000   0.000000
    19  H   -0.000983   0.002523  -0.001530  -0.001026   0.000182  -0.000005
    20  H   -0.000983   0.002523  -0.001530  -0.001026   0.000182  -0.000005
    21  H    0.000002  -0.000069   0.001011   0.000366   0.000332   0.000452
    22  H    0.000000  -0.000010   0.000081  -0.000239  -0.000202   0.000410
    23  H    0.000005  -0.000028  -0.000909   0.000303  -0.000525   0.000008
              13         14         15         16         17         18
     1  Br  -0.000000   0.000002  -0.000023   0.000192   0.000004   0.000243
     2  C   -0.000005  -0.000455   0.003318  -0.000332  -0.000551  -0.000045
     3  C    0.000007   0.000265  -0.001371   0.000415   0.002450  -0.000218
     4  C    0.000301   0.008979  -0.029133   0.000066   0.000291  -0.000004
     5  C   -0.001736  -0.026713   0.101647   0.000076   0.000608  -0.000549
     6  C    0.000120   0.003695  -0.008153   0.000047  -0.000904   0.000524
     7  C    0.000006   0.000757  -0.005954  -0.000096   0.000291   0.000852
     8  C   -0.000350  -0.000710   0.007035  -0.000007  -0.000024  -0.000035
     9  C    0.006779   0.004814  -0.051154   0.000002   0.000079  -0.000004
    10  C    0.001204   0.021468  -0.027678   0.000000   0.000006   0.000001
    11  C   -0.002106  -0.048805   0.028373  -0.000000  -0.000002  -0.000000
    12  I    0.004103   0.000707  -0.000601   0.000000  -0.000000   0.000000
    13  C   -0.104383   0.028487  -0.006504   0.000000  -0.000016   0.000000
    14  C    0.028487   0.314283  -0.099039  -0.000000  -0.000361   0.000001
    15  C   -0.006504  -0.099039   0.170541   0.000001   0.000716   0.000077
    16  H    0.000000  -0.000000   0.000001   0.002973   0.000154  -0.000000
    17  H   -0.000016  -0.000361   0.000716   0.000154  -0.011580  -0.000000
    18  H    0.000000   0.000001   0.000077  -0.000000  -0.000000  -0.003383
    19  H   -0.000021  -0.000063   0.000794   0.000000  -0.000000  -0.000008
    20  H   -0.000021  -0.000063   0.000794   0.000000  -0.000000  -0.000008
    21  H   -0.000367   0.000062  -0.000652   0.000000  -0.000000   0.000000
    22  H    0.000172   0.000422   0.000073  -0.000000  -0.000000   0.000000
    23  H    0.002355   0.000428   0.000495  -0.000000  -0.000187  -0.000000
              19         20         21         22         23
     1  Br  -0.000003  -0.000003   0.000000   0.000000  -0.000000
     2  C    0.000172   0.000172  -0.000000  -0.000000  -0.000002
     3  C   -0.000017  -0.000017   0.000000   0.000000  -0.000016
     4  C   -0.000069  -0.000068   0.000001  -0.000000  -0.000357
     5  C    0.000719   0.000719   0.000067  -0.000008   0.000771
     6  C   -0.001672  -0.001672   0.000009   0.000004   0.000081
     7  C   -0.000983  -0.000983   0.000002   0.000000   0.000005
     8  C    0.002523   0.002523  -0.000069  -0.000010  -0.000028
     9  C   -0.001530  -0.001530   0.001011   0.000081  -0.000909
    10  C   -0.001026  -0.001026   0.000366  -0.000239   0.000303
    11  C    0.000182   0.000182   0.000332  -0.000202  -0.000525
    12  I   -0.000005  -0.000005   0.000452   0.000410   0.000008
    13  C   -0.000021  -0.000021  -0.000367   0.000172   0.002355
    14  C   -0.000063  -0.000063   0.000062   0.000422   0.000428
    15  C    0.000794   0.000794  -0.000652   0.000073   0.000495
    16  H    0.000000   0.000000   0.000000  -0.000000  -0.000000
    17  H   -0.000000  -0.000000  -0.000000  -0.000000  -0.000187
    18  H   -0.000008  -0.000008   0.000000   0.000000  -0.000000
    19  H    0.004779  -0.000850  -0.000009   0.000000  -0.000000
    20  H   -0.000850   0.004779  -0.000009   0.000000  -0.000000
    21  H   -0.000009  -0.000009  -0.004542  -0.000004  -0.000000
    22  H    0.000000   0.000000  -0.000004   0.002618   0.000162
    23  H   -0.000000  -0.000000  -0.000000   0.000162  -0.011312
 Mulliken charges and spin densities:
               1          2
     1  Br  -0.193526   0.004503
     2  C    0.164745   0.213244
     3  C   -0.144760  -0.075196
     4  C   -0.318524   0.211817
     5  C    0.084257   0.062297
     6  C   -0.039425   0.027716
     7  C   -0.392604   0.041903
     8  C    0.093184  -0.000243
     9  C   -0.033444   0.020785
    10  C   -0.429634   0.057276
    11  C    0.154598   0.225303
    12  I   -0.148681   0.001676
    13  C   -0.184600  -0.071976
    14  C   -0.314108   0.208162
    15  C    0.081806   0.083602
    16  H    0.084240   0.003494
    17  H    0.070084  -0.009028
    18  H    0.075813  -0.002557
    19  H    0.076095   0.002912
    20  H    0.076095   0.002912
    21  H    0.081642  -0.003352
    22  H    0.087389   0.003480
    23  H    0.069357  -0.008729
 Sum of Mulliken charges =  -1.00000   1.00000
 Mulliken charges and spin densities with hydrogens summed into heavy atoms:
               1          2
     1  Br  -0.193526   0.004503
     2  C    0.164745   0.213244
     3  C   -0.060520  -0.071702
     4  C   -0.248439   0.202789
     5  C    0.084257   0.062297
     6  C   -0.039425   0.027716
     7  C   -0.316791   0.039345
     8  C    0.245374   0.005582
     9  C   -0.033444   0.020785
    10  C   -0.347992   0.053924
    11  C    0.154598   0.225303
    12  I   -0.148681   0.001676
    13  C   -0.097211  -0.068496
    14  C   -0.244750   0.199432
    15  C    0.081806   0.083602
 Electronic spatial extent (au):  <R**2>=           8961.1697
 Charge=             -1.0000 electrons
 Dipole moment (field-independent basis, Debye):
    X=             -2.1369    Y=             -1.0777    Z=             -0.0000  Tot=              2.3933
 Quadrupole moment (field-independent basis, Debye-Ang):
   XX=           -203.0477   YY=           -122.4971   ZZ=           -130.2618
   XY=              0.1504   XZ=             -0.0000   YZ=             -0.0000
 Traceless Quadrupole moment (field-independent basis, Debye-Ang):
   XX=            -51.1122   YY=             29.4385   ZZ=             21.6737
   XY=              0.1504   XZ=             -0.0000   YZ=             -0.0000
 Octapole moment (field-independent basis, Debye-Ang**2):
  XXX=           -185.2392  YYY=            -22.5351  ZZZ=             -0.0002  XYY=            -19.7622
  XXY=              4.9402  XXZ=             -0.0001  XZZ=            -23.4873  YZZ=            -13.2522
  YYZ=             -0.0001  XYZ=             -0.0000
 Hexadecapole moment (field-independent basis, Debye-Ang**3):
 XXXX=         -12466.1513 YYYY=           -863.2063 ZZZZ=           -174.2321 XXXY=             43.9781
 XXXZ=              0.0000 YYYX=             -8.3575 YYYZ=              0.0001 ZZZX=             -0.0002
 ZZZY=             -0.0000 XXYY=          -1911.4538 XXZZ=          -1873.1676 YYZZ=           -190.2200
 XXYZ=              0.0000 YYXZ=             -0.0001 ZZXY=             -5.8724
 N-N= 1.312368863972D+03 E-N=-1.058916147091D+04  KE= 3.182286930852D+03
 StAtR1:  DoIntr=F IAtCor=3 NETot=     146 Failed=F Sum=  2.80D+01 SumC=  0.00D+00
 There are a total of      557608 grid points.
 ElSum from          density=      147.0000495636
 ElSum from atomic densities=      174.0001285783

 Hirshfeld populations at iteration   1 (CX, CA, CB, DipXYZ):
               1          2          3          4          5          6
     1  Br   0.000000  17.590134  17.563529  -0.207781   0.044938   0.000000
     2  C    0.000000   3.106026   2.951298   0.042863  -0.020544  -0.000000
     3  C    0.000000   3.031172   3.047123   0.015913   0.031895  -0.000000
     4  C    0.000000   3.113405   2.983487  -0.042819   0.014925   0.000000
     5  C    0.000000   3.066591   2.981901  -0.001767   0.028954   0.000000
     6  C    0.000000   3.026548   2.990465  -0.052958  -0.042761   0.000000
     7  C    0.000000   3.071186   3.024927   0.002084  -0.029443  -0.000000
     8  C    0.000000   3.031638   3.025757  -0.000003   0.004489  -0.000001
     9  C    0.000000   3.025723   2.992198   0.052713  -0.043688   0.000000
    10  C    0.000000   3.077225   3.019570  -0.003039  -0.025287   0.000000
    11  C    0.000000   3.115714   2.951946  -0.047270  -0.020350  -0.000000
    12  I    0.000009  12.596250  12.569786   0.231245   0.043251   0.000000
    13  C    0.000000   3.032039   3.044595  -0.014429   0.029095  -0.000000
    14  C    0.000000   3.112993   2.985140   0.044745   0.012292  -0.000000
    15  C    0.000000   3.074033   2.976794   0.002499   0.029433   0.000000
    16  H    0.000000   0.487999   0.489120   0.082155   0.118192  -0.000000
    17  H    0.000000   0.497007   0.484959  -0.044473   0.135475   0.000000
    18  H    0.000000   0.492281   0.487895   0.025903  -0.139111  -0.000000
    19  H    0.000000   0.485808   0.482900  -0.001124  -0.080427   0.114544
    20  H    0.000000   0.485808   0.482900  -0.001124  -0.080429  -0.114543
    21  H    0.000001   0.494004   0.488646  -0.026638  -0.135687  -0.000000
    22  H    0.000001   0.489098   0.489824  -0.075509   0.118930   0.000000
    23  H    0.000000   0.497344   0.485264   0.048071   0.133923  -0.000000
       Tot   0.000011  74.000026  73.000024   0.029258   0.128062  -0.000000

 Dip from Atomic Chgs             -0.870100  -0.552122  -0.000001
         Total Dipole             -0.840842  -0.424059  -0.000001

 Hirshfeld charges, spin densities, dipoles, and CM5 charges using IRadAn=      5:
              Q-H        S-H        Dx         Dy         Dz        Q-CM5   
     1  Br  -0.153663   0.026606  -0.207781   0.044938   0.000000  -0.138730
     2  C   -0.057324   0.154728   0.042863  -0.020544  -0.000000  -0.078657
     3  C   -0.078295  -0.015952   0.015913   0.031895  -0.000000  -0.132201
     4  C   -0.096892   0.129918  -0.042819   0.014925   0.000000  -0.149443
     5  C   -0.048492   0.084690  -0.001767   0.028954   0.000000  -0.053412
     6  C   -0.017013   0.036083  -0.052958  -0.042761   0.000000  -0.027433
     7  C   -0.096114   0.046259   0.002084  -0.029443  -0.000000  -0.147313
     8  C   -0.057395   0.005880  -0.000003   0.004489  -0.000001  -0.153376
     9  C   -0.017921   0.033525   0.052713  -0.043688   0.000000  -0.028415
    10  C   -0.096795   0.057655  -0.003039  -0.025287   0.000000  -0.148938
    11  C   -0.067659   0.163768  -0.047270  -0.020350  -0.000000  -0.098358
    12  I   -0.166035   0.026464   0.231245   0.043251   0.000000  -0.139252
    13  C   -0.076634  -0.012556  -0.014429   0.029095  -0.000000  -0.131484
    14  C   -0.098133   0.127852   0.044745   0.012292  -0.000000  -0.150752
    15  C   -0.050827   0.097239   0.002499   0.029433   0.000000  -0.055761
    16  H    0.022881  -0.001121   0.082155   0.118192  -0.000000   0.080150
    17  H    0.018034   0.012048  -0.044473   0.135475   0.000000   0.074879
    18  H    0.019825   0.004386   0.025903  -0.139111  -0.000000   0.077385
    19  H    0.031292   0.002908  -0.001124  -0.080427   0.114544   0.086993
    20  H    0.031292   0.002908  -0.001124  -0.080429  -0.114543   0.086994
    21  H    0.017350   0.005358  -0.026638  -0.135687  -0.000000   0.074716
    22  H    0.021078  -0.000725  -0.075509   0.118930   0.000000   0.078142
    23  H    0.017392   0.012081   0.048071   0.133923  -0.000000   0.074218
       Tot  -1.000050   1.000002   0.029258   0.128062  -0.000000  -1.000050
 Hirshfeld charges and spin densities with hydrogens summed into heavy atoms:
              Q-H        S-H       Q-CM5   
     1  Br  -0.153663   0.026606  -0.138730
     2  C   -0.057324   0.154728  -0.078657
     3  C   -0.055414  -0.017072  -0.052051
     4  C   -0.078858   0.141966  -0.074564
     5  C   -0.048492   0.084690  -0.053412
     6  C   -0.017013   0.036083  -0.027433
     7  C   -0.076289   0.050645  -0.069927
     8  C    0.005188   0.011696   0.020611
     9  C   -0.017921   0.033525  -0.028415
    10  C   -0.079445   0.063013  -0.074223
    11  C   -0.067659   0.163768  -0.098358
    12  I   -0.166035   0.026464  -0.139252
    13  C   -0.055556  -0.013281  -0.053343
    14  C   -0.080741   0.139933  -0.076534
    15  C   -0.050827   0.097239  -0.055761
 
 EQQ= 0.801438840341E-01 EQD=-0.274204734591E-01 EDD= 0.299206871307E-02
 EQQ+QD+DD= 0.557154792881E-01
 
                          Isotropic Fermi Contact Couplings
        Atom                 a.u.       MegaHertz       Gauss      10(-4) cm-1
     1  Br(79)            -0.00222      -2.49396      -0.88991      -0.83190
     2  C(13)              0.01922      21.60845       7.71043       7.20780
     3  C(13)             -0.01615     -18.15146      -6.47689      -6.05468
     4  C(13)              0.00856       9.62682       3.43509       3.21116
     5  C(13)             -0.00603      -6.78374      -2.42061      -2.26281
     6  C(13)             -0.00320      -3.60097      -1.28492      -1.20116
     7  C(13)             -0.00587      -6.60155      -2.35560      -2.20204
     8  C(13)             -0.00228      -2.56257      -0.91439      -0.85478
     9  C(13)             -0.00459      -5.16381      -1.84258      -1.72246
    10  C(13)             -0.00492      -5.53217      -1.97402      -1.84533
    11  C(13)              0.02009      22.58478       8.05881       7.53347
    12  I(127)            -0.00000      -0.00001      -0.00000      -0.00000
    13  C(13)             -0.01587     -17.84408      -6.36721      -5.95214
    14  C(13)              0.00765       8.59968       3.06858       2.86855
    15  C(13)             -0.00384      -4.31157      -1.53848      -1.43819
    16  H(1)               0.00105       4.68974       1.67342       1.56433
    17  H(1)              -0.00300     -13.42464      -4.79025      -4.47798
    18  H(1)              -0.00069      -3.07566      -1.09747      -1.02593
    19  H(1)               0.00185       8.28570       2.95654       2.76381
    20  H(1)               0.00185       8.28554       2.95649       2.76376
    21  H(1)              -0.00093      -4.16379      -1.48575      -1.38889
    22  H(1)               0.00100       4.45885       1.59103       1.48731
    23  H(1)              -0.00291     -12.98630      -4.63384      -4.33176
 --------------------------------------------------------
       Center         ----  Spin Dipole Couplings  ----
                      3XX-RR        3YY-RR        3ZZ-RR
 --------------------------------------------------------
     1   Atom       -0.188920     -0.017599      0.206519
     2   Atom       -0.142950     -0.156321      0.299272
     3   Atom        0.043530      0.041961     -0.085490
     4   Atom       -0.110292     -0.109943      0.220235
     5   Atom       -0.050533     -0.064243      0.114777
     6   Atom       -0.014089     -0.019571      0.033660
     7   Atom       -0.023326     -0.025641      0.048967
     8   Atom       -0.000714     -0.000001      0.000716
     9   Atom       -0.008629     -0.015041      0.023669
    10   Atom       -0.033241     -0.035174      0.068415
    11   Atom       -0.140737     -0.160022      0.300759
    12   Atom        0.000210     -0.004539      0.004329
    13   Atom        0.041839      0.039958     -0.081797
    14   Atom       -0.106470     -0.106439      0.212909
    15   Atom       -0.064724     -0.078036      0.142760
    16   Atom        0.002672      0.001531     -0.004203
    17   Atom       -0.011225      0.011447     -0.000222
    18   Atom       -0.002302      0.004250     -0.001948
    19   Atom        0.000420      0.001840     -0.002260
    20   Atom        0.000420      0.001840     -0.002260
    21   Atom       -0.003243      0.005104     -0.001861
    22   Atom        0.002902      0.001370     -0.004273
    23   Atom       -0.010514      0.010837     -0.000323
 --------------------------------------------------------
                        XY            XZ            YZ
 --------------------------------------------------------
     1   Atom        0.041421     -0.000001     -0.000000
     2   Atom       -0.001475      0.000001     -0.000000
     3   Atom       -0.006485     -0.000000      0.000000
     4   Atom        0.000060      0.000000     -0.000000
     5   Atom        0.002765      0.000000     -0.000000
     6   Atom       -0.004654      0.000000     -0.000000
     7   Atom        0.002108      0.000000     -0.000000
     8   Atom       -0.000175     -0.000000      0.000000
     9   Atom        0.004943      0.000000      0.000000
    10   Atom       -0.002440     -0.000000     -0.000000
    11   Atom        0.001955     -0.000001      0.000001
    12   Atom        0.001089     -0.000000      0.000000
    13   Atom        0.006826      0.000000     -0.000000
    14   Atom       -0.000238     -0.000000      0.000001
    15   Atom       -0.002614     -0.000001      0.000000
    16   Atom       -0.003092     -0.000000     -0.000000
    17   Atom       -0.007332      0.000000      0.000000
    18   Atom       -0.003902     -0.000000      0.000000
    19   Atom       -0.000057      0.000005     -0.002010
    20   Atom       -0.000056     -0.000005      0.002010
    21   Atom        0.004820     -0.000000      0.000000
    22   Atom        0.002761      0.000000     -0.000000
    23   Atom        0.007874     -0.000000     -0.000000
 --------------------------------------------------------


 ---------------------------------------------------------------------------------
              Anisotropic Spin Dipole Couplings in Principal Axis System
 ---------------------------------------------------------------------------------

       Atom             a.u.   MegaHertz   Gauss  10(-4) cm-1        Axes

              Baa    -0.1984   -26.614    -9.497    -8.877  0.9747 -0.2233  0.0000
     1 Br(79) Bbb    -0.0081    -1.088    -0.388    -0.363  0.2233  0.9747  0.0000
              Bcc     0.2065    27.702     9.885     9.240 -0.0000 -0.0000  1.0000
 
              Baa    -0.1565   -20.998    -7.493    -7.004  0.1084  0.9941  0.0000
     2 C(13)  Bbb    -0.1428   -19.161    -6.837    -6.391  0.9941 -0.1084 -0.0000
              Bcc     0.2993    40.159    14.330    13.396  0.0000 -0.0000  1.0000
 
              Baa    -0.0855   -11.472    -4.093    -3.827  0.0000  0.0000  1.0000
     3 C(13)  Bbb     0.0362     4.859     1.734     1.621  0.6633  0.7484 -0.0000
              Bcc     0.0493     6.613     2.360     2.206  0.7484 -0.6633 -0.0000
 
              Baa    -0.1103   -14.802    -5.282    -4.937  0.9862 -0.1655 -0.0000
     4 C(13)  Bbb    -0.1099   -14.752    -5.264    -4.921  0.1655  0.9862  0.0000
              Bcc     0.2202    29.553    10.545     9.858  0.0000 -0.0000  1.0000
 
              Baa    -0.0648    -8.693    -3.102    -2.900 -0.1906  0.9817  0.0000
     5 C(13)  Bbb    -0.0500    -6.709    -2.394    -2.238  0.9817  0.1906 -0.0000
              Bcc     0.1148    15.402     5.496     5.138  0.0000 -0.0000  1.0000
 
              Baa    -0.0222    -2.983    -1.064    -0.995  0.4962  0.8682  0.0000
     6 C(13)  Bbb    -0.0114    -1.534    -0.547    -0.512  0.8682 -0.4962 -0.0000
              Bcc     0.0337     4.517     1.612     1.507  0.0000 -0.0000  1.0000
 
              Baa    -0.0269    -3.608    -1.287    -1.204 -0.5093  0.8606  0.0000
     7 C(13)  Bbb    -0.0221    -2.963    -1.057    -0.988  0.8606  0.5093 -0.0000
              Bcc     0.0490     6.571     2.345     2.192  0.0000 -0.0000  1.0000
 
              Baa    -0.0008    -0.101    -0.036    -0.034  0.9741  0.2261  0.0000
     8 C(13)  Bbb     0.0000     0.005     0.002     0.002 -0.2261  0.9741 -0.0001
              Bcc     0.0007     0.096     0.034     0.032 -0.0000  0.0001  1.0000
 
              Baa    -0.0177    -2.379    -0.849    -0.793 -0.4774  0.8787  0.0000
     9 C(13)  Bbb    -0.0059    -0.798    -0.285    -0.266  0.8787  0.4774 -0.0000
              Bcc     0.0237     3.176     1.133     1.059  0.0000  0.0000  1.0000
 
              Baa    -0.0368    -4.943    -1.764    -1.649  0.5621  0.8271  0.0000
    10 C(13)  Bbb    -0.0316    -4.238    -1.512    -1.414  0.8271 -0.5621  0.0000
              Bcc     0.0684     9.181     3.276     3.062 -0.0000 -0.0000  1.0000
 
              Baa    -0.1602   -21.500    -7.672    -7.172 -0.0999  0.9950 -0.0000
    11 C(13)  Bbb    -0.1405   -18.859    -6.729    -6.291  0.9950  0.0999  0.0000
              Bcc     0.3008    40.359    14.401    13.462 -0.0000  0.0000  1.0000
 
              Baa    -0.0048    -0.513    -0.183    -0.171 -0.2133  0.9770 -0.0000
    12 I(127) Bbb     0.0004     0.048     0.017     0.016  0.9770  0.2133  0.0000
              Bcc     0.0043     0.465     0.166     0.155 -0.0000  0.0000  1.0000
 
              Baa    -0.0818   -10.976    -3.917    -3.661 -0.0000  0.0000  1.0000
    13 C(13)  Bbb     0.0340     4.564     1.628     1.522 -0.6571  0.7538 -0.0000
              Bcc     0.0478     6.413     2.288     2.139  0.7538  0.6571 -0.0000
 
              Baa    -0.1067   -14.317    -5.109    -4.776  0.7296  0.6839 -0.0000
    14 C(13)  Bbb    -0.1062   -14.253    -5.086    -4.754 -0.6839  0.7296 -0.0000
              Bcc     0.2129    28.570    10.195     9.530 -0.0000  0.0000  1.0000
 
              Baa    -0.0785   -10.538    -3.760    -3.515  0.1860  0.9825 -0.0000
    15 C(13)  Bbb    -0.0642    -8.619    -3.075    -2.875  0.9825 -0.1860  0.0000
              Bcc     0.1428    19.157     6.836     6.390 -0.0000  0.0000  1.0000
 
              Baa    -0.0042    -2.242    -0.800    -0.748  0.0000  0.0000  1.0000
    16 H(1)   Bbb    -0.0010    -0.557    -0.199    -0.186  0.6397  0.7686 -0.0000
              Bcc     0.0052     2.799     0.999     0.934  0.7686 -0.6397 -0.0000
 
              Baa    -0.0134    -7.144    -2.549    -2.383  0.9591  0.2831 -0.0000
    17 H(1)   Bbb    -0.0002    -0.118    -0.042    -0.040  0.0000  0.0000  1.0000
              Bcc     0.0136     7.262     2.591     2.422 -0.2831  0.9591 -0.0000
 
              Baa    -0.0041    -2.199    -0.785    -0.733  0.9064  0.4225 -0.0000
    18 H(1)   Bbb    -0.0019    -1.039    -0.371    -0.347  0.0000 -0.0000  1.0000
              Bcc     0.0061     3.238     1.155     1.080 -0.4225  0.9064  0.0000
 
              Baa    -0.0031    -1.644    -0.587    -0.548  0.0047  0.3782  0.9257
    19 H(1)   Bbb     0.0004     0.224     0.080     0.075  0.9997  0.0206 -0.0135
              Bcc     0.0027     1.420     0.507     0.474 -0.0242  0.9255 -0.3780
 
              Baa    -0.0031    -1.644    -0.587    -0.548 -0.0047 -0.3782  0.9257
    20 H(1)   Bbb     0.0004     0.224     0.080     0.075  0.9997  0.0206  0.0135
              Bcc     0.0027     1.420     0.507     0.474 -0.0242  0.9255  0.3780
 
              Baa    -0.0054    -2.905    -1.037    -0.969  0.9096 -0.4156  0.0000
    21 H(1)   Bbb    -0.0019    -0.993    -0.354    -0.331 -0.0000  0.0000  1.0000
              Bcc     0.0073     3.898     1.391     1.300  0.4156  0.9096  0.0000
 
              Baa    -0.0043    -2.280    -0.813    -0.760 -0.0000  0.0000  1.0000
    22 H(1)   Bbb    -0.0007    -0.389    -0.139    -0.130 -0.6053  0.7960 -0.0000
              Bcc     0.0050     2.668     0.952     0.890  0.7960  0.6053 -0.0000
 
              Baa    -0.0131    -6.992    -2.495    -2.332  0.9499 -0.3124  0.0000
    23 H(1)   Bbb    -0.0003    -0.172    -0.061    -0.057 -0.0000  0.0000  1.0000
              Bcc     0.0134     7.164     2.556     2.390  0.3124  0.9499 -0.0000
 

 ---------------------------------------------------------------------------------

 Running external command "gaunbo6 R"
         input file       "/home/rpaton/arbr500/tzvp/fukui/Gau-2298513.EIn"
         output file      "/home/rpaton/arbr500/tzvp/fukui/Gau-2298513.EOu"
         message file     "/home/rpaton/arbr500/tzvp/fukui/Gau-2298513.EMs"
         fchk file        "/home/rpaton/arbr500/tzvp/fukui/Gau-2298513.EFC"
         mat. el file     "/home/rpaton/arbr500/tzvp/fukui/Gau-2298513.EUF"

 Writing WrtUnf unformatted file "/home/rpaton/arbr500/tzvp/fukui/Gau-2298513.EUF"
 Gaussian matrix elements                                         Version   2 NLab=11 Len12L=8 Len4L=8
 Write SHELL TO ATOM MAP                   from file      0 offset           0 length                 207 to matrix element file.
 Write SHELL TYPES                         from file      0 offset           0 length                 207 to matrix element file.
 Write NUMBER OF PRIMITIVES PER SHELL      from file      0 offset           0 length                 207 to matrix element file.
 Write PRIMITIVE EXPONENTS                 from file      0 offset           0 length                 378 to matrix element file.
 Write CONTRACTION COEFFICIENTS            from file      0 offset           0 length                 378 to matrix element file.
 Write P(S=P) CONTRACTION COEFFICIENTS     from file      0 offset           0 length                 378 to matrix element file.
 Write COORDINATES OF EACH SHELL           from file      0 offset           0 length                 621 to matrix element file.
 Write BONDS PER ATOM                      from file      0 offset           0 length                  23 to matrix element file.
 Write BONDED ATOMS                        from file      0 offset           0 length                  50 to matrix element file.
 Write BOND TYPES                          from file      0 offset           0 length                  50 to matrix element file.
 Write ONIOM CHARGE/MULT                   from file      0 offset           0 length                  32 to matrix element file.
 Write ONIOM ATOM LAYERS                   from file      0 offset           0 length                  23 to matrix element file.
 Write ONIOM ATOM MODIFIERS                from file      0 offset           0 length                  23 to matrix element file.
 Write ONIOM ATOM TYPES                    from file      0 offset           0 length                  23 to matrix element file.
 Write ONIOM LINK ATOMS                    from file      0 offset           0 length                  23 to matrix element file.
 Write ONIOM LINK CHARGES                  from file      0 offset           0 length                  23 to matrix element file.
 Write ONIOM LINK DISTANCES                from file      0 offset           0 length                  92 to matrix element file.
 Write SYMINF INTS                         from file      0 offset           0 length                  26 to matrix element file.
 Write ROTTR TO SO                         from file      0 offset           0 length                  12 to matrix element file.
 Write GAUSSIAN SCALARS                    from file    501 offset           0 to matrix element file.
 Write OPTIMIZATION FLAGS                  from file      0 offset           0 length                  23 to matrix element file.
 Write INTEGER ISO                         from file      0 offset           0 length                  23 to matrix element file.
 Write INTEGER SPIN                        from file      0 offset           0 length                  23 to matrix element file.
 Write REAL ZEFFECTIVE                     from file      0 offset           0 length                  23 to matrix element file.
 Write REAL QUADRUPOLEMOMENT               from file      0 offset           0 length                  23 to matrix element file.
 Write REAL GFACTOR                        from file      0 offset           0 length                  23 to matrix element file.
 Write REAL ZNUCLEAR                       from file      0 offset           0 length                  23 to matrix element file.
 Write MULLIKEN CHARGES                    from file      0 offset           0 length                  23 to matrix element file.
[...]
  231. RY (19) C  5             0.00000    15.59375
  232. RY (20) C  5             0.00000     2.30883
  233. RY (21) C  5             0.00000     5.16243
  234. RY (22) C  5             0.00000     3.40403
  235. RY (23) C  5             0.00000     6.76148
  236. RY (24) C  5             0.00000     4.40971
  237. RY (25) C  5             0.00000     3.21342
  238. RY (26) C  5             0.00000     3.48489
  239. RY ( 1) C  6             0.00216     1.95822
  240. RY ( 2) C  6             0.00109     1.70592
  241. RY ( 3) C  6             0.00099     0.85043
  242. RY ( 4) C  6             0.00035     2.51534
  243. RY ( 5) C  6             0.00025     2.67309
  244. RY ( 6) C  6             0.00017     3.48978
  245. RY ( 7) C  6             0.00016     3.22864
  246. RY ( 8) C  6             0.00010     3.06885
  247. RY ( 9) C  6             0.00007     2.25491
  248. RY (10) C  6             0.00006     3.19130
  249. RY (11) C  6             0.00004     3.50449
  250. RY (12) C  6             0.00003     2.49428
  251. RY (13) C  6             0.00002     3.80886
  252. RY (14) C  6             0.00001     2.53182
  253. RY (15) C  6             0.00001     2.64600
  254. RY (16) C  6             0.00001     3.23099
  255. RY (17) C  6             0.00001     3.39534
  256. RY (18) C  6             0.00000     3.71156
  257. RY (19) C  6             0.00000    16.94593
  258. RY (20) C  6             0.00000     3.54094
  259. RY (21) C  6             0.00000     4.04534
  260. RY (22) C  6             0.00000     6.52724
  261. RY (23) C  6             0.00000     3.23510
  262. RY (24) C  6             0.00000     3.39198
  263. RY (25) C  6             0.00000     3.91152
  264. RY (26) C  6             0.00000     2.12649
  265. RY ( 1) C  7             0.00220     1.56812
  266. RY ( 2) C  7             0.00115     1.46467
  267. RY ( 3) C  7             0.00068     0.72325
  268. RY ( 4) C  7             0.00043     1.90032
  269. RY ( 5) C  7             0.00019     1.99276
  270. RY ( 6) C  7             0.00018     3.01968
  271. RY ( 7) C  7             0.00009     2.67900
  272. RY ( 8) C  7             0.00006     2.24030
  273. RY ( 9) C  7             0.00004     1.99455
  274. RY (10) C  7             0.00002     3.39166
  275. RY (11) C  7             0.00002     1.62230
  276. RY (12) C  7             0.00001     3.81044
  277. RY (13) C  7             0.00001     3.54860
  278. RY (14) C  7             0.00001     2.92596
  279. RY (15) C  7             0.00000     2.61791
  280. RY (16) C  7             0.00000     2.29378
  281. RY (17) C  7             0.00000     4.97498
  282. RY (18) C  7             0.00000     3.80864
  283. RY (19) C  7             0.00000     3.44821
  284. RY (20) C  7             0.00000     3.33760
  285. RY (21) C  7             0.00000     3.31296
  286. RY (22) C  7             0.00000    14.65881
  287. RY (23) C  7             0.00000     3.21263
  288. RY (24) C  7             0.00000     4.42165
  289. RY (25) C  7             0.00000     6.86370
  290. RY (26) C  7             0.00000     3.09715
  291. RY ( 1) C  8             0.00108     1.51722
  292. RY ( 2) C  8             0.00059     1.31524
  293. RY ( 3) C  8             0.00040     1.33727
  294. RY ( 4) C  8             0.00027     1.86093
  295. RY ( 5) C  8             0.00023     2.24709
  296. RY ( 6) C  8             0.00013     2.58224
  297. RY ( 7) C  8             0.00009     2.24896
  298. RY ( 8) C  8             0.00006     1.82778
  299. RY ( 9) C  8             0.00003     2.22173
  300. RY (10) C  8             0.00002     2.05734
  301. RY (11) C  8             0.00001     2.65424
  302. RY (12) C  8             0.00001     2.97563
  303. RY (13) C  8             0.00001     3.09545
  304. RY (14) C  8             0.00001     4.32533
  305. RY (15) C  8             0.00001     3.39209
  306. RY (16) C  8             0.00000     2.48487
  307. RY (17) C  8             0.00000     3.55625
  308. RY (18) C  8             0.00000     2.95227
  309. RY (19) C  8             0.00000    10.27942
  310. RY (20) C  8             0.00000     3.42844
  311. RY (21) C  8             0.00000    13.29676
  312. RY (22) C  8             0.00000     3.38118
  313. RY (23) C  8             0.00000     3.56508
  314. RY (24) C  8             0.00000     4.50932
  315. RY (25) C  8             0.00000     3.82621
  316. RY (26) C  8             0.00000     3.45792
  317. RY ( 1) C  9             0.00227     1.93200
  318. RY ( 2) C  9             0.00110     0.82270
  319. RY ( 3) C  9             0.00108     1.72912
  320. RY ( 4) C  9             0.00033     2.62436
  321. RY ( 5) C  9             0.00025     2.62155
  322. RY ( 6) C  9             0.00017     3.44436
  323. RY ( 7) C  9             0.00016     3.22702
  324. RY ( 8) C  9             0.00011     2.99774
  325. RY ( 9) C  9             0.00007     2.30892
  326. RY (10) C  9             0.00006     3.12917
  327. RY (11) C  9             0.00004     3.03883
  328. RY (12) C  9             0.00003     2.91533
  329. RY (13) C  9             0.00002     3.78682
  330. RY (14) C  9             0.00001     2.53840
  331. RY (15) C  9             0.00001     3.02911
  332. RY (16) C  9             0.00001     2.64351
  333. RY (17) C  9             0.00001     3.61225
  334. RY (18) C  9             0.00000     3.75246
  335. RY (19) C  9             0.00000     2.86850
  336. RY (20) C  9             0.00000     3.98835
  337. RY (21) C  9             0.00000     3.12996
  338. RY (22) C  9             0.00000     5.17384
  339. RY (23) C  9             0.00000     2.75067
  340. RY (24) C  9             0.00000     3.58469
  341. RY (25) C  9             0.00000     3.94932
  342. RY (26) C  9             0.00000    18.53222
  343. RY ( 1) C 10             0.00254     1.51427
  344. RY ( 2) C 10             0.00113     1.43536
  345. RY ( 3) C 10             0.00081     0.75982
  346. RY ( 4) C 10             0.00040     1.99491
  347. RY ( 5) C 10             0.00023     2.11837
  348. RY ( 6) C 10             0.00019     2.80091
  349. RY ( 7) C 10             0.00008     2.73118
  350. RY ( 8) C 10             0.00005     2.19894
  351. RY ( 9) C 10             0.00003     2.19735
  352. RY (10) C 10             0.00002     3.48055
  353. RY (11) C 10             0.00002     1.54033
  354. RY (12) C 10             0.00001     3.48300
  355. RY (13) C 10             0.00001     3.47603
  356. RY (14) C 10             0.00000     3.03835
  357. RY (15) C 10             0.00000     2.98152
  358. RY (16) C 10             0.00000    13.99591
  359. RY (17) C 10             0.00000     2.36305
  360. RY (18) C 10             0.00000     4.07073
  361. RY (19) C 10             0.00000     3.22220
  362. RY (20) C 10             0.00000     4.62863
  363. RY (21) C 10             0.00000     3.35733
  364. RY (22) C 10             0.00000     3.10722
  365. RY (23) C 10             0.00000     3.16221
  366. RY (24) C 10             0.00000     4.80707
  367. RY (25) C 10             0.00000     7.60291
  368. RY (26) C 10             0.00000     3.15261
  369. RY ( 1) C 11             0.00244     1.78680
  370. RY ( 2) C 11             0.00134     1.30234
  371. RY ( 3) C 11             0.00088     0.91979
  372. RY ( 4) C 11             0.00028     1.29331
  373. RY ( 5) C 11             0.00027     2.86755
  374. RY ( 6) C 11             0.00025     1.50632
  375. RY ( 7) C 11             0.00019     1.48364
  376. RY ( 8) C 11             0.00013     3.59654
  377. RY ( 9) C 11             0.00009     3.22445
  378. RY (10) C 11             0.00005     2.77428
  379. RY (11) C 11             0.00001     3.13032
  380. RY (12) C 11             0.00001     3.50537
  381. RY (13) C 11             0.00000     2.16772
  382. RY (14) C 11             0.00000     3.25778
  383. RY (15) C 11             0.00000     3.00265
  384. RY (16) C 11             0.00000     2.35589
  385. RY (17) C 11             0.00000     4.45203
  386. RY (18) C 11             0.00000    14.87389
  387. RY (19) C 11             0.00000     3.86473
  388. RY (20) C 11             0.00000     3.32943
  389. RY (21) C 11             0.00000     3.77445
  390. RY (22) C 11             0.00000     3.94449
  391. RY (23) C 11             0.00000     4.81928
  392. RY (24) C 11             0.00000     3.63372
  393. RY (25) C 11             0.00000     3.37967
  394. RY (26) C 11             0.00000     3.25849
  395. RY ( 1) I 12             0.00223     0.77243
  396. RY ( 2) I 12             0.00061     1.00813
  397. RY ( 3) I 12             0.00015     0.91080
  398. RY ( 4) I 12             0.00014     1.26484
  399. RY ( 5) I 12             0.00010     0.54357
  400. RY ( 6) I 12             0.00002     0.88993
  401. RY ( 7) I 12             0.00001     1.71819
  402. RY ( 8) I 12             0.00001     1.25744
  403. RY ( 9) I 12             0.00000     1.23812
  404. RY (10) I 12             0.00000     1.70517
  405. RY (11) I 12             0.00000     1.79075
  406. RY (12) I 12             0.00000     1.68053
  407. RY (13) I 12             0.00000    21.97948
  408. RY (14) I 12             0.00000     2.30751
  409. RY (15) I 12             0.00000    30.93967
  410. RY (16) I 12             0.00000    15.86803
  411. RY (17) I 12             0.00000     1.41333
  412. RY (18) I 12             0.00000    17.15151
  413. RY (19) I 12             0.00000   101.25626
  414. RY (20) I 12             0.00000     9.86939
  415. RY (21) I 12             0.00000     0.97566
  416. RY (22) I 12             0.00000     1.98827
  417. RY (23) I 12             0.00000     1.91617
  418. RY (24) I 12             0.00000    24.86868
  419. RY (25) I 12             0.00000    34.99643
  420. RY (26) I 12             0.00000     1.53120
  421. RY (27) I 12             0.00000     3.43566
  422. RY (28) I 12             0.00000     4.46164
  423. RY (29) I 12             0.00000     8.59751
  424. RY (30) I 12             0.00000     4.10304
  425. RY (31) I 12             0.00000     4.06466
  426. RY (32) I 12             0.00000     2.65458
  427. RY (33) I 12             0.00000     1.92645
  428. RY (34) I 12             0.00000     2.27432
  429. RY (35) I 12             0.00000     2.45833
  430. RY (36) I 12             0.00000     1.90663
  431. RY (37) I 12             0.00000     3.41248
  432. RY ( 1) C 13             0.00263     1.52778
  433. RY ( 2) C 13             0.00093     1.37119
  434. RY ( 3) C 13             0.00086     0.79430
  435. RY ( 4) C 13             0.00033     1.88167
  436. RY ( 5) C 13             0.00021     2.55732
  437. RY ( 6) C 13             0.00021     2.03503
  438. RY ( 7) C 13             0.00005     2.86122
  439. RY ( 8) C 13             0.00003     3.21179
  440. RY ( 9) C 13             0.00002     2.19816
  441. RY (10) C 13             0.00002     2.54829
  442. RY (11) C 13             0.00001     3.83423
  443. RY (12) C 13             0.00000     3.82188
  444. RY (13) C 13             0.00000     3.21671
  445. RY (14) C 13             0.00000    13.25653
  446. RY (15) C 13             0.00000     1.88951
  447. RY (16) C 13             0.00000     3.39229
  448. RY (17) C 13             0.00000     3.01524
  449. RY (18) C 13             0.00000     3.63536
  450. RY (19) C 13             0.00000     3.38851
  451. RY (20) C 13             0.00000     4.19634
  452. RY (21) C 13             0.00000     3.42427
  453. RY (22) C 13             0.00000     5.02768
  454. RY (23) C 13             0.00000     7.16922
  455. RY (24) C 13             0.00000     2.43309
  456. RY (25) C 13             0.00000     2.61274
  457. RY (26) C 13             0.00000     3.68221
  458. RY ( 1) C 14             0.00197     1.82291
  459. RY ( 2) C 14             0.00071     1.75837
  460. RY ( 3) C 14             0.00067     0.72084
  461. RY ( 4) C 14             0.00034     1.85991
  462. RY ( 5) C 14             0.00017     3.12449
  463. RY ( 6) C 14             0.00013     3.34450
  464. RY ( 7) C 14             0.00006     2.52388
  465. RY ( 8) C 14             0.00005     1.71253
  466. RY ( 9) C 14             0.00004     2.01636
  467. RY (10) C 14             0.00002     2.64640
  468. RY (11) C 14             0.00001     3.42126
  469. RY (12) C 14             0.00001     2.44220
  470. RY (13) C 14             0.00001     2.87482
  471. RY (14) C 14             0.00000     3.78001
  472. RY (15) C 14             0.00000     2.18451
  473. RY (16) C 14             0.00000     4.17276
  474. RY (17) C 14             0.00000     2.12043
  475. RY (18) C 14             0.00000     3.08714
  476. RY (19) C 14             0.00000    17.74466
  477. RY (20) C 14             0.00000     3.39989
  478. RY (21) C 14             0.00000     3.60355
  479. RY (22) C 14             0.00000     4.80494
  480. RY (23) C 14             0.00000     3.25878
  481. RY (24) C 14             0.00000     3.35461
  482. RY (25) C 14             0.00000     3.76099
  483. RY (26) C 14             0.00000     4.04500
  484. RY ( 1) C 15             0.00259     1.70833
  485. RY ( 2) C 15             0.00168     2.00549
  486. RY ( 3) C 15             0.00076     0.81920
  487. RY ( 4) C 15             0.00030     2.23926
  488. RY ( 5) C 15             0.00020     2.67229
  489. RY ( 6) C 15             0.00017     2.89800
  490. RY ( 7) C 15             0.00016     3.07355
  491. RY ( 8) C 15             0.00014     4.04049
  492. RY ( 9) C 15             0.00009     3.28332
  493. RY (10) C 15             0.00006     3.92783
  494. RY (11) C 15             0.00005     2.56673
  495. RY (12) C 15             0.00004     2.34922
  496. RY (13) C 15             0.00003     2.11095
  497. RY (14) C 15             0.00001     4.07239
  498. RY (15) C 15             0.00001     3.87907
  499. RY (16) C 15             0.00001     2.75359
  500. RY (17) C 15             0.00000     2.68485
  501. RY (18) C 15             0.00000     4.12686
  502. RY (19) C 15             0.00000    14.65114
  503. RY (20) C 15             0.00000     2.27345
  504. RY (21) C 15             0.00000     4.78020
  505. RY (22) C 15             0.00000     3.29837
  506. RY (23) C 15             0.00000     7.19903
  507. RY (24) C 15             0.00000     5.23142
  508. RY (25) C 15             0.00000     3.35257
  509. RY (26) C 15             0.00000     3.51862
  510. RY ( 1) H 16             0.00035     0.70124
  511. RY ( 2) H 16             0.00008     2.33237
  512. RY ( 3) H 16             0.00005     2.27353
  513. RY ( 4) H 16             0.00004     2.66794
  514. RY ( 5) H 16             0.00000     3.15025
  515. RY ( 1) H 17             0.00033     0.81435
  516. RY ( 2) H 17             0.00006     2.36756
  517. RY ( 3) H 17             0.00005     2.22002
  518. RY ( 4) H 17             0.00003     2.75493
  519. RY ( 5) H 17             0.00000     3.20961
  520. RY ( 1) H 18             0.00049     0.73318
  521. RY ( 2) H 18             0.00007     2.35857
  522. RY ( 3) H 18             0.00005     2.30571
  523. RY ( 4) H 18             0.00004     2.67482
  524. RY ( 5) H 18             0.00000     3.19854
  525. RY ( 1) H 19             0.00036     1.02228
  526. RY ( 2) H 19             0.00007     2.59758
  527. RY ( 3) H 19             0.00004     2.45728
  528. RY ( 4) H 19             0.00001     2.46176
  529. RY ( 5) H 19             0.00000     2.66789
  530. RY ( 1) H 20             0.00036     1.02228
  531. RY ( 2) H 20             0.00007     2.59758
  532. RY ( 3) H 20             0.00004     2.45728
  533. RY ( 4) H 20             0.00001     2.46174
  534. RY ( 5) H 20             0.00000     2.66790
  535. RY ( 1) H 21             0.00055     0.73314
  536. RY ( 2) H 21             0.00008     2.35623
  537. RY ( 3) H 21             0.00005     2.39277
  538. RY ( 4) H 21             0.00003     2.62348
  539. RY ( 5) H 21             0.00000     3.19988
  540. RY ( 1) H 22             0.00040     0.72685
  541. RY ( 2) H 22             0.00008     2.32950
  542. RY ( 3) H 22             0.00005     2.29793
  543. RY ( 4) H 22             0.00004     2.66395
  544. RY ( 5) H 22             0.00000     3.15010
  545. RY ( 1) H 23             0.00032     0.83424
  546. RY ( 2) H 23             0.00007     2.36792
  547. RY ( 3) H 23             0.00005     2.20087
  548. RY ( 4) H 23             0.00003     2.75720
  549. RY ( 5) H 23             0.00000     3.20956
          -------------------------------
                 Total Lewis   85.59635  ( 98.3866%)
           Valence non-Lewis    1.32450  (  1.5224%)
           Rydberg non-Lewis    0.07915  (  0.0910%)
          -------------------------------
               Total unit  1   87.00000  (100.0000%)
              Charge unit  1    0.00000

 $CHOOSE
  ALPHA
   LONE 1 3 2 1 11 1 12 3 END
   BOND S 1 2 S 2 3 S 2 7 D 3 4 S 3 16 S 4 5 S 4 17 S 5 6 D 5 15 D 6 7 S 6 8
        S 7 18 S 8 9 S 8 19 S 8 20 D 9 10 S 9 15 S 10 11 S 10 21 S 11 12
        S 11 13 D 13 14 S 13 22 S 14 15 S 14 23 END
  END
  BETA
   LONE 1 3 12 3 END
   BOND S 1 2 S 2 3 D 2 7 D 3 4 S 3 16 S 4 5 S 4 17 D 5 6 S 5 15 S 6 7 S 6 8
        S 7 18 S 8 9 S 8 19 S 8 20 S 9 10 D 9 15 D 10 11 S 10 21 S 11 12
        S 11 13 D 13 14 S 13 22 S 14 15 S 14 23 END
  END
 $END

 NBO analysis completed in 16.45 CPU seconds (17 wall seconds)
 Maximum scratch memory used by NBO was 3231209 words (24.65 MB)
 Maximum scratch memory used by G16NBO was 614283 words (4.69 MB)

 Opening RunExU unformatted file "/home/rpaton/arbr500/tzvp/fukui/Gau-2298513.EUF"
 Read unf file /home/rpaton/arbr500/tzvp/fukui/Gau-2298513.EUF:
 Label Gaussian matrix elements                                         IVers= 2 NLab= 2 Version=ES64L-G16RevC.01
 Title arbr35_wb97xd_redcreated by GaussianPrep                        
 NAtoms=    23 NBasis=   549 NBsUse=   549 ICharg=    -1 Multip=     2 NE=   147 Len12L=8 Len4L=8 IOpCl= 1 ICGU=112
 GAUSSIAN SCALARS                    NI= 1 NR= 1 NTot=       1 LenBuf=    2 NRI=1 N=    1000
 NPA CHARGES                         NI= 0 NR= 1 NTot=      23 LenBuf= 2048 NRI=1 N=      23
 Recovered energy= -3372.21733007     dipole=     -0.840729628304     -0.423988821264     -0.000000961218
 Unable to Open any file for archive entry.
 1\1\GINC-DYNAMO\SP\UwB97XD\def2TZVP\C13H8Br1I1(1-,2)\RPATON\28-Sep-202
 4\0\\# pop=(nbo6,hirshfeld) wb97xd/def2tzvp\\arbr35_wb97xd_redcreated 
 by GaussianPrep\\-1,2\Br,0,5.886194,-0.308653,-0.000003\C,0,4.032178,0
 .086996,0.000001\C,0,3.625638,1.41484,0.000001\C,0,2.273431,1.718984,0
 .000004\C,0,1.348877,0.68652,0.000004\C,0,1.774122,-0.644528,0.000002\
 C,0,3.119543,-0.957789,0.\C,0,0.586907,-1.572513,0.000005\C,0,-0.57571
 4,-0.613558,0.000004\C,0,-1.929071,-0.891107,0.000003\C,0,-2.820108,0.
 174766,0.000001\I,0,-4.877713,-0.20894,-0.000002\C,0,-2.37293,1.491477
 ,-0.000001\C,0,-1.013073,1.761246,-0.000001\C,0,-0.115505,0.705597,0.0
 00003\H,0,4.364849,2.203878,0.\H,0,1.955037,2.754079,0.000005\H,0,3.46
 0028,-1.98491,-0.000002\H,0,0.578557,-2.22164,0.879233\H,0,0.578555,-2
 .221649,-0.879215\H,0,-2.287702,-1.912338,0.000002\H,0,-3.084714,2.305
 668,-0.000001\H,0,-0.668349,2.787972,-0.000003\\Version=ES64L-G16RevC.
 01\State=2-A\HF=-3372.2173301\S2=0.775737\S2-1=0.\S2A=0.750434\RMSD=5.
 602e-09\Dipole=-0.8407296,-0.4239888,-0.000001\Quadrupole=-38.0006628,
 21.8867667,16.1138961,0.1118471,-0.0000001,-0.0000038\PG=C01 [X(C13H8B
 r1I1)]\\@
 The archive entry for this job was punched.


 TO DRY ONE'S EYES AND LAUGH AT A FALL
 AND BAFFLED, GET UP AND BEGIN AGAIN.
           R. BROWNING
 Job cpu time:       0 days  3 hours 16 minutes 12.6 seconds.
 Elapsed time:       0 days  0 hours  8 minutes 13.8 seconds.
 File lengths (MBytes):  RWF=    294 Int=      0 D2E=      0 Chk=     22 Scr=      1
 Normal termination of Gaussian 16 at Sat Sep 28 22:48:41 2024.
