 Entering Gaussian System, Link 0=/usr/local/Gaussian/G16C/g16/g16
 Input=arbr32_wb97xd_red.com
 Output=arbr32_wb97xd_red.log
 Initial command:
 /usr/local/Gaussian/G16C/g16/l1.exe "/home/rpaton/arbr500/tzvp/fukui/Gau-2243463.inp" -scrdir="/home/rpaton/arbr500/tzvp/fukui/"
 Entering Link 1 = /usr/local/Gaussian/G16C/g16/l1.exe PID=   2243464.
  
 Copyright (c) 1988-2019, Gaussian, Inc.  All Rights Reserved.
  
 This is part of the Gaussian(R) 16 program.  It is based on
 the Gaussian(R) 09 system (copyright 2009, Gaussian, Inc.),
 the Gaussian(R) 03 system (copyright 2003, Gaussian, Inc.),
 the Gaussian(R) 98 system (copyright 1998, Gaussian, Inc.),
 the Gaussian(R) 94 system (copyright 1995, Gaussian, Inc.),
 the Gaussian 92(TM) system (copyright 1992, Gaussian, Inc.),
 the Gaussian 90(TM) system (copyright 1990, Gaussian, Inc.),
 the Gaussian 88(TM) system (copyright 1988, Gaussian, Inc.),
 the Gaussian 86(TM) system (copyright 1986, Carnegie Mellon
 University), and the Gaussian 82(TM) system (copyright 1983,
 Carnegie Mellon University). Gaussian is a federally registered
 trademark of Gaussian, Inc.
  
 This software contains proprietary and confidential information,
 including trade secrets, belonging to Gaussian, Inc.
  
 This software is provided under written license and may be
 used, copied, transmitted, or stored only in accord with that
 written license.
  
 The following legend is applicable only to US Government
 contracts under FAR:
  
                    RESTRICTED RIGHTS LEGEND
  
 Use, reproduction and disclosure by the US Government is
 subject to restrictions as set forth in subparagraphs (a)
 and (c) of the Commercial Computer Software - Restricted
 Rights clause in FAR 52.227-19.
  
 Gaussian, Inc.
 340 Quinnipiac St., Bldg. 40, Wallingford CT 06492
  
  
 ---------------------------------------------------------------
 Warning -- This program may not be used in any manner that
 competes with the business of Gaussian, Inc. or will provide
 assistance to any competitor of Gaussian, Inc.  The licensee
 of this program is prohibited from giving any competitor of
 Gaussian, Inc. access to this program.  By using this program,
 the user acknowledges that Gaussian, Inc. is engaged in the
 business of creating and licensing software in the field of
 computational chemistry and represents and warrants to the
 licensee that it is not a competitor of Gaussian, Inc. and that
 it will not use this program in any manner prohibited above.
 ---------------------------------------------------------------
  

 Cite this work as:
 Gaussian 16, Revision C.01,
 M. J. Frisch, G. W. Trucks, H. B. Schlegel, G. E. Scuseria, 
 M. A. Robb, J. R. Cheeseman, G. Scalmani, V. Barone, 
 G. A. Petersson, H. Nakatsuji, X. Li, M. Caricato, A. V. Marenich, 
 J. Bloino, B. G. Janesko, R. Gomperts, B. Mennucci, H. P. Hratchian, 
 J. V. Ortiz, A. F. Izmaylov, J. L. Sonnenberg, D. Williams-Young, 
 F. Ding, F. Lipparini, F. Egidi, J. Goings, B. Peng, A. Petrone, 
 T. Henderson, D. Ranasinghe, V. G. Zakrzewski, J. Gao, N. Rega, 
 G. Zheng, W. Liang, M. Hada, M. Ehara, K. Toyota, R. Fukuda, 
 J. Hasegawa, M. Ishida, T. Nakajima, Y. Honda, O. Kitao, H. Nakai, 
 T. Vreven, K. Throssell, J. A. Montgomery, Jr., J. E. Peralta, 
 F. Ogliaro, M. J. Bearpark, J. J. Heyd, E. N. Brothers, K. N. Kudin, 
 V. N. Staroverov, T. A. Keith, R. Kobayashi, J. Normand, 
 K. Raghavachari, A. P. Rendell, J. C. Burant, S. S. Iyengar, 
 J. Tomasi, M. Cossi, J. M. Millam, M. Klene, C. Adamo, R. Cammi, 
 J. W. Ochterski, R. L. Martin, K. Morokuma, O. Farkas, 
 J. B. Foresman, and D. J. Fox, Gaussian, Inc., Wallingford CT, 2019.
 
 ******************************************
 Gaussian 16:  ES64L-G16RevC.01  3-Jul-2019
                28-Sep-2024 
 ******************************************
 %chk=arbr32_wb97xd_red.chk
 %mem=48GB
 %nprocshared=24
 Will use up to   24 processors via shared memory.
 --------------------------------------
 # pop=(nbo6,hirshfeld) wb97xd/def2tzvp
 --------------------------------------
 1/38=1,172=1/1;
 2/12=2,17=6,18=5,40=1/2;
 3/5=44,7=101,11=2,25=1,30=1,74=-58/1,2,3;
 4//1;
 5/5=2,38=5/2;
 6/7=2,8=2,9=2,10=2,28=1,40=1,79=1,113=1,114=1,124=3103,126=1/1,12;
 99/5=1,9=1/99;
 ----------------------------------------
 arbr32_wb97xd_redcreated by GaussianPrep
 ----------------------------------------
 Symbolic Z-matrix:
 Charge = -1 Multiplicity = 2
 O                    -3.3319    1.88523  -0.22502 
 C                    -2.85478   0.79794  -0.06833 
 O                    -3.663    -0.274     0.02862 
 C                    -3.12014  -1.52172   0.4598 
 C                    -1.85205  -1.8707   -0.28889 
 C                    -0.87494  -0.74172  -0.14178 
 C                     0.49865  -0.93639  -0.1395 
 C                     1.34076   0.1532   -0.00105 
 Br                    3.21181  -0.12343   0.01224 
 C                     0.8428    1.44165   0.13128 
 C                    -0.52536   1.63198   0.12018 
 C                    -1.38492   0.54799  -0.01156 
 H                    -3.90753  -2.25197   0.2854 
 H                    -2.92654  -1.46937   1.5357 
 H                    -1.43798  -2.80148   0.10167 
 H                    -2.08039  -2.03197  -1.34672 
 H                     0.90848  -1.93292  -0.23986 
 H                     1.51669   2.27996   0.23794 
 H                    -0.94701   2.62447   0.20777 
 
                          Input orientation:                          
 ---------------------------------------------------------------------
 Center     Atomic      Atomic             Coordinates (Angstroms)
 Number     Number       Type             X           Y           Z
 ---------------------------------------------------------------------
      1          8           0       -3.331901    1.885234   -0.225017
      2          6           0       -2.854776    0.797941   -0.068330
      3          8           0       -3.662999   -0.273997    0.028617
      4          6           0       -3.120143   -1.521715    0.459800
      5          6           0       -1.852047   -1.870697   -0.288894
      6          6           0       -0.874939   -0.741721   -0.141779
      7          6           0        0.498647   -0.936394   -0.139498
      8          6           0        1.340758    0.153195   -0.001053
      9         35           0        3.211811   -0.123427    0.012241
     10          6           0        0.842795    1.441648    0.131283
     11          6           0       -0.525361    1.631977    0.120176
     12          6           0       -1.384917    0.547987   -0.011561
     13          1           0       -3.907533   -2.251965    0.285399
     14          1           0       -2.926537   -1.469372    1.535704
     15          1           0       -1.437976   -2.801481    0.101666
     16          1           0       -2.080394   -2.031969   -1.346719
     17          1           0        0.908478   -1.932916   -0.239860
     18          1           0        1.516693    2.279957    0.237939
     19          1           0       -0.947006    2.624467    0.207773
 ---------------------------------------------------------------------
                    Distance matrix (angstroms):
                    1          2          3          4          5
     1  O    0.000000
     2  C    1.197667   0.000000
     3  O    2.199144   1.345984   0.000000
     4  C    3.481539   2.393772   1.427379   0.000000
     5  C    4.037458   2.859326   2.435120   1.513406   0.000000
     6  C    3.597844   2.509125   2.832151   2.451781   1.500323
     7  C    4.758361   3.776033   4.217384   3.714485   2.533970
     8  C    4.988373   4.245318   5.022047   4.787207   3.791173
     9  Br   6.849173   6.136684   6.876478   6.499935   5.365286
    10  C    4.213289   3.758488   4.822464   4.959266   4.290729
    11  C    2.839008   2.481396   3.672314   4.098050   3.767779
    12  C    2.371611   1.492041   2.422175   2.741689   2.478943
    13  H    4.208122   3.245820   2.009500   1.087963   2.167995
    14  H    3.810228   2.778270   2.059759   1.094437   2.155168
    15  H    5.065469   3.871958   3.368121   2.143769   1.091032
    16  H    4.262507   3.200365   2.736175   2.145914   1.094141
    17  H    5.706076   4.652858   4.870574   4.109550   2.761661
    18  H    4.886614   4.626004   5.778902   6.000182   5.371582
    19  H    2.534067   2.655563   3.976155   4.687949   4.612188
                    6          7          8          9         10
     6  C    0.000000
     7  C    1.387314   0.000000
     8  C    2.393740   1.384024   0.000000
     9  Br   4.136126   2.836406   1.891437   0.000000
    10  C    2.791464   2.418025   1.387657   2.841807   0.000000
    11  C    2.413559   2.777148   2.384092   4.130321   1.381376
    12  C    1.392976   2.401576   2.754138   4.645565   2.404524
    13  H    3.414666   4.617974   5.780260   7.435748   6.019314
    14  H    2.748177   3.849968   4.817069   6.466206   4.965310
    15  H    2.149160   2.699485   4.057342   5.366609   4.817358
    16  H    2.137696   3.051085   4.276686   5.787637   4.774467
    17  H    2.146891   1.082169   2.143771   2.939923   3.395548
    18  H    3.872290   3.394671   2.147367   2.949681   1.080868
    19  H    3.385056   3.858787   3.374116   4.988478   2.146695
                   11         12         13         14         15
    11  C    0.000000
    12  C    1.389685   0.000000
    13  H    5.152804   3.780411   0.000000
    14  H    4.169860   2.973274   1.771459   0.000000
    15  H    4.526451   3.351801   2.536619   2.459023   0.000000
    16  H    4.241982   2.987057   2.459806   3.056278   1.761439
    17  H    3.859272   3.386246   4.855064   4.251452   2.525251
    18  H    2.145631   3.388408   7.068437   5.956841   5.879596
    19  H    1.081894   2.133458   5.705290   4.737242   5.449149
                   16         17         18         19
    16  H    0.000000
    17  H    3.188778   0.000000
    18  H    5.834628   4.283283   0.000000
    19  H    5.038195   4.940945   2.487852   0.000000
 Stoichiometry    C9H7BrO2(1-,2)
 Framework group  C1[X(C9H7BrO2)]
 Deg. of freedom    51
 Full point group                 C1      NOp   1
 Largest Abelian subgroup         C1      NOp   1
 Largest concise Abelian subgroup C1      NOp   1
                         Standard orientation:                         
 ---------------------------------------------------------------------
 Center     Atomic      Atomic             Coordinates (Angstroms)
 Number     Number       Type             X           Y           Z
 ---------------------------------------------------------------------
      1          8           0       -3.331901    1.885234   -0.225017
      2          6           0       -2.854776    0.797941   -0.068330
      3          8           0       -3.662999   -0.273997    0.028617
      4          6           0       -3.120143   -1.521715    0.459800
      5          6           0       -1.852047   -1.870697   -0.288894
      6          6           0       -0.874939   -0.741721   -0.141779
      7          6           0        0.498647   -0.936394   -0.139498
      8          6           0        1.340758    0.153195   -0.001053
      9         35           0        3.211811   -0.123427    0.012241
     10          6           0        0.842795    1.441648    0.131283
     11          6           0       -0.525361    1.631977    0.120176
     12          6           0       -1.384917    0.547987   -0.011561
     13          1           0       -3.907533   -2.251965    0.285399
     14          1           0       -2.926537   -1.469372    1.535704
     15          1           0       -1.437976   -2.801481    0.101666
     16          1           0       -2.080394   -2.031969   -1.346719
     17          1           0        0.908478   -1.932916   -0.239860
     18          1           0        1.516693    2.279957    0.237939
     19          1           0       -0.947006    2.624467    0.207773
 ---------------------------------------------------------------------
 Rotational constants (GHZ):           1.9507678           0.3220704           0.2794050
 Standard basis: def2TZVP (5D, 7F)
 There are   493 symmetry adapted cartesian basis functions of A   symmetry.
 There are   431 symmetry adapted basis functions of A   symmetry.
   431 basis functions,   731 primitive gaussians,   493 cartesian basis functions
    57 alpha electrons       56 beta electrons
       nuclear repulsion energy       915.5128193526 Hartrees.
 NAtoms=   19 NActive=   19 NUniq=   19 SFac= 1.00D+00 NAtFMM=   60 NAOKFM=F Big=F
 Integral buffers will be    131072 words long.
 Raffenetti 2 integral format.
 Two-electron integral symmetry is turned on.
 Nuclear repulsion after empirical dispersion term =      915.5014096978 Hartrees.
 One-electron integrals computed using PRISM.
   1 Symmetry operations used in ECPInt.
 ECPInt:  NShTT=   13695 NPrTT=   45780 LenC2=   12912 LenP2D=   32161.
 LDataN:  DoStor=T MaxTD1= 6 Len=  172
 NBasis=   431 RedAO= T EigKep=  5.79D-06  NBF=   431
 NBsUse=   431 1.00D-06 EigRej= -1.00D+00 NBFU=   431
 ExpMin= 9.52D-02 ExpMax= 5.65D+05 ExpMxC= 5.46D+03 IAcc=3 IRadAn=         5 AccDes= 0.00D+00
 Harris functional with IExCor= 4639 and IRadAn=       5 diagonalized for initial guess.
 HarFok:  IExCor= 4639 AccDes= 0.00D+00 IRadAn=         5 IDoV= 1 UseB2=F ITyADJ=14
 ICtDFT=  3500011 ScaDFX=  1.000000  1.000000  1.000000  1.000000
 FoFCou: FMM=F IPFlag=           0 FMFlag=      100000 FMFlg1=           0
         NFxFlg=           0 DoJE=T BraDBF=F KetDBF=T FulRan=T
         wScrn=  0.000000 ICntrl=       500 IOpCl=  0 I1Cent=   200000004 NGrid=           0
         NMat0=    1 NMatS0=      1 NMatT0=    0 NMatD0=    1 NMtDS0=    0 NMtDT0=    0
 Petite list used in FoFCou.
 Initial guess <Sx>= 0.0000 <Sy>= 0.0000 <Sz>= 0.5000 <S**2>= 0.7500 S= 0.5000
 Requested convergence on RMS density matrix=1.00D-08 within 128 cycles.
 Requested convergence on MAX density matrix=1.00D-06.
 Requested convergence on             energy=1.00D-06.
 No special actions if energy rises.
 Integral accuracy reduced to 1.0D-05 until final iterations.
 Initial convergence to 1.0D-05 achieved.  Increase integral accuracy.
 SCF Done:  E(UwB97XD) =  -3071.87541789     A.U. after   33 cycles
            NFock= 33  Conv=0.55D-08     -V/T= 2.0018
 <Sx>= 0.0000 <Sy>= 0.0000 <Sz>= 0.5000 <S**2>= 0.7662 S= 0.5080
 <L.S>= 0.000000000000E+00
 Annihilation of the first spin contaminant:
 S**2 before annihilation     0.7662,   after     0.7502

 **********************************************************************

            Population analysis using the SCF Density.

 **********************************************************************

 Orbital symmetries:
 Alpha Orbitals:
       Occupied  (A) (A) (A) (A) (A) (A) (A) (A) (A) (A) (A) (A)
                 (A) (A) (A) (A) (A) (A) (A) (A) (A) (A) (A) (A)
                 (A) (A) (A) (A) (A) (A) (A) (A) (A) (A) (A) (A)
                 (A) (A) (A) (A) (A) (A) (A) (A) (A) (A) (A) (A)
                 (A) (A) (A) (A) (A) (A) (A) (A) (A)
       Virtual   (A) (A) (A) (A) (A) (A) (A) (A) (A) (A) (A) (A)
                 (A) (A) (A) (A) (A) (A) (A) (A) (A) (A) (A) (A)
                 (A) (A) (A) (A) (A) (A) (A) (A) (A) (A) (A) (A)
                 (A) (A) (A) (A) (A) (A) (A) (A) (A) (A) (A) (A)
                 (A) (A) (A) (A) (A) (A) (A) (A) (A) (A) (A) (A)
                 (A) (A) (A) (A) (A) (A) (A) (A) (A) (A) (A) (A)
                 (A) (A) (A) (A) (A) (A) (A) (A) (A) (A) (A) (A)
                 (A) (A) (A) (A) (A) (A) (A) (A) (A) (A) (A) (A)
                 (A) (A) (A) (A) (A) (A) (A) (A) (A) (A) (A) (A)
                 (A) (A) (A) (A) (A) (A) (A) (A) (A) (A) (A) (A)
                 (A) (A) (A) (A) (A) (A) (A) (A) (A) (A) (A) (A)
                 (A) (A) (A) (A) (A) (A) (A) (A) (A) (A) (A) (A)
                 (A) (A) (A) (A) (A) (A) (A) (A) (A) (A) (A) (A)
                 (A) (A) (A) (A) (A) (A) (A) (A) (A) (A) (A) (A)
                 (A) (A) (A) (A) (A) (A) (A) (A) (A) (A) (A) (A)
                 (A) (A) (A) (A) (A) (A) (A) (A) (A) (A) (A) (A)
                 (A) (A) (A) (A) (A) (A) (A) (A) (A) (A) (A) (A)
                 (A) (A) (A) (A) (A) (A) (A) (A) (A) (A) (A) (A)
                 (A) (A) (A) (A) (A) (A) (A) (A) (A) (A) (A) (A)
                 (A) (A) (A) (A) (A) (A) (A) (A) (A) (A) (A) (A)
                 (A) (A) (A) (A) (A) (A) (A) (A) (A) (A) (A) (A)
                 (A) (A) (A) (A) (A) (A) (A) (A) (A) (A) (A) (A)
                 (A) (A) (A) (A) (A) (A) (A) (A) (A) (A) (A) (A)
                 (A) (A) (A) (A) (A) (A) (A) (A) (A) (A) (A) (A)
                 (A) (A) (A) (A) (A) (A) (A) (A) (A) (A) (A) (A)
                 (A) (A) (A) (A) (A) (A) (A) (A) (A) (A) (A) (A)
                 (A) (A) (A) (A) (A) (A) (A) (A) (A) (A) (A) (A)
                 (A) (A) (A) (A) (A) (A) (A) (A) (A) (A) (A) (A)
                 (A) (A) (A) (A) (A) (A) (A) (A) (A) (A) (A) (A)
                 (A) (A) (A) (A) (A) (A) (A) (A) (A) (A) (A) (A)
                 (A) (A) (A) (A) (A) (A) (A) (A) (A) (A) (A) (A)
                 (A) (A)
 Beta  Orbitals:
       Occupied  (A) (A) (A) (A) (A) (A) (A) (A) (A) (A) (A) (A)
                 (A) (A) (A) (A) (A) (A) (A) (A) (A) (A) (A) (A)
                 (A) (A) (A) (A) (A) (A) (A) (A) (A) (A) (A) (A)
                 (A) (A) (A) (A) (A) (A) (A) (A) (A) (A) (A) (A)
                 (A) (A) (A) (A) (A) (A) (A) (A)
       Virtual   (A) (A) (A) (A) (A) (A) (A) (A) (A) (A) (A) (A)
                 (A) (A) (A) (A) (A) (A) (A) (A) (A) (A) (A) (A)
                 (A) (A) (A) (A) (A) (A) (A) (A) (A) (A) (A) (A)
                 (A) (A) (A) (A) (A) (A) (A) (A) (A) (A) (A) (A)
                 (A) (A) (A) (A) (A) (A) (A) (A) (A) (A) (A) (A)
                 (A) (A) (A) (A) (A) (A) (A) (A) (A) (A) (A) (A)
                 (A) (A) (A) (A) (A) (A) (A) (A) (A) (A) (A) (A)
                 (A) (A) (A) (A) (A) (A) (A) (A) (A) (A) (A) (A)
                 (A) (A) (A) (A) (A) (A) (A) (A) (A) (A) (A) (A)
                 (A) (A) (A) (A) (A) (A) (A) (A) (A) (A) (A) (A)
                 (A) (A) (A) (A) (A) (A) (A) (A) (A) (A) (A) (A)
                 (A) (A) (A) (A) (A) (A) (A) (A) (A) (A) (A) (A)
                 (A) (A) (A) (A) (A) (A) (A) (A) (A) (A) (A) (A)
                 (A) (A) (A) (A) (A) (A) (A) (A) (A) (A) (A) (A)
                 (A) (A) (A) (A) (A) (A) (A) (A) (A) (A) (A) (A)
                 (A) (A) (A) (A) (A) (A) (A) (A) (A) (A) (A) (A)
                 (A) (A) (A) (A) (A) (A) (A) (A) (A) (A) (A) (A)
                 (A) (A) (A) (A) (A) (A) (A) (A) (A) (A) (A) (A)
                 (A) (A) (A) (A) (A) (A) (A) (A) (A) (A) (A) (A)
                 (A) (A) (A) (A) (A) (A) (A) (A) (A) (A) (A) (A)
                 (A) (A) (A) (A) (A) (A) (A) (A) (A) (A) (A) (A)
                 (A) (A) (A) (A) (A) (A) (A) (A) (A) (A) (A) (A)
                 (A) (A) (A) (A) (A) (A) (A) (A) (A) (A) (A) (A)
                 (A) (A) (A) (A) (A) (A) (A) (A) (A) (A) (A) (A)
                 (A) (A) (A) (A) (A) (A) (A) (A) (A) (A) (A) (A)
                 (A) (A) (A) (A) (A) (A) (A) (A) (A) (A) (A) (A)
                 (A) (A) (A) (A) (A) (A) (A) (A) (A) (A) (A) (A)
                 (A) (A) (A) (A) (A) (A) (A) (A) (A) (A) (A) (A)
                 (A) (A) (A) (A) (A) (A) (A) (A) (A) (A) (A) (A)
                 (A) (A) (A) (A) (A) (A) (A) (A) (A) (A) (A) (A)
                 (A) (A) (A) (A) (A) (A) (A) (A) (A) (A) (A) (A)
                 (A) (A) (A)
 The electronic state is 2-A.
 Alpha  occ. eigenvalues -- -482.98743 -62.53604 -56.32674 -56.32382 -56.32379
 Alpha  occ. eigenvalues --  -19.13046 -19.04219 -10.22283 -10.21433 -10.16458
 Alpha  occ. eigenvalues --  -10.16338 -10.14208 -10.13626 -10.13563 -10.12195
 Alpha  occ. eigenvalues --  -10.11225  -8.67746  -6.49779  -6.48828  -6.48810
 Alpha  occ. eigenvalues --   -2.60201  -2.59913  -2.59901  -2.59122  -2.59122
 Alpha  occ. eigenvalues --   -1.04393  -0.95237  -0.82519  -0.77369  -0.74231
 Alpha  occ. eigenvalues --   -0.69419  -0.67988  -0.61668  -0.56268  -0.54027
 Alpha  occ. eigenvalues --   -0.49501  -0.47584  -0.43884  -0.43343  -0.39582
 Alpha  occ. eigenvalues --   -0.37812  -0.37679  -0.36119  -0.35847  -0.34960
 Alpha  occ. eigenvalues --   -0.33543  -0.31555  -0.30922  -0.27537  -0.26122
 Alpha  occ. eigenvalues --   -0.25396  -0.23574  -0.23055  -0.18900  -0.18765
 Alpha  occ. eigenvalues --   -0.17574  -0.00422
 Alpha virt. eigenvalues --    0.20232   0.21488   0.22901   0.25565   0.26378
 Alpha virt. eigenvalues --    0.27609   0.28220   0.29205   0.29757   0.30826
 Alpha virt. eigenvalues --    0.32836   0.34282   0.35663   0.36224   0.37802
 Alpha virt. eigenvalues --    0.38203   0.39147   0.39697   0.41315   0.42100
 Alpha virt. eigenvalues --    0.42923   0.43384   0.44247   0.45168   0.46426
 Alpha virt. eigenvalues --    0.46754   0.47441   0.48049   0.48504   0.49965
 Alpha virt. eigenvalues --    0.50770   0.51151   0.52385   0.52820   0.53609
 Alpha virt. eigenvalues --    0.54274   0.54844   0.56432   0.56875   0.57603
 Alpha virt. eigenvalues --    0.58222   0.58971   0.59866   0.60707   0.61422
 Alpha virt. eigenvalues --    0.61510   0.62312   0.64134   0.64195   0.64818
 Alpha virt. eigenvalues --    0.66289   0.67012   0.67500   0.68844   0.69864
 Alpha virt. eigenvalues --    0.73388   0.73540   0.73916   0.74697   0.75278
 Alpha virt. eigenvalues --    0.77083   0.77475   0.78494   0.79180   0.81267
 Alpha virt. eigenvalues --    0.81893   0.84142   0.85373   0.88204   0.89332
 Alpha virt. eigenvalues --    0.89583   0.90861   0.91583   0.92314   0.92642
 Alpha virt. eigenvalues --    0.93489   0.95678   0.97351   0.98272   0.99450
 Alpha virt. eigenvalues --    1.00688   1.01096   1.03239   1.03983   1.05654
 Alpha virt. eigenvalues --    1.05921   1.08091   1.08416   1.09565   1.11975
 Alpha virt. eigenvalues --    1.12514   1.13508   1.14499   1.16199   1.17367
 Alpha virt. eigenvalues --    1.20073   1.20219   1.22618   1.23888   1.25557
 Alpha virt. eigenvalues --    1.26832   1.28691   1.31641   1.32108   1.33796
 Alpha virt. eigenvalues --    1.34843   1.37672   1.38512   1.39918   1.40697
 Alpha virt. eigenvalues --    1.43149   1.44191   1.46023   1.46823   1.48507
 Alpha virt. eigenvalues --    1.49041   1.52086   1.53257   1.54606   1.57049
 Alpha virt. eigenvalues --    1.57343   1.59091   1.60968   1.61277   1.62350
 Alpha virt. eigenvalues --    1.65611   1.67132   1.67472   1.69212   1.69607
 Alpha virt. eigenvalues --    1.71711   1.72110   1.73115   1.74781   1.75827
 Alpha virt. eigenvalues --    1.77267   1.77860   1.78027   1.79247   1.79494
 Alpha virt. eigenvalues --    1.82031   1.83016   1.83745   1.84402   1.85622
 Alpha virt. eigenvalues --    1.86055   1.88730   1.90264   1.91504   1.92940
 Alpha virt. eigenvalues --    1.94102   1.95441   1.95793   1.96959   1.99200
 Alpha virt. eigenvalues --    2.00760   2.02859   2.04218   2.06408   2.08201
 Alpha virt. eigenvalues --    2.09388   2.10004   2.12413   2.12980   2.15217
 Alpha virt. eigenvalues --    2.15761   2.16675   2.17583   2.21679   2.21797
 Alpha virt. eigenvalues --    2.23860   2.26740   2.29105   2.29590   2.32581
 Alpha virt. eigenvalues --    2.33124   2.37580   2.38968   2.39351   2.41850
 Alpha virt. eigenvalues --    2.42874   2.44360   2.45407   2.47343   2.51525
 Alpha virt. eigenvalues --    2.53055   2.54510   2.57041   2.59136   2.59503
 Alpha virt. eigenvalues --    2.60481   2.62844   2.66358   2.68796   2.69717
 Alpha virt. eigenvalues --    2.72707   2.73036   2.75324   2.76326   2.78977
 Alpha virt. eigenvalues --    2.82230   2.83289   2.85479   2.85562   2.87201
 Alpha virt. eigenvalues --    2.88250   2.89589   2.91073   2.93818   2.94251
 Alpha virt. eigenvalues --    2.95450   2.96728   2.98804   2.99028   3.01956
 Alpha virt. eigenvalues --    3.03446   3.05497   3.06253   3.08146   3.09503
 Alpha virt. eigenvalues --    3.10572   3.11443   3.11915   3.13908   3.14712
 Alpha virt. eigenvalues --    3.15507   3.18937   3.19174   3.21830   3.22726
 Alpha virt. eigenvalues --    3.25130   3.27608   3.28130   3.28416   3.29849
 Alpha virt. eigenvalues --    3.31504   3.33519   3.34041   3.35554   3.37405
 Alpha virt. eigenvalues --    3.39050   3.40215   3.42189   3.42831   3.43425
 Alpha virt. eigenvalues --    3.44338   3.45344   3.46329   3.47479   3.49146
 Alpha virt. eigenvalues --    3.51638   3.53048   3.53949   3.55447   3.56690
 Alpha virt. eigenvalues --    3.57945   3.59007   3.59702   3.60959   3.62232
 Alpha virt. eigenvalues --    3.63399   3.65611   3.67509   3.68253   3.69208
 Alpha virt. eigenvalues --    3.70851   3.71390   3.73330   3.76286   3.77310
 Alpha virt. eigenvalues --    3.78567   3.79699   3.80289   3.81476   3.82589
 Alpha virt. eigenvalues --    3.84543   3.86604   3.88793   3.92504   3.94264
 Alpha virt. eigenvalues --    3.96501   3.98046   4.02345   4.04966   4.05375
 Alpha virt. eigenvalues --    4.07866   4.08965   4.12901   4.14464   4.19998
 Alpha virt. eigenvalues --    4.21114   4.23644   4.24846   4.26695   4.27935
 Alpha virt. eigenvalues --    4.30359   4.31315   4.32758   4.37126   4.39826
 Alpha virt. eigenvalues --    4.41528   4.43500   4.44933   4.48413   4.49616
 Alpha virt. eigenvalues --    4.50094   4.51217   4.53757   4.57126   4.59784
 Alpha virt. eigenvalues --    4.60948   4.64455   4.65067   4.67090   4.70876
 Alpha virt. eigenvalues --    4.73240   4.73608   4.82347   4.84005   4.86326
 Alpha virt. eigenvalues --    4.91230   4.92712   4.94702   4.98345   5.01424
 Alpha virt. eigenvalues --    5.04181   5.09122   5.11974   5.20186   5.22444
 Alpha virt. eigenvalues --    5.29904   5.40033   5.45394   5.45552   5.48751
 Alpha virt. eigenvalues --    5.51051   5.54232   5.64829   5.68453   5.72835
 Alpha virt. eigenvalues --    5.76010   5.80876   5.87570   5.99922   6.10055
 Alpha virt. eigenvalues --    6.16196   6.18872   6.31760   6.49648   6.60063
 Alpha virt. eigenvalues --    6.66300   6.72512   6.82386   6.91072   7.04828
 Alpha virt. eigenvalues --    7.10368   7.14359   7.21838   7.34546   7.45369
 Alpha virt. eigenvalues --    7.48971   7.68520   8.00664  22.33522  22.70644
 Alpha virt. eigenvalues --   22.81352  22.97773  23.06238  23.14392  23.24493
 Alpha virt. eigenvalues --   23.69018  23.88488  44.23274  44.49509
  Beta  occ. eigenvalues -- -482.98743 -62.53601 -56.32680 -56.32382 -56.32367
  Beta  occ. eigenvalues --  -19.12983 -19.03914 -10.22148 -10.21427 -10.16347
  Beta  occ. eigenvalues --  -10.15976 -10.14078 -10.13672 -10.13649 -10.12008
  Beta  occ. eigenvalues --  -10.10997  -8.67745  -6.49793  -6.48827  -6.48792
  Beta  occ. eigenvalues --   -2.60207  -2.59920  -2.59888  -2.59113  -2.59113
  Beta  occ. eigenvalues --   -1.04109  -0.94695  -0.81999  -0.77021  -0.73955
  Beta  occ. eigenvalues --   -0.69115  -0.67447  -0.61563  -0.55307  -0.53698
  Beta  occ. eigenvalues --   -0.49223  -0.47420  -0.43563  -0.43032  -0.39238
  Beta  occ. eigenvalues --   -0.37377  -0.37348  -0.35732  -0.35628  -0.34109
  Beta  occ. eigenvalues --   -0.32997  -0.30733  -0.30338  -0.27294  -0.25877
  Beta  occ. eigenvalues --   -0.24581  -0.23543  -0.21841  -0.18376  -0.17415
  Beta  occ. eigenvalues --   -0.15054
  Beta virt. eigenvalues --    0.19381   0.20482   0.21971   0.23015   0.25995
  Beta virt. eigenvalues --    0.27143   0.27934   0.28936   0.29657   0.30457
  Beta virt. eigenvalues --    0.30917   0.32896   0.34343   0.35807   0.36273
  Beta virt. eigenvalues --    0.37941   0.38442   0.39718   0.40226   0.41345
  Beta virt. eigenvalues --    0.42109   0.42969   0.43410   0.44267   0.45210
  Beta virt. eigenvalues --    0.46565   0.47152   0.47525   0.48324   0.48779
  Beta virt. eigenvalues --    0.50194   0.50907   0.51307   0.52556   0.53042
  Beta virt. eigenvalues --    0.53812   0.54455   0.54965   0.56614   0.56930
  Beta virt. eigenvalues --    0.57915   0.58321   0.59078   0.60108   0.60819
  Beta virt. eigenvalues --    0.61517   0.61635   0.62549   0.64237   0.64354
  Beta virt. eigenvalues --    0.64844   0.66532   0.67292   0.67833   0.69041
  Beta virt. eigenvalues --    0.69983   0.73494   0.73759   0.74041   0.74910
  Beta virt. eigenvalues --    0.75470   0.77235   0.77647   0.78716   0.79322
  Beta virt. eigenvalues --    0.81366   0.82090   0.84430   0.85459   0.88318
  Beta virt. eigenvalues --    0.89432   0.89690   0.90977   0.91641   0.92460
  Beta virt. eigenvalues --    0.92848   0.93740   0.95916   0.97588   0.98293
  Beta virt. eigenvalues --    0.99684   1.00786   1.01403   1.03377   1.04206
  Beta virt. eigenvalues --    1.05978   1.06251   1.08243   1.08639   1.09992
  Beta virt. eigenvalues --    1.12097   1.12734   1.13691   1.14691   1.16463
  Beta virt. eigenvalues --    1.17501   1.20385   1.20448   1.22895   1.24319
  Beta virt. eigenvalues --    1.25683   1.27465   1.28941   1.31819   1.32410
  Beta virt. eigenvalues --    1.33899   1.35071   1.37782   1.38682   1.40351
  Beta virt. eigenvalues --    1.40905   1.43324   1.44374   1.46164   1.47226
  Beta virt. eigenvalues --    1.48762   1.49264   1.52261   1.53466   1.54735
  Beta virt. eigenvalues --    1.57200   1.57594   1.59447   1.61127   1.61724
  Beta virt. eigenvalues --    1.62845   1.65915   1.67332   1.67980   1.69475
  Beta virt. eigenvalues --    1.69891   1.71870   1.72305   1.73468   1.74926
  Beta virt. eigenvalues --    1.75970   1.77429   1.78003   1.78181   1.79450
  Beta virt. eigenvalues --    1.80050   1.82327   1.83160   1.83858   1.84636
  Beta virt. eigenvalues --    1.85911   1.86258   1.89309   1.90491   1.91811
  Beta virt. eigenvalues --    1.93023   1.94364   1.95798   1.96106   1.97420
  Beta virt. eigenvalues --    1.99649   2.01166   2.03165   2.04513   2.06635
  Beta virt. eigenvalues --    2.08474   2.09564   2.10234   2.13040   2.13517
  Beta virt. eigenvalues --    2.15567   2.16052   2.17052   2.17820   2.21874
  Beta virt. eigenvalues --    2.22232   2.24159   2.27013   2.29441   2.29843
  Beta virt. eigenvalues --    2.33084   2.33356   2.37866   2.39301   2.39894
  Beta virt. eigenvalues --    2.42205   2.43233   2.44818   2.45665   2.47652
  Beta virt. eigenvalues --    2.51763   2.53384   2.54823   2.57274   2.59467
  Beta virt. eigenvalues --    2.59786   2.60659   2.63100   2.66639   2.69033
  Beta virt. eigenvalues --    2.69929   2.72844   2.73284   2.75562   2.76436
  Beta virt. eigenvalues --    2.79111   2.82455   2.83673   2.85747   2.85780
  Beta virt. eigenvalues --    2.87612   2.88570   2.89954   2.91323   2.94187
  Beta virt. eigenvalues --    2.94448   2.95858   2.97114   2.99131   2.99407
  Beta virt. eigenvalues --    3.02236   3.03878   3.05865   3.06788   3.08462
  Beta virt. eigenvalues --    3.10103   3.10858   3.11753   3.12278   3.14338
  Beta virt. eigenvalues --    3.15068   3.15963   3.19375   3.19467   3.22323
  Beta virt. eigenvalues --    3.23104   3.25547   3.27973   3.28505   3.28822
  Beta virt. eigenvalues --    3.30278   3.31945   3.33957   3.34396   3.35734
  Beta virt. eigenvalues --    3.37791   3.39366   3.40586   3.42551   3.43156
  Beta virt. eigenvalues --    3.43796   3.44779   3.45667   3.46875   3.47710
  Beta virt. eigenvalues --    3.49469   3.51964   3.53408   3.54282   3.55883
  Beta virt. eigenvalues --    3.57021   3.58400   3.59274   3.60143   3.61301
  Beta virt. eigenvalues --    3.62568   3.63808   3.65997   3.67843   3.68531
  Beta virt. eigenvalues --    3.69473   3.71204   3.71790   3.73723   3.76763
  Beta virt. eigenvalues --    3.77721   3.79119   3.80052   3.80649   3.81931
  Beta virt. eigenvalues --    3.83144   3.84899   3.87173   3.89265   3.92752
  Beta virt. eigenvalues --    3.94809   3.96801   3.98344   4.02561   4.05144
  Beta virt. eigenvalues --    4.05566   4.08093   4.09336   4.13179   4.14752
  Beta virt. eigenvalues --    4.20159   4.21391   4.23785   4.24913   4.26941
  Beta virt. eigenvalues --    4.28136   4.30549   4.31550   4.32928   4.37380
  Beta virt. eigenvalues --    4.40128   4.41756   4.43783   4.45320   4.49061
  Beta virt. eigenvalues --    4.50274   4.50752   4.51585   4.54024   4.57403
  Beta virt. eigenvalues --    4.60013   4.61242   4.64677   4.65356   4.67294
  Beta virt. eigenvalues --    4.71103   4.73420   4.73939   4.82524   4.84266
  Beta virt. eigenvalues --    4.86618   4.91518   4.92945   4.95206   4.98742
  Beta virt. eigenvalues --    5.01723   5.04446   5.09320   5.12267   5.20489
  Beta virt. eigenvalues --    5.22646   5.30195   5.40297   5.45644   5.46287
  Beta virt. eigenvalues --    5.49079   5.51708   5.54502   5.65071   5.68738
  Beta virt. eigenvalues --    5.73173   5.76352   5.81193   5.87779   6.00334
  Beta virt. eigenvalues --    6.10345   6.16490   6.19196   6.31956   6.50439
  Beta virt. eigenvalues --    6.60482   6.67263   6.72814   6.83357   6.91342
  Beta virt. eigenvalues --    7.05061   7.11272   7.14613   7.22069   7.34892
  Beta virt. eigenvalues --    7.45508   7.49156   7.68657   8.00699  22.33757
  Beta virt. eigenvalues --   22.70660  22.81344  22.97845  23.06638  23.14548
  Beta virt. eigenvalues --   23.24751  23.69301  23.88724  44.23556  44.49569
          Condensed to atoms (all electrons):
               1          2          3          4          5          6
     1  O    7.949267   0.793476  -0.094123   0.003824  -0.007158  -0.001653
     2  C    0.793476   4.714024   0.420418  -0.014404  -0.086158  -0.092830
     3  O   -0.094123   0.420418   8.023510   0.276362  -0.067539  -0.019324
     4  C    0.003824  -0.014404   0.276362   4.834653   0.157835   0.035339
     5  C   -0.007158  -0.086158  -0.067539   0.157835   5.362570   0.194974
     6  C   -0.001653  -0.092830  -0.019324   0.035339   0.194974   5.537397
     7  C    0.001538   0.020453   0.001812  -0.003052  -0.084987   0.298276
     8  C   -0.000255  -0.009720  -0.000514   0.000266   0.022230   0.109710
     9  Br  -0.000000  -0.000077  -0.000001   0.000020  -0.001411   0.022000
    10  C    0.004441   0.022573   0.000104  -0.000343  -0.002531  -0.148786
    11  C    0.055356  -0.054054   0.023870  -0.014194   0.032756   0.014713
    12  C   -0.294734  -0.005279  -0.214016  -0.031856  -0.026214   0.159706
    13  H   -0.000134   0.004007  -0.041297   0.408148  -0.057060   0.011675
    14  H    0.000751  -0.006144  -0.045547   0.396909  -0.034064  -0.002852
    15  H    0.000040   0.004091   0.005236  -0.016598   0.382847  -0.048531
    16  H   -0.000199  -0.002650   0.004755  -0.057708   0.405481  -0.058699
    17  H    0.000021   0.001338   0.000045   0.001446  -0.019751  -0.099843
    18  H   -0.000160  -0.000529  -0.000001  -0.000006   0.000217  -0.005738
    19  H    0.022690  -0.002790   0.001165  -0.000384  -0.000181   0.015173
               7          8          9         10         11         12
     1  O    0.001538  -0.000255  -0.000000   0.004441   0.055356  -0.294734
     2  C    0.020453  -0.009720  -0.000077   0.022573  -0.054054  -0.005279
     3  O    0.001812  -0.000514  -0.000001   0.000104   0.023870  -0.214016
     4  C   -0.003052   0.000266   0.000020  -0.000343  -0.014194  -0.031856
     5  C   -0.084987   0.022230  -0.001411  -0.002531   0.032756  -0.026214
     6  C    0.298276   0.109710   0.022000  -0.148786   0.014713   0.159706
     7  C    5.564233   0.138172  -0.067704   0.122504  -0.168362   0.030489
     8  C    0.138172   5.417992   0.249532   0.157658   0.123325  -0.159162
     9  Br  -0.067704   0.249532  35.079457  -0.076043   0.024705  -0.005839
    10  C    0.122504   0.157658  -0.076043   5.324836   0.282879   0.078896
    11  C   -0.168362   0.123325   0.024705   0.282879   5.608327  -0.049179
    12  C    0.030489  -0.159162  -0.005839   0.078896  -0.049179   6.696661
    13  H   -0.001892  -0.000024  -0.000001   0.000019   0.000067   0.005936
    14  H    0.005526   0.000082   0.000000  -0.000278   0.000950  -0.012617
    15  H    0.005556  -0.000812  -0.000044   0.000397  -0.000958   0.001281
    16  H    0.008646   0.000003   0.000016  -0.000151   0.001970  -0.002595
    17  H    0.483663  -0.097098  -0.002592   0.022181  -0.009615   0.029536
    18  H    0.021248  -0.103592  -0.005465   0.483310  -0.086911   0.019900
    19  H   -0.003978   0.017844  -0.000417  -0.089880   0.476413  -0.085560
              13         14         15         16         17         18
     1  O   -0.000134   0.000751   0.000040  -0.000199   0.000021  -0.000160
     2  C    0.004007  -0.006144   0.004091  -0.002650   0.001338  -0.000529
     3  O   -0.041297  -0.045547   0.005236   0.004755   0.000045  -0.000001
     4  C    0.408148   0.396909  -0.016598  -0.057708   0.001446  -0.000006
     5  C   -0.057060  -0.034064   0.382847   0.405481  -0.019751   0.000217
     6  C    0.011675  -0.002852  -0.048531  -0.058699  -0.099843  -0.005738
     7  C   -0.001892   0.005526   0.005556   0.008646   0.483663   0.021248
     8  C   -0.000024   0.000082  -0.000812   0.000003  -0.097098  -0.103592
     9  Br  -0.000001   0.000000  -0.000044   0.000016  -0.002592  -0.005465
    10  C    0.000019  -0.000278   0.000397  -0.000151   0.022181   0.483310
    11  C    0.000067   0.000950  -0.000958   0.001970  -0.009615  -0.086911
    12  C    0.005936  -0.012617   0.001281  -0.002595   0.029536   0.019900
    13  H    0.671369  -0.058675   0.000431  -0.010449   0.000041   0.000000
    14  H   -0.058675   0.685688  -0.005153   0.012073  -0.000162  -0.000001
    15  H    0.000431  -0.005153   0.633661  -0.042663   0.004205  -0.000001
    16  H   -0.010449   0.012073  -0.042663   0.669487   0.000252  -0.000005
    17  H    0.000041  -0.000162   0.004205   0.000252   0.622549   0.000005
    18  H    0.000000  -0.000001  -0.000001  -0.000005   0.000005   0.611917
    19  H   -0.000010   0.000084   0.000024   0.000063   0.000050  -0.010541
              19
     1  O    0.022690
     2  C   -0.002790
     3  O    0.001165
     4  C   -0.000384
     5  C   -0.000181
     6  C    0.015173
     7  C   -0.003978
     8  C    0.017844
     9  Br  -0.000417
    10  C   -0.089880
    11  C    0.476413
    12  C   -0.085560
    13  H   -0.000010
    14  H    0.000084
    15  H    0.000024
    16  H    0.000063
    17  H    0.000050
    18  H   -0.010541
    19  H    0.565362
          Atomic-Atomic Spin Densities.
               1          2          3          4          5          6
     1  O    0.187013  -0.058034   0.005834   0.001111  -0.001503   0.004051
     2  C   -0.058034   0.112222  -0.017239   0.004929   0.000530  -0.014066
     3  O    0.005834  -0.017239   0.038070  -0.001205  -0.000211   0.003181
     4  C    0.001111   0.004929  -0.001205   0.152472  -0.163271   0.052354
     5  C   -0.001503   0.000530  -0.000211  -0.163271   0.176141  -0.075186
     6  C    0.004051  -0.014066   0.003181   0.052354  -0.075186   0.220818
     7  C    0.000248  -0.001450   0.000318   0.000793  -0.002647   0.091219
     8  C   -0.000212   0.000893  -0.000097   0.000307   0.000836  -0.052318
     9  Br   0.000000  -0.000012   0.000000  -0.000028   0.000082   0.000779
    10  C    0.000353  -0.000924   0.000094   0.000507  -0.001736   0.014891
    11  C    0.006947  -0.021512   0.001932  -0.014149   0.019104   0.001785
    12  C   -0.025071   0.104323  -0.013850  -0.015789   0.037394  -0.130532
    13  H    0.000003   0.000532   0.000234   0.000719  -0.000472   0.000142
    14  H   -0.000151  -0.000159  -0.000026   0.006674  -0.006588   0.001129
    15  H   -0.000000  -0.000006  -0.000086   0.005141  -0.005789   0.001953
    16  H   -0.000194   0.001079  -0.000945  -0.025679   0.031333  -0.021192
    17  H    0.000001   0.000032  -0.000002   0.000782  -0.000703   0.001410
    18  H    0.000001   0.000026  -0.000000   0.000006  -0.000019   0.000156
    19  H   -0.000331  -0.000100   0.000008  -0.000285   0.000420  -0.001595
               7          8          9         10         11         12
     1  O    0.000248  -0.000212   0.000000   0.000353   0.006947  -0.025071
     2  C   -0.001450   0.000893  -0.000012  -0.000924  -0.021512   0.104323
     3  O    0.000318  -0.000097   0.000000   0.000094   0.001932  -0.013850
     4  C    0.000793   0.000307  -0.000028   0.000507  -0.014149  -0.015789
     5  C   -0.002647   0.000836   0.000082  -0.001736   0.019104   0.037394
     6  C    0.091219  -0.052318   0.000779   0.014891   0.001785  -0.130532
     7  C   -0.016107  -0.091020   0.011049   0.013089   0.011049  -0.031714
     8  C   -0.091020   0.580814  -0.046865  -0.063586  -0.054462   0.045853
     9  Br   0.011049  -0.046865   0.031651   0.009295   0.001084  -0.000866
    10  C    0.013089  -0.063586   0.009295  -0.063685   0.067936  -0.023987
    11  C    0.011049  -0.054462   0.001084   0.067936   0.307526  -0.150928
    12  C   -0.031714   0.045853  -0.000866  -0.023987  -0.150928   0.393275
    13  H    0.000076  -0.000001  -0.000000   0.000004  -0.000051  -0.000494
    14  H   -0.000231   0.000120  -0.000002  -0.000024  -0.000933   0.002439
    15  H   -0.000227  -0.000062   0.000001  -0.000010  -0.000021   0.000211
    16  H   -0.003482   0.001001  -0.000012  -0.000260   0.000802   0.009205
    17  H    0.001388  -0.000973   0.000302   0.000073  -0.000351  -0.000959
    18  H   -0.000200  -0.000463   0.000343   0.000054   0.001146  -0.000096
    19  H   -0.000041  -0.000184   0.000005   0.002887   0.002292  -0.001843
              13         14         15         16         17         18
     1  O    0.000003  -0.000151  -0.000000  -0.000194   0.000001   0.000001
     2  C    0.000532  -0.000159  -0.000006   0.001079   0.000032   0.000026
     3  O    0.000234  -0.000026  -0.000086  -0.000945  -0.000002  -0.000000
     4  C    0.000719   0.006674   0.005141  -0.025679   0.000782   0.000006
     5  C   -0.000472  -0.006588  -0.005789   0.031333  -0.000703  -0.000019
     6  C    0.000142   0.001129   0.001953  -0.021192   0.001410   0.000156
     7  C    0.000076  -0.000231  -0.000227  -0.003482   0.001388  -0.000200
     8  C   -0.000001   0.000120  -0.000062   0.001001  -0.000973  -0.000463
     9  Br  -0.000000  -0.000002   0.000001  -0.000012   0.000302   0.000343
    10  C    0.000004  -0.000024  -0.000010  -0.000260   0.000073   0.000054
    11  C   -0.000051  -0.000933  -0.000021   0.000802  -0.000351   0.001146
    12  C   -0.000494   0.002439   0.000211   0.009205  -0.000959  -0.000096
    13  H   -0.001936   0.000750   0.000261  -0.000355   0.000001   0.000000
    14  H    0.000750  -0.002213  -0.000296  -0.000279   0.000025   0.000000
    15  H    0.000261  -0.000296   0.001038  -0.001130   0.000135  -0.000000
    16  H   -0.000355  -0.000279  -0.001130   0.016768  -0.000374  -0.000001
    17  H    0.000001   0.000025   0.000135  -0.000374  -0.000410   0.000004
    18  H    0.000000   0.000000  -0.000000  -0.000001   0.000004   0.000970
    19  H   -0.000001  -0.000015  -0.000001   0.000019  -0.000008   0.000172
              19
     1  O   -0.000331
     2  C   -0.000100
     3  O    0.000008
     4  C   -0.000285
     5  C    0.000420
     6  C   -0.001595
     7  C   -0.000041
     8  C   -0.000184
     9  Br   0.000005
    10  C    0.002887
    11  C    0.002292
    12  C   -0.001843
    13  H   -0.000001
    14  H   -0.000015
    15  H   -0.000001
    16  H    0.000019
    17  H   -0.000008
    18  H    0.000172
    19  H   -0.009373
 Mulliken charges and spin densities:
               1          2
     1  O   -0.432987   0.120064
     2  C    0.294254   0.111063
     3  O   -0.274919   0.016008
     4  C    0.023742   0.005389
     5  C   -0.171856   0.007715
     6  C    0.079291   0.098979
     7  C   -0.372141  -0.017891
     8  C    0.134360   0.319581
     9  Br  -0.216138   0.006807
    10  C   -0.181786  -0.045030
    11  C   -0.262059   0.179196
    12  C   -0.135354   0.196571
    13  H    0.067847  -0.000587
    14  H    0.063430   0.000221
    15  H    0.076991   0.001112
    16  H    0.072372   0.006307
    17  H    0.063730   0.000373
    18  H    0.076353   0.002099
    19  H    0.094872  -0.007975
 Sum of Mulliken charges =  -1.00000   1.00000
 Mulliken charges and spin densities with hydrogens summed into heavy atoms:
               1          2
     1  O   -0.432987   0.120064
     2  C    0.294254   0.111063
     3  O   -0.274919   0.016008
     4  C    0.155018   0.005023
     5  C   -0.022493   0.015134
     6  C    0.079291   0.098979
     7  C   -0.308411  -0.017519
     8  C    0.134360   0.319581
     9  Br  -0.216138   0.006807
    10  C   -0.105433  -0.042931
    11  C   -0.167187   0.171220
    12  C   -0.135354   0.196571
 Electronic spatial extent (au):  <R**2>=           3454.2687
 Charge=             -1.0000 electrons
 Dipole moment (field-independent basis, Debye):
    X=              3.9669    Y=             -4.6855    Z=              0.6804  Tot=              6.1769
 Quadrupole moment (field-independent basis, Debye-Ang):
   XX=           -130.1998   YY=            -91.4743   ZZ=            -87.2946
   XY=             15.9712   XZ=             -2.4533   YZ=              1.0284
 Traceless Quadrupole moment (field-independent basis, Debye-Ang):
   XX=            -27.2102   YY=             11.5153   ZZ=             15.6949
   XY=             15.9712   XZ=             -2.4533   YZ=              1.0284
 Octapole moment (field-independent basis, Debye-Ang**2):
  XXX=            165.2977  YYY=            -20.1440  ZZZ=             -0.3095  XYY=             51.1034
  XXY=            -52.7227  XXZ=              8.3476  XZZ=             22.3109  YZZ=             -3.1671
  YYZ=              3.6520  XYZ=             -2.4978
 Hexadecapole moment (field-independent basis, Debye-Ang**3):
 XXXX=          -3723.1903 YYYY=           -821.6620 ZZZZ=           -133.8385 XXXY=            166.5120
 XXXZ=            -24.9467 YYYX=             44.3465 YYYZ=              3.7763 ZZZX=              2.0325
 ZZZY=             -2.9028 XXYY=           -741.1151 XXZZ=           -549.6412 YYZZ=           -163.2354
 XXYZ=             10.7293 YYXZ=             -7.8445 ZZXY=             -5.1774
 N-N= 9.155014096978D+02 E-N=-9.162918468421D+03  KE= 3.066397890542D+03
 There are a total of      437694 grid points.
 ElSum from          density=      112.9999889914
 ElSum from atomic densities=      111.9999879706

 Hirshfeld populations at iteration   1 (CX, CA, CB, DipXYZ):
               1          2          3          4          5          6
     1  O    0.000000   4.248287   4.133523   0.120012  -0.148716   0.023448
     2  C    0.000000   3.003830   2.876689  -0.030907  -0.088984   0.014150
     3  O    0.000000   4.101103   4.072062   0.161694  -0.030235   0.035381
     4  C    0.000000   2.994289   2.987369  -0.008411   0.044586  -0.027870
     5  C    0.000000   3.039109   3.028029  -0.006398   0.008412   0.010270
     6  C    0.000000   3.065422   2.972129  -0.057156  -0.032995  -0.013745
     7  C    0.000000   3.062787   3.038077   0.008010  -0.016881  -0.008769
     8  C    0.000000   3.151195   2.921105   0.042497  -0.006829  -0.001503
     9  Br   0.000000  17.607416  17.567254  -0.240341   0.040801  -0.001990
    10  C    0.000000   3.051097   3.041873   0.024320   0.018007   0.001004
    11  C    0.000000   3.106009   2.979029  -0.043760   0.008299  -0.007645
    12  C    0.000000   3.127867   2.968779   0.004183   0.004767  -0.012578
    13  H    0.000000   0.487954   0.487848  -0.094854  -0.095026  -0.024180
    14  H    0.000000   0.489775   0.487583   0.020033  -0.001385   0.128986
    15  H    0.000000   0.488706   0.486384   0.047729  -0.113945   0.051563
    16  H    0.000000   0.491865   0.484870  -0.027997  -0.018436  -0.129551
    17  H    0.000000   0.494984   0.492071   0.037638  -0.128870  -0.013318
    18  H    0.000000   0.492347   0.490732   0.072719   0.119654   0.013847
    19  H    0.000000   0.495954   0.484588  -0.039113   0.129728   0.013820
       Tot   0.000000  56.999995  55.999994  -0.010103  -0.308046   0.051321

 Dip from Atomic Chgs              1.570792  -1.535426   0.216356
         Total Dipole              1.560688  -1.843472   0.267677

 Hirshfeld charges, spin densities, dipoles, and CM5 charges using IRadAn=      5:
              Q-H        S-H        Dx         Dy         Dz        Q-CM5   
     1  O   -0.381810   0.114764   0.120012  -0.148716   0.023448  -0.426143
     2  C    0.119481   0.127141  -0.030907  -0.088984   0.014150   0.180952
     3  O   -0.173166   0.029041   0.161694  -0.030235   0.035381  -0.251004
     4  C    0.018342   0.006919  -0.008411   0.044586  -0.027870  -0.062528
     5  C   -0.067138   0.011080  -0.006398   0.008412   0.010270  -0.167806
     6  C   -0.037551   0.093293  -0.057156  -0.032995  -0.013745  -0.048552
     7  C   -0.100864   0.024710   0.008010  -0.016881  -0.008769  -0.152460
     8  C   -0.072300   0.230091   0.042497  -0.006829  -0.001503  -0.093806
     9  Br  -0.174670   0.040162  -0.240341   0.040801  -0.001990  -0.159556
    10  C   -0.092969   0.009224   0.024320   0.018007   0.001004  -0.146842
    11  C   -0.085038   0.126980  -0.043760   0.008299  -0.007645  -0.136719
    12  C   -0.096645   0.159088   0.004183   0.004767  -0.012578  -0.097846
    13  H    0.024197   0.000106  -0.094854  -0.095026  -0.024180   0.088498
    14  H    0.022642   0.002192   0.020033  -0.001385   0.128986   0.086525
    15  H    0.024910   0.002322   0.047729  -0.113945   0.051563   0.081170
    16  H    0.023265   0.006995  -0.027997  -0.018436  -0.129551   0.080860
    17  H    0.012945   0.002913   0.037638  -0.128870  -0.013318   0.070881
    18  H    0.016921   0.001616   0.072719   0.119654   0.013847   0.074177
    19  H    0.019458   0.011366  -0.039113   0.129728   0.013820   0.080210
       Tot  -0.999989   1.000001  -0.010103  -0.308046   0.051321  -0.999989
 Hirshfeld charges and spin densities with hydrogens summed into heavy atoms:
              Q-H        S-H       Q-CM5   
     1  O   -0.381810   0.114764  -0.426143
     2  C    0.119481   0.127141   0.180952
     3  O   -0.173166   0.029041  -0.251004
     4  C    0.065181   0.009216   0.112495
     5  C   -0.018963   0.020397  -0.005776
     6  C   -0.037551   0.093293  -0.048552
     7  C   -0.087919   0.027622  -0.081579
     8  C   -0.072300   0.230091  -0.093806
     9  Br  -0.174670   0.040162  -0.159556
    10  C   -0.076048   0.010839  -0.072664
    11  C   -0.065579   0.138346  -0.056510
    12  C   -0.096645   0.159088  -0.097846
 
 EQQ= 0.946964643544E-01 EQD=-0.944078861622E-02 EDD= 0.181974546739E-03
 EQQ+QD+DD= 0.854376502849E-01
 
                          Isotropic Fermi Contact Couplings
        Atom                 a.u.       MegaHertz       Gauss      10(-4) cm-1
     1  O(17)              0.01870     -11.33441      -4.04440      -3.78075
     2  C(13)             -0.00651      -7.32152      -2.61250      -2.44220
     3  O(17)              0.00252      -1.52679      -0.54480      -0.50928
     4  C(13)             -0.00005      -0.05857      -0.02090      -0.01954
     5  C(13)             -0.00427      -4.79871      -1.71230      -1.60068
     6  C(13)              0.00008       0.08890       0.03172       0.02965
     7  C(13)             -0.01470     -16.53098      -5.89867      -5.51414
     8  C(13)              0.02980      33.49934      11.95340      11.17418
     9  Br(79)            -0.00498      -5.59467      -1.99632      -1.86618
    10  C(13)             -0.01758     -19.76738      -7.05349      -6.59369
    11  C(13)              0.00318       3.57794       1.27670       1.19347
    12  C(13)             -0.00296      -3.32228      -1.18547      -1.10819
    13  H(1)              -0.00025      -1.13231      -0.40404      -0.37770
    14  H(1)              -0.00020      -0.88353      -0.31526      -0.29471
    15  H(1)               0.00039       1.76467       0.62968       0.58863
    16  H(1)               0.00286      12.80092       4.56769       4.26993
    17  H(1)               0.00012       0.53311       0.19023       0.17783
    18  H(1)               0.00060       2.66448       0.95075       0.88878
    19  H(1)              -0.00272     -12.16546      -4.34094      -4.05796
 --------------------------------------------------------
       Center         ----  Spin Dipole Couplings  ----
                      3XX-RR        3YY-RR        3ZZ-RR
 --------------------------------------------------------
     1   Atom       -0.261575     -0.254535      0.516110
     2   Atom       -0.080338     -0.080879      0.161217
     3   Atom       -0.065926     -0.053807      0.119733
     4   Atom        0.002409      0.002302     -0.004711
     5   Atom        0.001184      0.003200     -0.004385
     6   Atom       -0.066826     -0.064203      0.131029
     7   Atom        0.012852      0.006814     -0.019667
     8   Atom       -0.216713     -0.227585      0.444298
     9   Atom       -0.280879     -0.011003      0.291882
    10   Atom        0.028419      0.026069     -0.054489
    11   Atom       -0.092474     -0.091281      0.183755
    12   Atom       -0.118941     -0.123269      0.242209
    13   Atom       -0.000025      0.002295     -0.002270
    14   Atom       -0.000548      0.001411     -0.000863
    15   Atom       -0.001912      0.004653     -0.002741
    16   Atom       -0.000318      0.002505     -0.002187
    17   Atom        0.001561      0.002202     -0.003763
    18   Atom        0.003487      0.001082     -0.004569
    19   Atom       -0.006603      0.009216     -0.002613
 --------------------------------------------------------
                        XY            XZ            YZ
 --------------------------------------------------------
     1   Atom       -0.010785     -0.073336      0.128352
     2   Atom       -0.009761     -0.014604      0.034804
     3   Atom        0.002616      0.017605      0.043501
     4   Atom       -0.000456     -0.004391      0.001737
     5   Atom       -0.000275      0.000148      0.000714
     6   Atom       -0.004654      0.001852     -0.026075
     7   Atom        0.005618     -0.004416      0.000786
     8   Atom       -0.000895     -0.015357     -0.079394
     9   Atom        0.042766     -0.017868     -0.035296
    10   Atom       -0.006988      0.003040      0.008111
    11   Atom        0.003920     -0.012749     -0.038401
    12   Atom        0.000471     -0.008361     -0.049773
    13   Atom        0.002569     -0.000410     -0.000261
    14   Atom        0.002162     -0.001532     -0.003771
    15   Atom        0.002200     -0.000114     -0.000410
    16   Atom        0.001963      0.001243      0.003440
    17   Atom       -0.002153     -0.000344      0.001272
    18   Atom       -0.000200      0.000274      0.000587
    19   Atom       -0.008421     -0.001168      0.000890
 --------------------------------------------------------


 ---------------------------------------------------------------------------------
              Anisotropic Spin Dipole Couplings in Principal Axis System
 ---------------------------------------------------------------------------------

       Atom             a.u.   MegaHertz   Gauss  10(-4) cm-1        Axes

              Baa    -0.2755    19.936     7.114     6.650 -0.1506  0.9736 -0.1718
     1 O(17)  Bbb    -0.2682    19.409     6.926     6.474  0.9843  0.1638  0.0652
              Bcc     0.5437   -39.345   -14.039   -13.124 -0.0916  0.1593  0.9830
 
              Baa    -0.0915   -12.278    -4.381    -4.095  0.5990  0.7972 -0.0752
     2 C(13)  Bbb    -0.0756   -10.150    -3.622    -3.386  0.7982 -0.5870  0.1355
              Bcc     0.1671    22.428     8.003     7.481 -0.0639  0.1412  0.9879
 
              Baa    -0.0681     4.927     1.758     1.643  0.9320  0.3241 -0.1624
     3 O(17)  Bbb    -0.0635     4.597     1.640     1.533 -0.3514  0.9180 -0.1841
              Bcc     0.1316    -9.524    -3.398    -3.177  0.0894  0.2287  0.9694
 
              Baa    -0.0070    -0.940    -0.336    -0.314  0.4121 -0.1476  0.8991
     4 C(13)  Bbb     0.0020     0.266     0.095     0.089  0.4340  0.8995 -0.0512
              Bcc     0.0050     0.674     0.241     0.225  0.8012 -0.4113 -0.4347
 
              Baa    -0.0045    -0.598    -0.213    -0.199 -0.0307 -0.0938  0.9951
     5 C(13)  Bbb     0.0012     0.155     0.055     0.052  0.9920  0.1190  0.0418
              Bcc     0.0033     0.443     0.158     0.148 -0.1223  0.9885  0.0894
 
              Baa    -0.0716    -9.612    -3.430    -3.206  0.6753  0.7322  0.0880
     6 C(13)  Bbb    -0.0629    -8.434    -3.009    -2.813  0.7374 -0.6684 -0.0969
              Bcc     0.1345    18.046     6.439     6.020  0.0121 -0.1304  0.9914
 
              Baa    -0.0203    -2.730    -0.974    -0.911  0.1413 -0.0578  0.9883
     7 C(13)  Bbb     0.0038     0.511     0.182     0.171 -0.4811  0.8685  0.1196
              Bcc     0.0165     2.219     0.792     0.740  0.8652  0.4924 -0.0949
 
              Baa    -0.2372   -31.829   -11.357   -10.617  0.1312  0.9843  0.1176
     8 C(13)  Bbb    -0.2167   -29.079   -10.376    -9.700  0.9911 -0.1330  0.0071
              Bcc     0.4539    60.908    21.734    20.317 -0.0226 -0.1157  0.9930
 
              Baa    -0.2878   -38.599   -13.773   -12.875  0.9885 -0.1500  0.0213
     9 Br(79) Bbb    -0.0091    -1.218    -0.435    -0.406  0.1463  0.9815  0.1238
              Bcc     0.2968    39.817    14.208    13.281 -0.0395 -0.1192  0.9921
 
              Baa    -0.0555    -7.443    -2.656    -2.483 -0.0446 -0.1027  0.9937
    10 C(13)  Bbb     0.0210     2.822     1.007     0.941  0.6598  0.7439  0.1064
              Bcc     0.0344     4.620     1.649     1.541  0.7501 -0.6604 -0.0346
 
              Baa    -0.0976   -13.093    -4.672    -4.368 -0.4319  0.8961  0.1027
    11 C(13)  Bbb    -0.0921   -12.353    -4.408    -4.121  0.9007  0.4226  0.1005
              Bcc     0.1896    25.447     9.080     8.488 -0.0466 -0.1359  0.9896
 
              Baa    -0.1300   -17.440    -6.223    -5.817  0.0591  0.9893  0.1336
    12 C(13)  Bbb    -0.1191   -15.981    -5.702    -5.331  0.9980 -0.0616  0.0146
              Bcc     0.2491    33.421    11.925    11.148 -0.0227 -0.1325  0.9909
 
              Baa    -0.0024    -1.260    -0.450    -0.420  0.2770 -0.0993  0.9557
    13 H(1)   Bbb    -0.0016    -0.866    -0.309    -0.289  0.7926 -0.5386 -0.2857
              Bcc     0.0040     2.126     0.759     0.709  0.5432  0.8367 -0.0705
 
              Baa    -0.0037    -1.956    -0.698    -0.653 -0.0267  0.6033  0.7970
    14 H(1)   Bbb    -0.0017    -0.922    -0.329    -0.307  0.9129 -0.3101  0.2653
              Bcc     0.0054     2.878     1.027     0.960  0.4073  0.7347 -0.5425
 
              Baa    -0.0028    -1.475    -0.526    -0.492 -0.0375  0.0662  0.9971
    15 H(1)   Bbb    -0.0026    -1.377    -0.491    -0.459  0.9561 -0.2877  0.0551
              Bcc     0.0053     2.851     1.017     0.951  0.2905  0.9554 -0.0525
 
              Baa    -0.0040    -2.143    -0.765    -0.715 -0.0594 -0.4518  0.8902
    16 H(1)   Bbb    -0.0013    -0.675    -0.241    -0.225  0.9221 -0.3665 -0.1244
              Bcc     0.0053     2.818     1.006     0.940  0.3824  0.8134  0.4383
 
              Baa    -0.0040    -2.147    -0.766    -0.716 -0.0193 -0.2065  0.9782
    17 H(1)   Bbb    -0.0002    -0.113    -0.040    -0.038  0.7751  0.6149  0.1452
              Bcc     0.0042     2.260     0.806     0.754 -0.6315  0.7611  0.1482
 
              Baa    -0.0046    -2.476    -0.883    -0.826 -0.0361 -0.1032  0.9940
    18 H(1)   Bbb     0.0011     0.603     0.215     0.201  0.0717  0.9918  0.1056
              Bcc     0.0035     1.873     0.668     0.625  0.9968 -0.0751  0.0284
 
              Baa    -0.0103    -5.503    -1.964    -1.836  0.9158  0.3906  0.0937
    19 H(1)   Bbb    -0.0027    -1.414    -0.505    -0.472 -0.0536 -0.1125  0.9922
              Bcc     0.0130     6.918     2.468     2.307 -0.3981  0.9137  0.0821
 

 ---------------------------------------------------------------------------------

 Running external command "gaunbo6 R"
         input file       "/home/rpaton/arbr500/tzvp/fukui/Gau-2243464.EIn"
         output file      "/home/rpaton/arbr500/tzvp/fukui/Gau-2243464.EOu"
         message file     "/home/rpaton/arbr500/tzvp/fukui/Gau-2243464.EMs"
         fchk file        "/home/rpaton/arbr500/tzvp/fukui/Gau-2243464.EFC"
         mat. el file     "/home/rpaton/arbr500/tzvp/fukui/Gau-2243464.EUF"

 Writing WrtUnf unformatted file "/home/rpaton/arbr500/tzvp/fukui/Gau-2243464.EUF"
 Gaussian matrix elements                                         Version   2 NLab=11 Len12L=8 Len4L=8
 Write SHELL TO ATOM MAP                   from file      0 offset           0 length                 165 to matrix element file.
 Write SHELL TYPES                         from file      0 offset           0 length                 165 to matrix element file.
 Write NUMBER OF PRIMITIVES PER SHELL      from file      0 offset           0 length                 165 to matrix element file.
 Write PRIMITIVE EXPONENTS                 from file      0 offset           0 length                 301 to matrix element file.
 Write CONTRACTION COEFFICIENTS            from file      0 offset           0 length                 301 to matrix element file.
 Write P(S=P) CONTRACTION COEFFICIENTS     from file      0 offset           0 length                 301 to matrix element file.
 Write COORDINATES OF EACH SHELL           from file      0 offset           0 length                 495 to matrix element file.
 Write BONDS PER ATOM                      from file      0 offset           0 length                  19 to matrix element file.
 Write BONDED ATOMS                        from file      0 offset           0 length                  40 to matrix element file.
 Write BOND TYPES                          from file      0 offset           0 length                  40 to matrix element file.
 Write ONIOM CHARGE/MULT                   from file      0 offset           0 length                  32 to matrix element file.
 Write ONIOM ATOM LAYERS                   from file      0 offset           0 length                  19 to matrix element file.
 Write ONIOM ATOM MODIFIERS                from file      0 offset           0 length                  19 to matrix element file.
 Write ONIOM ATOM TYPES                    from file      0 offset           0 length                  19 to matrix element file.
 Write ONIOM LINK ATOMS                    from file      0 offset           0 length                  19 to matrix element file.
 Write ONIOM LINK CHARGES                  from file      0 offset           0 length                  19 to matrix element file.
 Write ONIOM LINK DISTANCES                from file      0 offset           0 length                  76 to matrix element file.
 Write SYMINF INTS                         from file      0 offset           0 length                  26 to matrix element file.
 Write ROTTR TO SO                         from file      0 offset           0 length                  12 to matrix element file.
 Write GAUSSIAN SCALARS                    from file    501 offset           0 to matrix element file.
 Write OPTIMIZATION FLAGS                  from file      0 offset           0 length                  19 to matrix element file.
 Write INTEGER ISO                         from file      0 offset           0 length                  19 to matrix element file.
 Write INTEGER SPIN                        from file      0 offset           0 length                  19 to matrix element file.
 Write REAL ZEFFECTIVE                     from file      0 offset           0 length                  19 to matrix element file.
 Write REAL QUADRUPOLEMOMENT               from file      0 offset           0 length                  19 to matrix element file.
 Write REAL GFACTOR                        from file      0 offset           0 length                  19 to matrix element file.
 Write REAL ZNUCLEAR                       from file      0 offset           0 length                  19 to matrix element file.
 Write MULLIKEN CHARGES                    from file      0 offset           0 length                  19 to matrix element file.
 Write TYPE 6 CHARGES                      from file      0 offset           0 length                  19 to matrix element file.
 Write TYPE 7 CHARGES                      from file      0 offset           0 length                  19 to matrix element file.
 Write NUCLEAR GRADIENT                    from file  10584 offset           0 length                  57 to matrix element file.
 Array NUCLEAR FORCE CONSTANTS              on  file  10585 does not exist.
 Write ELECTRIC DIPOLE MOMENT              from file      0 offset           0 length                   3 to matrix element file.
 Write NON-ADIABATIC COUPLING              from file  10810 offset           0 length                  57 to matrix element file.
 Write FINITE EM FIELD                     from file  10521 offset           0 length                  35 to matrix element file.
 Write OVERLAP                             from file  10514 offset           0 length               93096 to matrix element file.
 Write CORE HAMILTONIAN ALPHA              from file  10515 offset           0 length               93096 to matrix element file.
 Write CORE HAMILTONIAN BETA               from file  10515 offset       93096 length               93096 to matrix element file.
 Write KINETIC ENERGY                      from file  10516 offset           0 length               93096 to matrix element file.
 Write ORTHOGONAL BASIS                    from file  10685 offset           0 length              185761 to matrix element file.
 Write DIPOLE INTEGRALS                    from file  10518 offset           0 length              279288 to matrix element file.
 Array DIP VEL INTEGRALS                    on  file  10572 does not exist.
 Array R X DEL INTEGRALS                    on  file  10572 does not exist.
 Write ALPHA ORBITAL ENERGIES              from file      0 offset           0 length                 431 to matrix element file.
 Write BETA ORBITAL ENERGIES               from file      0 offset           0 length                 431 to matrix element file.
 Write ALPHA MO COEFFICIENTS               from file  10524 offset           0 length              185761 to matrix element file.
 Write BETA MO COEFFICIENTS                from file  10526 offset           0 length              185761 to matrix element file.
 Write ALPHA DENSITY MATRIX                from file      0 offset           0 length               93096 to matrix element file.
 Write BETA DENSITY MATRIX                 from file      0 offset           0 length               93096 to matrix element file.
 Write ALPHA FOCK MATRIX                   from file  10536 offset           0 length               93096 to matrix element file.
 Write BETA FOCK MATRIX                    from file  10538 offset           0 length               93096 to matrix element file.
 Write ENERGY-WEIGHTED DENSITY             from file  10571 offset           0 length               93096 to matrix element file.
 Write ALPHA SCF DENSITY MATRIX            from file      0 offset           0 length               93096 to matrix element file.
 Write BETA SCF DENSITY MATRIX             from file      0 offset           0 length               93096 to matrix element file.
 No 2e integrals to process.
 Perform NBO analysis...

 *********************************** NBO 7.0 ***********************************
             N A T U R A L   A T O M I C   O R B I T A L   A N D
          N A T U R A L   B O N D   O R B I T A L   A N A L Y S I S
 **************************** Robert Paton (I101709) ***************************
  (c) Copyright 1996-2019 Board of Regents of the University of Wisconsin System
      on behalf of the Theoretical Chemistry Institute.  All rights reserved.

          Cite this program [NBO 7.0.5 (4-Jun-2019)] as:

          NBO 7.0.  E. D. Glendening, J. K. Badenhoop, A. E. Reed,
          J. E. Carpenter, J. A. Bohmann, C. M. Morales, P. Karafiloglou,
          C. R. Landis, and F. Weinhold, Theoretical Chemistry Institute,
          University of Wisconsin, Madison, WI (2018)

 Filename set to /home/rpaton/arbr500/tzvp/fukui/Gau-2243464

 Job title:  arbr32_wb97xd_redcreated by GaussianPrep


 NATURAL POPULATIONS:  Natural atomic orbital occupancies

  NAO Atom No lang   Type(AO)    Occupancy     Spin
 -----------------------------------------------------
   1    O  1  s      Cor( 1s)     1.99999     0.00000
   2    O  1  s      Val( 2s)     1.68738     0.00218
   3    O  1  s      Ryd( 3s)     0.00032    -0.00001
   4    O  1  s      Ryd( 4s)     0.00004     0.00000
   5    O  1  s      Ryd( 5s)     0.00000     0.00000
   6    O  1  px     Val( 2p)     1.79946     0.00085
   7    O  1  px     Ryd( 3p)     0.00201    -0.00005
   8    O  1  px     Ryd( 4p)     0.00005     0.00000
   9    O  1  py     Val( 2p)     1.60510     0.00228
  10    O  1  py     Ryd( 3p)     0.00130     0.00004
  11    O  1  py     Ryd( 4p)     0.00016     0.00000
  12    O  1  pz     Val( 2p)     1.55854     0.11385
  13    O  1  pz     Ryd( 3p)     0.00262     0.00167
  14    O  1  pz     Ryd( 4p)     0.00001     0.00000
  15    O  1  dxy    Ryd( 3d)     0.00543    -0.00001
  16    O  1  dxy    Ryd( 4d)     0.00001     0.00000
  17    O  1  dxz    Ryd( 3d)     0.00102    -0.00005
  18    O  1  dxz    Ryd( 4d)     0.00001     0.00000
  19    O  1  dyz    Ryd( 3d)     0.00447     0.00004
  20    O  1  dyz    Ryd( 4d)     0.00003     0.00002
  21    O  1  dx2y2  Ryd( 3d)     0.00570     0.00000
  22    O  1  dx2y2  Ryd( 4d)     0.00001     0.00000
  23    O  1  dz2    Ryd( 3d)     0.00238     0.00003
  24    O  1  dz2    Ryd( 4d)     0.00000     0.00000
  25    O  1  f(0)   Ryd( 4f)     0.00005    -0.00001
  26    O  1  f(c1)  Ryd( 4f)     0.00001     0.00000
  27    O  1  f(s1)  Ryd( 4f)     0.00005     0.00000
  28    O  1  f(c2)  Ryd( 4f)     0.00007     0.00000
  29    O  1  f(s2)  Ryd( 4f)     0.00008     0.00000
  30    O  1  f(c3)  Ryd( 4f)     0.00011     0.00000
  31    O  1  f(s3)  Ryd( 4f)     0.00018     0.00000

  32    C  2  s      Cor( 1s)     1.99999     0.00000
  33    C  2  s      Val( 2s)     0.78561     0.00269
  34    C  2  s      Ryd( 3s)     0.00718     0.00007
  35    C  2  s      Ryd( 4s)     0.00037     0.00000
  36    C  2  s      Ryd( 5s)     0.00000     0.00000
  37    C  2  px     Val( 2p)     0.88726    -0.00212
  38    C  2  px     Ryd( 3p)     0.00865    -0.00010
  39    C  2  px     Ryd( 4p)     0.00032    -0.00001
  40    C  2  py     Val( 2p)     0.73908     0.00150
  41    C  2  py     Ryd( 4p)     0.01145    -0.00008
  42    C  2  py     Ryd( 3p)     0.00019     0.00000
  43    C  2  pz     Val( 2p)     0.86038     0.12231
  44    C  2  pz     Ryd( 3p)     0.00326     0.00205
  45    C  2  pz     Ryd( 4p)     0.00032     0.00009
  46    C  2  dxy    Ryd( 4d)     0.00125    -0.00001
  47    C  2  dxy    Ryd( 3d)     0.00067     0.00001
  48    C  2  dxz    Ryd( 4d)     0.00129     0.00048
  49    C  2  dxz    Ryd( 3d)     0.00023     0.00019
  50    C  2  dyz    Ryd( 4d)     0.00223     0.00008
  51    C  2  dyz    Ryd( 3d)     0.00041     0.00012
  52    C  2  dx2y2  Ryd( 4d)     0.00138    -0.00001
  53    C  2  dx2y2  Ryd( 3d)     0.00052     0.00000
  54    C  2  dz2    Ryd( 4d)     0.00035    -0.00003
  55    C  2  dz2    Ryd( 3d)     0.00024     0.00002
  56    C  2  f(0)   Ryd( 4f)     0.00021     0.00001
  57    C  2  f(c1)  Ryd( 4f)     0.00014    -0.00003
  58    C  2  f(s1)  Ryd( 4f)     0.00012    -0.00001
  59    C  2  f(c2)  Ryd( 4f)     0.00003     0.00000
  60    C  2  f(s2)  Ryd( 4f)     0.00003     0.00001
  61    C  2  f(c3)  Ryd( 4f)     0.00028     0.00001
  62    C  2  f(s3)  Ryd( 4f)     0.00011     0.00000

  63    O  3  s      Cor( 1s)     1.99999     0.00000
  64    O  3  s      Val( 2s)     1.60337     0.00039
  65    O  3  s      Ryd( 3s)     0.00151    -0.00002
  66    O  3  s      Ryd( 4s)     0.00013     0.00000
  67    O  3  s      Ryd( 5s)     0.00000     0.00000
  68    O  3  px     Val( 2p)     1.73067    -0.00160
  69    O  3  px     Ryd( 3p)     0.00260     0.00000
  70    O  3  px     Ryd( 4p)     0.00027     0.00000
  71    O  3  py     Val( 2p)     1.35240     0.00054
  72    O  3  py     Ryd( 3p)     0.00192     0.00002
  73    O  3  py     Ryd( 4p)     0.00008     0.00000
  74    O  3  pz     Val( 2p)     1.80207     0.01788
  75    O  3  pz     Ryd( 3p)     0.00299     0.00008
  76    O  3  pz     Ryd( 4p)     0.00006     0.00000
  77    O  3  dxy    Ryd( 3d)     0.00541    -0.00002
  78    O  3  dxy    Ryd( 4d)     0.00004     0.00000
  79    O  3  dxz    Ryd( 3d)     0.00289    -0.00003
  80    O  3  dxz    Ryd( 4d)     0.00002     0.00000
  81    O  3  dyz    Ryd( 3d)     0.00080    -0.00001
  82    O  3  dyz    Ryd( 4d)     0.00006     0.00001
  83    O  3  dx2y2  Ryd( 3d)     0.00184     0.00000
  84    O  3  dx2y2  Ryd( 4d)     0.00004     0.00000
  85    O  3  dz2    Ryd( 3d)     0.00252    -0.00001
  86    O  3  dz2    Ryd( 4d)     0.00001     0.00000
  87    O  3  f(0)   Ryd( 4f)     0.00009     0.00000
  88    O  3  f(c1)  Ryd( 4f)     0.00003     0.00000
  89    O  3  f(s1)  Ryd( 4f)     0.00009     0.00000
  90    O  3  f(c2)  Ryd( 4f)     0.00004     0.00000
  91    O  3  f(s2)  Ryd( 4f)     0.00004     0.00000
  92    O  3  f(c3)  Ryd( 4f)     0.00009     0.00000
  93    O  3  f(s3)  Ryd( 4f)     0.00005     0.00000

  94    C  4  s      Cor( 1s)     1.99999     0.00000
  95    C  4  s      Val( 2s)     1.02478     0.00040
  96    C  4  s      Ryd( 3s)     0.00221     0.00028
  97    C  4  s      Ryd( 4s)     0.00005     0.00002
  98    C  4  s      Ryd( 5s)     0.00000     0.00000
  99    C  4  px     Val( 2p)     1.05033     0.00325
 100    C  4  px     Ryd( 3p)     0.00396     0.00049
 101    C  4  px     Ryd( 4p)     0.00033     0.00001
 102    C  4  py     Val( 2p)     0.85550    -0.00034
 103    C  4  py     Ryd( 3p)     0.00328     0.00005
 104    C  4  py     Ryd( 4p)     0.00020     0.00000
 105    C  4  pz     Val( 2p)     1.10934     0.00080
 106    C  4  pz     Ryd( 3p)     0.00066     0.00001
 107    C  4  pz     Ryd( 4p)     0.00018     0.00000
 108    C  4  dxy    Ryd( 3d)     0.00132     0.00001
 109    C  4  dxy    Ryd( 4d)     0.00026     0.00000
 110    C  4  dxz    Ryd( 3d)     0.00097     0.00000
 111    C  4  dxz    Ryd( 4d)     0.00018     0.00000
 112    C  4  dyz    Ryd( 3d)     0.00118    -0.00002
 113    C  4  dyz    Ryd( 4d)     0.00014     0.00001
 114    C  4  dx2y2  Ryd( 3d)     0.00074    -0.00001
 115    C  4  dx2y2  Ryd( 4d)     0.00021     0.00000
 116    C  4  dz2    Ryd( 3d)     0.00141     0.00000
 117    C  4  dz2    Ryd( 4d)     0.00013     0.00001
 118    C  4  f(0)   Ryd( 4f)     0.00027     0.00000
 119    C  4  f(c1)  Ryd( 4f)     0.00007     0.00000
 120    C  4  f(s1)  Ryd( 4f)     0.00001     0.00000
 121    C  4  f(c2)  Ryd( 4f)     0.00004     0.00000
 122    C  4  f(s2)  Ryd( 4f)     0.00004     0.00001
 123    C  4  f(c3)  Ryd( 4f)     0.00013     0.00000
 124    C  4  f(s3)  Ryd( 4f)     0.00012     0.00000

 125    C  5  s      Cor( 1s)     1.99999     0.00000
 126    C  5  s      Val( 2s)     1.04743    -0.00077
 127    C  5  s      Ryd( 3s)     0.00101     0.00008
 128    C  5  s      Ryd( 4s)     0.00003     0.00000
 129    C  5  s      Ryd( 5s)     0.00000     0.00000
 130    C  5  px     Val( 2p)     1.06710     0.00039
 131    C  5  px     Ryd( 3p)     0.00188     0.00039
 132    C  5  px     Ryd( 4p)     0.00018     0.00001
 133    C  5  py     Val( 2p)     1.14298    -0.00121
 134    C  5  py     Ryd( 3p)     0.00220     0.00034
 135    C  5  py     Ryd( 4p)     0.00024     0.00001
 136    C  5  pz     Val( 2p)     1.16716    -0.00109
 137    C  5  pz     Ryd( 3p)     0.00060    -0.00002
 138    C  5  pz     Ryd( 4p)     0.00013     0.00001
 139    C  5  dxy    Ryd( 3d)     0.00121     0.00001
 140    C  5  dxy    Ryd( 4d)     0.00013     0.00001
 141    C  5  dxz    Ryd( 3d)     0.00132     0.00013
 142    C  5  dxz    Ryd( 4d)     0.00007     0.00000
 143    C  5  dyz    Ryd( 3d)     0.00088    -0.00001
 144    C  5  dyz    Ryd( 4d)     0.00012     0.00002
 145    C  5  dx2y2  Ryd( 3d)     0.00063     0.00001
 146    C  5  dx2y2  Ryd( 4d)     0.00025     0.00000
 147    C  5  dz2    Ryd( 3d)     0.00125    -0.00002
 148    C  5  dz2    Ryd( 4d)     0.00010     0.00001
 149    C  5  f(0)   Ryd( 4f)     0.00031     0.00000
 150    C  5  f(c1)  Ryd( 4f)     0.00010     0.00000
 151    C  5  f(s1)  Ryd( 4f)     0.00005     0.00000
 152    C  5  f(c2)  Ryd( 4f)     0.00006     0.00002
 153    C  5  f(s2)  Ryd( 4f)     0.00006     0.00000
 154    C  5  f(c3)  Ryd( 4f)     0.00026     0.00000
 155    C  5  f(s3)  Ryd( 4f)     0.00011     0.00000

 156    C  6  s      Cor( 1s)     1.99999     0.00000
 157    C  6  s      Val( 2s)     0.89404     0.00333
 158    C  6  s      Ryd( 3s)     0.00107    -0.00003
 159    C  6  s      Ryd( 4s)     0.00016     0.00000
 160    C  6  s      Ryd( 5s)     0.00000     0.00000
 161    C  6  px     Val( 2p)     1.04231     0.00123
 162    C  6  px     Ryd( 3p)     0.00329     0.00002
 163    C  6  px     Ryd( 4p)     0.00024     0.00002
 164    C  6  py     Val( 2p)     1.02658     0.00183
 165    C  6  py     Ryd( 3p)     0.00453     0.00006
 166    C  6  py     Ryd( 4p)     0.00017     0.00000
 167    C  6  pz     Val( 2p)     1.03820     0.08961
 168    C  6  pz     Ryd( 3p)     0.00325     0.00106
 169    C  6  pz     Ryd( 4p)     0.00016     0.00007
 170    C  6  dxy    Ryd( 3d)     0.00071     0.00000
 171    C  6  dxy    Ryd( 4d)     0.00071     0.00000
 172    C  6  dxz    Ryd( 3d)     0.00058     0.00038
 173    C  6  dxz    Ryd( 4d)     0.00026    -0.00004
 174    C  6  dyz    Ryd( 3d)     0.00032     0.00004
 175    C  6  dyz    Ryd( 4d)     0.00028     0.00003
 176    C  6  dx2y2  Ryd( 3d)     0.00081     0.00001
 177    C  6  dx2y2  Ryd( 4d)     0.00061     0.00000
 178    C  6  dz2    Ryd( 3d)     0.00099    -0.00007
 179    C  6  dz2    Ryd( 4d)     0.00004     0.00000
 180    C  6  f(0)   Ryd( 4f)     0.00048     0.00003
 181    C  6  f(c1)  Ryd( 4f)     0.00046    -0.00002
 182    C  6  f(s1)  Ryd( 4f)     0.00042    -0.00001
 183    C  6  f(c2)  Ryd( 4f)     0.00004     0.00002
 184    C  6  f(s2)  Ryd( 4f)     0.00006     0.00001
 185    C  6  f(c3)  Ryd( 4f)     0.00047     0.00001
 186    C  6  f(s3)  Ryd( 4f)     0.00021     0.00001

 187    C  7  s      Cor( 1s)     1.99999     0.00000
 188    C  7  s      Val( 2s)     0.95571    -0.00335
 189    C  7  s      Ryd( 3s)     0.00095     0.00001
 190    C  7  s      Ryd( 4s)     0.00015     0.00000
 191    C  7  s      Ryd( 5s)     0.00000     0.00000
 192    C  7  px     Val( 2p)     1.07136    -0.00542
 193    C  7  px     Ryd( 3p)     0.00437     0.00003
 194    C  7  px     Ryd( 4p)     0.00041    -0.00001
 195    C  7  py     Val( 2p)     1.15254    -0.00367
 196    C  7  py     Ryd( 3p)     0.00346     0.00001
 197    C  7  py     Ryd( 4p)     0.00030     0.00000
 198    C  7  pz     Val( 2p)     1.07224    -0.00931
 199    C  7  pz     Ryd( 3p)     0.00514     0.00349
 200    C  7  pz     Ryd( 4p)     0.00027     0.00008
 201    C  7  dxy    Ryd( 3d)     0.00136    -0.00003
 202    C  7  dxy    Ryd( 4d)     0.00038     0.00000
 203    C  7  dxz    Ryd( 3d)     0.00061     0.00046
 204    C  7  dxz    Ryd( 4d)     0.00013    -0.00001
 205    C  7  dyz    Ryd( 3d)     0.00034     0.00003
 206    C  7  dyz    Ryd( 4d)     0.00009     0.00002
 207    C  7  dx2y2  Ryd( 3d)     0.00158     0.00001
 208    C  7  dx2y2  Ryd( 4d)     0.00024     0.00000
 209    C  7  dz2    Ryd( 3d)     0.00124    -0.00002
 210    C  7  dz2    Ryd( 4d)     0.00002     0.00000
 211    C  7  f(0)   Ryd( 4f)     0.00058     0.00004
[...]
  109. RY ( 3) C  2             0.00154     2.29399
  110. RY ( 4) C  2             0.00085     3.57047
  111. RY ( 5) C  2             0.00060     2.77884
  112. RY ( 6) C  2             0.00035     2.48986
  113. RY ( 7) C  2             0.00015     2.43554
  114. RY ( 8) C  2             0.00012     2.78644
  115. RY ( 9) C  2             0.00009     1.48688
  116. RY (10) C  2             0.00004     2.80826
  117. RY (11) C  2             0.00002     2.75000
  118. RY (12) C  2             0.00001     3.05873
  119. RY (13) C  2             0.00001     2.71639
  120. RY (14) C  2             0.00001     2.79223
  121. RY (15) C  2             0.00001     3.56575
  122. RY (16) C  2             0.00000     1.78008
  123. RY (17) C  2             0.00000     2.69606
  124. RY (18) C  2             0.00000     2.64127
  125. RY (19) C  2             0.00000     5.76611
  126. RY (20) C  2             0.00000     9.21568
  127. RY (21) C  2             0.00000     4.90126
  128. RY (22) C  2             0.00000     4.04143
  129. RY (23) C  2             0.00000     3.64767
  130. RY (24) C  2             0.00000     4.91562
  131. RY (25) C  2             0.00000     3.69137
  132. RY (26) C  2             0.00000     9.38700
  133. RY ( 1) O  3             0.00165     1.01521
  134. RY ( 2) O  3             0.00142     1.12880
  135. RY ( 3) O  3             0.00067     2.12088
  136. RY ( 4) O  3             0.00027     2.03644
  137. RY ( 5) O  3             0.00006     3.09672
  138. RY ( 6) O  3             0.00006     2.98598
  139. RY ( 7) O  3             0.00004     2.70135
  140. RY ( 8) O  3             0.00003     3.87402
  141. RY ( 9) O  3             0.00002     3.15526
  142. RY (10) O  3             0.00001     4.78096
  143. RY (11) O  3             0.00000     5.45699
  144. RY (12) O  3             0.00000     5.82505
  145. RY (13) O  3             0.00000     3.98050
  146. RY (14) O  3             0.00000     4.14889
  147. RY (15) O  3             0.00000     6.73384
  148. RY (16) O  3             0.00000    21.16728
  149. RY (17) O  3             0.00000     6.29927
  150. RY (18) O  3             0.00000     5.54995
  151. RY (19) O  3             0.00000    12.29424
  152. RY (20) O  3             0.00000     5.88521
  153. RY (21) O  3             0.00000    10.99134
  154. RY (22) O  3             0.00000     5.04294
  155. RY (23) O  3             0.00000    10.37302
  156. RY (24) O  3             0.00000     6.11996
  157. RY (25) O  3             0.00000     6.28681
  158. RY (26) O  3             0.00000     7.18083
  159. RY ( 1) C  4             0.00189     1.25063
  160. RY ( 2) C  4             0.00104     1.42977
  161. RY ( 3) C  4             0.00079     1.86667
  162. RY ( 4) C  4             0.00031     2.26744
  163. RY ( 5) C  4             0.00020     1.77769
  164. RY ( 6) C  4             0.00013     2.82748
  165. RY ( 7) C  4             0.00008     1.81481
  166. RY ( 8) C  4             0.00006     2.50779
  167. RY ( 9) C  4             0.00003     2.28693
  168. RY (10) C  4             0.00002     1.77935
  169. RY (11) C  4             0.00001     2.34314
  170. RY (12) C  4             0.00001     3.07844
  171. RY (13) C  4             0.00001     2.35326
  172. RY (14) C  4             0.00000     2.84092
  173. RY (15) C  4             0.00000     3.33577
  174. RY (16) C  4             0.00000     3.59416
  175. RY (17) C  4             0.00000     4.52736
  176. RY (18) C  4             0.00000     6.05820
  177. RY (19) C  4             0.00000     6.21005
  178. RY (20) C  4             0.00000     5.03014
  179. RY (21) C  4             0.00000     4.93248
  180. RY (22) C  4             0.00000     4.06102
  181. RY (23) C  4             0.00000     3.84257
  182. RY (24) C  4             0.00000     3.12700
  183. RY (25) C  4             0.00000     4.96144
  184. RY (26) C  4             0.00000     7.50491
  185. RY ( 1) C  5             0.00127     1.27597
  186. RY ( 2) C  5             0.00050     1.62999
  187. RY ( 3) C  5             0.00046     1.25729
  188. RY ( 4) C  5             0.00020     2.13704
  189. RY ( 5) C  5             0.00019     2.64588
  190. RY ( 6) C  5             0.00012     1.55038
  191. RY ( 7) C  5             0.00010     2.20506
  192. RY ( 8) C  5             0.00006     2.28737
  193. RY ( 9) C  5             0.00006     2.98065
  194. RY (10) C  5             0.00003     2.08018
  195. RY (11) C  5             0.00001     2.00351
  196. RY (12) C  5             0.00001     3.06656
  197. RY (13) C  5             0.00001     3.16973
  198. RY (14) C  5             0.00000     4.58173
  199. RY (15) C  5             0.00000     2.81998
  200. RY (16) C  5             0.00000     2.97875
  201. RY (17) C  5             0.00000     3.18430
  202. RY (18) C  5             0.00000     5.82092
  203. RY (19) C  5             0.00000     8.22550
  204. RY (20) C  5             0.00000     3.09759
  205. RY (21) C  5             0.00000     3.72771
  206. RY (22) C  5             0.00000     4.82888
  207. RY (23) C  5             0.00000     3.82095
  208. RY (24) C  5             0.00000     5.57435
  209. RY (25) C  5             0.00000     5.20550
  210. RY (26) C  5             0.00000     6.53881
  211. RY ( 1) C  6             0.00280     1.84471
  212. RY ( 2) C  6             0.00154     1.40547
  213. RY ( 3) C  6             0.00113     1.28141
  214. RY ( 4) C  6             0.00033     1.93856
  215. RY ( 5) C  6             0.00029     3.72183
  216. RY ( 6) C  6             0.00024     3.33509
  217. RY ( 7) C  6             0.00015     3.47486
  218. RY ( 8) C  6             0.00009     2.82174
  219. RY ( 9) C  6             0.00008     3.12671
  220. RY (10) C  6             0.00005     3.26792
  221. RY (11) C  6             0.00003     2.91521
  222. RY (12) C  6             0.00003     2.00638
  223. RY (13) C  6             0.00002     3.18588
  224. RY (14) C  6             0.00002     2.84145
  225. RY (15) C  6             0.00001     2.85580
  226. RY (16) C  6             0.00001     3.59809
  227. RY (17) C  6             0.00001     3.66504
  228. RY (18) C  6             0.00000     3.42584
  229. RY (19) C  6             0.00000     2.70269
  230. RY (20) C  6             0.00000     2.86458
  231. RY (21) C  6             0.00000     3.85104
  232. RY (22) C  6             0.00000     6.87819
  233. RY (23) C  6             0.00000     3.71155
  234. RY (24) C  6             0.00000     4.97322
  235. RY (25) C  6             0.00000     4.89404
  236. RY (26) C  6             0.00000    13.57460
  237. RY ( 1) C  7             0.00236     1.56629
  238. RY ( 2) C  7             0.00125     1.44319
  239. RY ( 3) C  7             0.00075     0.69173
  240. RY ( 4) C  7             0.00047     2.02184
  241. RY ( 5) C  7             0.00020     2.03942
  242. RY ( 6) C  7             0.00015     3.40328
  243. RY ( 7) C  7             0.00009     2.66039
  244. RY ( 8) C  7             0.00006     2.10962
  245. RY ( 9) C  7             0.00005     1.74384
  246. RY (10) C  7             0.00003     3.30372
  247. RY (11) C  7             0.00002     2.80811
  248. RY (12) C  7             0.00001     3.64652
  249. RY (13) C  7             0.00001     2.42204
  250. RY (14) C  7             0.00000     2.51359
  251. RY (15) C  7             0.00000     3.80589
  252. RY (16) C  7             0.00000     3.73732
  253. RY (17) C  7             0.00000     5.61700
  254. RY (18) C  7             0.00000     3.45939
  255. RY (19) C  7             0.00000     4.99722
  256. RY (20) C  7             0.00000     3.74056
  257. RY (21) C  7             0.00000     4.73883
  258. RY (22) C  7             0.00000     3.85087
  259. RY (23) C  7             0.00000     5.61627
  260. RY (24) C  7             0.00000     4.64819
  261. RY (25) C  7             0.00000     4.54487
  262. RY (26) C  7             0.00000     8.16637
  263. RY ( 1) C  8             0.00258     1.59947
  264. RY ( 2) C  8             0.00161     1.41214
  265. RY ( 3) C  8             0.00090     1.15387
  266. RY ( 4) C  8             0.00040     1.10111
  267. RY ( 5) C  8             0.00030     1.75076
  268. RY ( 6) C  8             0.00027     2.63480
  269. RY ( 7) C  8             0.00023     1.46129
  270. RY ( 8) C  8             0.00014     3.30725
  271. RY ( 9) C  8             0.00013     3.52846
  272. RY (10) C  8             0.00004     2.45032
  273. RY (11) C  8             0.00001     3.10722
  274. RY (12) C  8             0.00000     2.45134
  275. RY (13) C  8             0.00000     3.22296
  276. RY (14) C  8             0.00000     2.97936
  277. RY (15) C  8             0.00000     3.15875
  278. RY (16) C  8             0.00000     3.11592
  279. RY (17) C  8             0.00000     4.41731
  280. RY (18) C  8             0.00000     3.25965
  281. RY (19) C  8             0.00000    12.64602
  282. RY (20) C  8             0.00000     6.60413
  283. RY (21) C  8             0.00000     3.04970
  284. RY (22) C  8             0.00000     4.18390
  285. RY (23) C  8             0.00000     3.42715
  286. RY (24) C  8             0.00000     3.98993
  287. RY (25) C  8             0.00000     3.42564
  288. RY (26) C  8             0.00000     3.57562
  289. RY ( 1)Br  9             0.00187     0.87128
  290. RY ( 2)Br  9             0.00078     1.05417
  291. RY ( 3)Br  9             0.00019     0.87656
  292. RY ( 4)Br  9             0.00010     1.04284
  293. RY ( 5)Br  9             0.00009     0.64540
  294. RY ( 6)Br  9             0.00001     1.40005
  295. RY ( 7)Br  9             0.00001     1.38665
  296. RY ( 8)Br  9             0.00001     1.52086
  297. RY ( 9)Br  9             0.00000     1.51475
  298. RY (10)Br  9             0.00000     1.73198
  299. RY (11)Br  9             0.00000     3.14731
  300. RY (12)Br  9             0.00000     1.95979
  301. RY (13)Br  9             0.00000     3.39017
  302. RY (14)Br  9             0.00000     2.48181
  303. RY (15)Br  9             0.00000     2.28035
  304. RY (16)Br  9             0.00000     2.93133
  305. RY (17)Br  9             0.00000     1.75803
  306. RY (18)Br  9             0.00000     3.17304
  307. RY (19)Br  9             0.00000     2.24791
  308. RY (20)Br  9             0.00000     4.49728
  309. RY (21)Br  9             0.00000     2.87386
  310. RY (22)Br  9             0.00000     2.60802
  311. RY (23)Br  9             0.00000     3.90380
  312. RY (24)Br  9             0.00000     2.63373
  313. RY (25)Br  9             0.00000     3.17567
  314. RY (26)Br  9             0.00000     2.27921
  315. RY (27)Br  9             0.00000     2.41988
  316. RY (28)Br  9             0.00000     1.87268
  317. RY (29)Br  9             0.00000     2.74504
  318. RY (30)Br  9             0.00000     2.55084
  319. RY ( 1) C 10             0.00230     1.59682
  320. RY ( 2) C 10             0.00094     1.44856
  321. RY ( 3) C 10             0.00069     0.73686
  322. RY ( 4) C 10             0.00038     1.73492
  323. RY ( 5) C 10             0.00019     2.06283
  324. RY ( 6) C 10             0.00015     2.89125
  325. RY ( 7) C 10             0.00007     2.71734
  326. RY ( 8) C 10             0.00005     2.76235
  327. RY ( 9) C 10             0.00004     2.39429
  328. RY (10) C 10             0.00003     2.67561
  329. RY (11) C 10             0.00001     2.90423
  330. RY (12) C 10             0.00000     3.47152
  331. RY (13) C 10             0.00000     3.17463
  332. RY (14) C 10             0.00000     2.08814
  333. RY (15) C 10             0.00000     2.56583
  334. RY (16) C 10             0.00000     3.40717
  335. RY (17) C 10             0.00000     3.72683
  336. RY (18) C 10             0.00000     4.12445
  337. RY (19) C 10             0.00000     4.82314
  338. RY (20) C 10             0.00000     4.24652
  339. RY (21) C 10             0.00000     3.32322
  340. RY (22) C 10             0.00000     3.61576
  341. RY (23) C 10             0.00000     3.56744
  342. RY (24) C 10             0.00000     3.62548
  343. RY (25) C 10             0.00000     3.67736
  344. RY (26) C 10             0.00000    16.07416
  345. RY ( 1) C 11             0.00254     1.82637
  346. RY ( 2) C 11             0.00121     1.38024
  347. RY ( 3) C 11             0.00055     0.77493
  348. RY ( 4) C 11             0.00040     1.98349
  349. RY ( 5) C 11             0.00021     3.30459
  350. RY ( 6) C 11             0.00018     3.48123
  351. RY ( 7) C 11             0.00006     2.90028
  352. RY ( 8) C 11             0.00005     2.74843
  353. RY ( 9) C 11             0.00003     2.71997
  354. RY (10) C 11             0.00002     1.93273
  355. RY (11) C 11             0.00001     2.33141
  356. RY (12) C 11             0.00001     2.65231
  357. RY (13) C 11             0.00001     2.58667
  358. RY (14) C 11             0.00000     2.21472
  359. RY (15) C 11             0.00000     4.02881
  360. RY (16) C 11             0.00000     5.48297
  361. RY (17) C 11             0.00000     6.15248
  362. RY (18) C 11             0.00000     5.16326
  363. RY (19) C 11             0.00000     3.50830
  364. RY (20) C 11             0.00000     7.62793
  365. RY (21) C 11             0.00000     5.07042
  366. RY (22) C 11             0.00000     3.44079
  367. RY (23) C 11             0.00000     5.36527
  368. RY (24) C 11             0.00000     3.52153
  369. RY (25) C 11             0.00000     3.95633
  370. RY (26) C 11             0.00000     3.41728
  371. RY ( 1) C 12             0.00289     1.58986
  372. RY ( 2) C 12             0.00126     1.67484
  373. RY ( 3) C 12             0.00072     0.92122
  374. RY ( 4) C 12             0.00059     1.71783
  375. RY ( 5) C 12             0.00031     2.11121
  376. RY ( 6) C 12             0.00018     3.22452
  377. RY ( 7) C 12             0.00018     2.79220
  378. RY ( 8) C 12             0.00013     3.26713
  379. RY ( 9) C 12             0.00011     3.20737
  380. RY (10) C 12             0.00007     3.11873
  381. RY (11) C 12             0.00006     3.08068
  382. RY (12) C 12             0.00005     2.55244
  383. RY (13) C 12             0.00003     3.65329
  384. RY (14) C 12             0.00002     3.48727
  385. RY (15) C 12             0.00001     2.73268
  386. RY (16) C 12             0.00001     3.76878
  387. RY (17) C 12             0.00000     3.64379
  388. RY (18) C 12             0.00000     2.94318
  389. RY (19) C 12             0.00000     3.03941
  390. RY (20) C 12             0.00000    10.02831
  391. RY (21) C 12             0.00000     6.47186
  392. RY (22) C 12             0.00000     4.32646
  393. RY (23) C 12             0.00000     4.41554
  394. RY (24) C 12             0.00000     6.17908
  395. RY (25) C 12             0.00000     5.65156
  396. RY (26) C 12             0.00000     5.16856
  397. RY ( 1) H 13             0.00039     0.78650
  398. RY ( 2) H 13             0.00006     2.53056
  399. RY ( 3) H 13             0.00004     2.55363
  400. RY ( 4) H 13             0.00001     2.35391
  401. RY ( 5) H 13             0.00000     2.71031
  402. RY ( 1) H 14             0.00075     0.73306
  403. RY ( 2) H 14             0.00006     2.49647
  404. RY ( 3) H 14             0.00003     2.45011
  405. RY ( 4) H 14             0.00002     2.52828
  406. RY ( 5) H 14             0.00000     2.75397
  407. RY ( 1) H 15             0.00041     0.82281
  408. RY ( 2) H 15             0.00005     2.58300
  409. RY ( 3) H 15             0.00004     2.63570
  410. RY ( 4) H 15             0.00001     2.48025
  411. RY ( 5) H 15             0.00000     2.66690
  412. RY ( 1) H 16             0.00067     0.83697
  413. RY ( 2) H 16             0.00005     2.57855
  414. RY ( 3) H 16             0.00003     2.55627
  415. RY ( 4) H 16             0.00001     2.73334
  416. RY ( 5) H 16             0.00000     2.49659
  417. RY ( 1) H 17             0.00054     0.75283
  418. RY ( 2) H 17             0.00008     2.36637
  419. RY ( 3) H 17             0.00005     2.33090
  420. RY ( 4) H 17             0.00004     2.68253
  421. RY ( 5) H 17             0.00000     3.20085
  422. RY ( 1) H 18             0.00035     0.73452
  423. RY ( 2) H 18             0.00008     2.35756
  424. RY ( 3) H 18             0.00005     2.26985
  425. RY ( 4) H 18             0.00004     2.70575
  426. RY ( 5) H 18             0.00000     3.17959
  427. RY ( 1) H 19             0.00036     1.08606
  428. RY ( 2) H 19             0.00006     2.06380
  429. RY ( 3) H 19             0.00005     2.35030
  430. RY ( 4) H 19             0.00003     2.76255
  431. RY ( 5) H 19             0.00000     3.16247
          -------------------------------
                 Total Lewis   55.04719  ( 98.2986%)
           Valence non-Lewis    0.88075  (  1.5728%)
           Rydberg non-Lewis    0.07206  (  0.1287%)
          -------------------------------
               Total unit  1   56.00000  (100.0000%)
              Charge unit  1    0.00000

 $CHOOSE
  ALPHA
   LONE 1 3 3 2 8 1 9 3 END
   BOND S 1 2 S 2 3 D 2 12 S 3 4 S 4 5 S 4 13 S 4 14 S 5 6 S 5 15 S 5 16 D 6 7
        S 6 12 S 7 8 S 7 17 S 8 9 S 8 10 D 10 11 S 10 18 S 11 12 S 11 19 END
  END
  BETA
   LONE 1 2 3 2 9 3 END
   BOND D 1 2 S 2 3 S 2 12 S 3 4 S 4 5 S 4 13 S 4 14 S 5 6 S 5 15 S 5 16 S 6 7
        D 6 12 D 7 8 S 7 17 S 8 9 S 8 10 D 10 11 S 10 18 S 11 12 S 11 19 END
  END
 $END

 NBO analysis completed in 13.39 CPU seconds (14 wall seconds)
 Maximum scratch memory used by NBO was 2237499 words (17.07 MB)
 Maximum scratch memory used by G16NBO was 382273 words (2.92 MB)

 Opening RunExU unformatted file "/home/rpaton/arbr500/tzvp/fukui/Gau-2243464.EUF"
 Read unf file /home/rpaton/arbr500/tzvp/fukui/Gau-2243464.EUF:
 Label Gaussian matrix elements                                         IVers= 2 NLab= 2 Version=ES64L-G16RevC.01
 Title arbr32_wb97xd_redcreated by GaussianPrep                        
 NAtoms=    19 NBasis=   431 NBsUse=   431 ICharg=    -1 Multip=     2 NE=   113 Len12L=8 Len4L=8 IOpCl= 1 ICGU=112
 GAUSSIAN SCALARS                    NI= 1 NR= 1 NTot=       1 LenBuf=    2 NRI=1 N=    1000
 NPA CHARGES                         NI= 0 NR= 1 NTot=      19 LenBuf= 2048 NRI=1 N=      19
 Recovered energy= -3071.87541789     dipole=      1.560703221017     -1.843435236606      0.267685209876
 Unable to Open any file for archive entry.
 1\1\GINC-DYNAMO\SP\UwB97XD\def2TZVP\C9H7Br1O2(1-,2)\RPATON\28-Sep-2024
 \0\\# pop=(nbo6,hirshfeld) wb97xd/def2tzvp\\arbr32_wb97xd_redcreated b
 y GaussianPrep\\-1,2\O,0,-3.331901,1.885234,-0.225017\C,0,-2.854776,0.
 797941,-0.06833\O,0,-3.662999,-0.273997,0.028617\C,0,-3.120143,-1.5217
 15,0.4598\C,0,-1.852047,-1.870697,-0.288894\C,0,-0.874939,-0.741721,-0
 .141779\C,0,0.498647,-0.936394,-0.139498\C,0,1.340758,0.153195,-0.0010
 53\Br,0,3.211811,-0.123427,0.012241\C,0,0.842795,1.441648,0.131283\C,0
 ,-0.525361,1.631977,0.120176\C,0,-1.384917,0.547987,-0.011561\H,0,-3.9
 07533,-2.251965,0.285399\H,0,-2.926537,-1.469372,1.535704\H,0,-1.43797
 6,-2.801481,0.101666\H,0,-2.080394,-2.031969,-1.346719\H,0,0.908478,-1
 .932916,-0.23986\H,0,1.516693,2.279957,0.237939\H,0,-0.947006,2.624467
 ,0.207773\\Version=ES64L-G16RevC.01\State=2-A\HF=-3071.8754179\S2=0.76
 6162\S2-1=0.\S2A=0.750154\RMSD=5.490e-09\Dipole=1.5607031,-1.8434353,0
 .2676852\Quadrupole=-20.2301152,8.5613147,11.6688005,11.8742137,-1.823
 9397,0.7645908\PG=C01 [X(C9H7Br1O2)]\\@
 The archive entry for this job was punched.


 MY GROUP MEETINGS AREN'T VERY STRUCTURED.
     -- PROF. M. S. GORDON, OCT. 5, 1984
 Job cpu time:       0 days  1 hours 44 minutes 22.2 seconds.
 Elapsed time:       0 days  0 hours  4 minutes 23.4 seconds.
 File lengths (MBytes):  RWF=    180 Int=      0 D2E=      0 Chk=     14 Scr=      1
 Normal termination of Gaussian 16 at Sat Sep 28 21:38:58 2024.
