 Entering Gaussian System, Link 0=/usr/local/Gaussian/G16C/g16/g16
 Input=arbr34_wb97xd_red.com
 Output=arbr34_wb97xd_red.log
 Initial command:
 /usr/local/Gaussian/G16C/g16/l1.exe "/home/rpaton/arbr500/tzvp/fukui/Gau-2270414.inp" -scrdir="/home/rpaton/arbr500/tzvp/fukui/"
 Entering Link 1 = /usr/local/Gaussian/G16C/g16/l1.exe PID=   2270415.
  
 Copyright (c) 1988-2019, Gaussian, Inc.  All Rights Reserved.
  
 This is part of the Gaussian(R) 16 program.  It is based on
 the Gaussian(R) 09 system (copyright 2009, Gaussian, Inc.),
 the Gaussian(R) 03 system (copyright 2003, Gaussian, Inc.),
 the Gaussian(R) 98 system (copyright 1998, Gaussian, Inc.),
 the Gaussian(R) 94 system (copyright 1995, Gaussian, Inc.),
 the Gaussian 92(TM) system (copyright 1992, Gaussian, Inc.),
 the Gaussian 90(TM) system (copyright 1990, Gaussian, Inc.),
 the Gaussian 88(TM) system (copyright 1988, Gaussian, Inc.),
 the Gaussian 86(TM) system (copyright 1986, Carnegie Mellon
 University), and the Gaussian 82(TM) system (copyright 1983,
 Carnegie Mellon University). Gaussian is a federally registered
 trademark of Gaussian, Inc.
  
 This software contains proprietary and confidential information,
 including trade secrets, belonging to Gaussian, Inc.
  
 This software is provided under written license and may be
 used, copied, transmitted, or stored only in accord with that
 written license.
  
 The following legend is applicable only to US Government
 contracts under FAR:
  
                    RESTRICTED RIGHTS LEGEND
  
 Use, reproduction and disclosure by the US Government is
 subject to restrictions as set forth in subparagraphs (a)
 and (c) of the Commercial Computer Software - Restricted
 Rights clause in FAR 52.227-19.
  
 Gaussian, Inc.
 340 Quinnipiac St., Bldg. 40, Wallingford CT 06492
  
  
 ---------------------------------------------------------------
 Warning -- This program may not be used in any manner that
 competes with the business of Gaussian, Inc. or will provide
 assistance to any competitor of Gaussian, Inc.  The licensee
 of this program is prohibited from giving any competitor of
 Gaussian, Inc. access to this program.  By using this program,
 the user acknowledges that Gaussian, Inc. is engaged in the
 business of creating and licensing software in the field of
 computational chemistry and represents and warrants to the
 licensee that it is not a competitor of Gaussian, Inc. and that
 it will not use this program in any manner prohibited above.
 ---------------------------------------------------------------
  

 Cite this work as:
 Gaussian 16, Revision C.01,
 M. J. Frisch, G. W. Trucks, H. B. Schlegel, G. E. Scuseria, 
 M. A. Robb, J. R. Cheeseman, G. Scalmani, V. Barone, 
 G. A. Petersson, H. Nakatsuji, X. Li, M. Caricato, A. V. Marenich, 
 J. Bloino, B. G. Janesko, R. Gomperts, B. Mennucci, H. P. Hratchian, 
 J. V. Ortiz, A. F. Izmaylov, J. L. Sonnenberg, D. Williams-Young, 
 F. Ding, F. Lipparini, F. Egidi, J. Goings, B. Peng, A. Petrone, 
 T. Henderson, D. Ranasinghe, V. G. Zakrzewski, J. Gao, N. Rega, 
 G. Zheng, W. Liang, M. Hada, M. Ehara, K. Toyota, R. Fukuda, 
 J. Hasegawa, M. Ishida, T. Nakajima, Y. Honda, O. Kitao, H. Nakai, 
 T. Vreven, K. Throssell, J. A. Montgomery, Jr., J. E. Peralta, 
 F. Ogliaro, M. J. Bearpark, J. J. Heyd, E. N. Brothers, K. N. Kudin, 
 V. N. Staroverov, T. A. Keith, R. Kobayashi, J. Normand, 
 K. Raghavachari, A. P. Rendell, J. C. Burant, S. S. Iyengar, 
 J. Tomasi, M. Cossi, J. M. Millam, M. Klene, C. Adamo, R. Cammi, 
 J. W. Ochterski, R. L. Martin, K. Morokuma, O. Farkas, 
 J. B. Foresman, and D. J. Fox, Gaussian, Inc., Wallingford CT, 2019.
 
 ******************************************
 Gaussian 16:  ES64L-G16RevC.01  3-Jul-2019
                28-Sep-2024 
 ******************************************
 %chk=arbr34_wb97xd_red.chk
 %mem=48GB
 %nprocshared=24
 Will use up to   24 processors via shared memory.
 --------------------------------------
 # pop=(nbo6,hirshfeld) wb97xd/def2tzvp
 --------------------------------------
 1/38=1,172=1/1;
 2/12=2,17=6,18=5,40=1/2;
 3/5=44,7=101,11=2,25=1,30=1,74=-58/1,2,3;
 4//1;
 5/5=2,38=5/2;
 6/7=2,8=2,9=2,10=2,28=1,40=1,79=1,113=1,114=1,124=3103,126=1/1,12;
 99/5=1,9=1/99;
 ----------------------------------------
 arbr34_wb97xd_redcreated by GaussianPrep
 ----------------------------------------
 Symbolic Z-matrix:
 Charge = -1 Multiplicity = 2
 Br                    3.81944  -0.11167  0. 
 C                     1.94045   0.14343   0. 
 C                     1.43445   1.43586   0. 
 C                     0.06234   1.63584   0. 
 C                    -0.78157   0.53687   0. 
 C                    -0.25577  -0.75802   0. 
 C                     1.10948  -0.96781   0. 
 C                    -1.36989  -1.77202  0. 
 C                    -2.60302  -0.90569   0. 
 C                    -3.93455  -1.27575   0. 
 C                    -4.90783  -0.2841    0. 
 C                    -4.55028   1.05938   0. 
 C                    -3.21515   1.43507  0. 
 C                    -2.24421   0.44542  0. 
 H                     2.11076   2.27943   0. 
 H                    -0.3337    2.64375  0. 
 H                     1.5277   -1.96588   0. 
 H                    -1.32712  -2.42047  -0.8791 
 H                    -1.32713  -2.42047   0.87909 
 H                    -4.21993  -2.32107   0. 
 H                    -5.9548   -0.5596    0. 
 H                    -5.32198   1.81873   0. 
 H                    -2.94084   2.48295   0. 
 
                          Input orientation:                          
 ---------------------------------------------------------------------
 Center     Atomic      Atomic             Coordinates (Angstroms)
 Number     Number       Type             X           Y           Z
 ---------------------------------------------------------------------
      1         35           0        3.819441   -0.111666   -0.000001
      2          6           0        1.940451    0.143434    0.000003
      3          6           0        1.434452    1.435857    0.000001
      4          6           0        0.062340    1.635844    0.000000
      5          6           0       -0.781567    0.536872    0.000000
      6          6           0       -0.255770   -0.758021    0.000002
      7          6           0        1.109476   -0.967808    0.000003
      8          6           0       -1.369891   -1.772021   -0.000002
      9          6           0       -2.603024   -0.905689    0.000000
     10          6           0       -3.934550   -1.275751    0.000001
     11          6           0       -4.907833   -0.284097    0.000000
     12          6           0       -4.550283    1.059384    0.000000
     13          6           0       -3.215154    1.435071   -0.000002
     14          6           0       -2.244210    0.445415   -0.000002
     15          1           0        2.110761    2.279434    0.000000
     16          1           0       -0.333704    2.643750   -0.000001
     17          1           0        1.527701   -1.965881    0.000002
     18          1           0       -1.327123   -2.420471   -0.879096
     19          1           0       -1.327126   -2.420471    0.879091
     20          1           0       -4.219932   -2.321068    0.000000
     21          1           0       -5.954802   -0.559597    0.000000
     22          1           0       -5.321985    1.818730    0.000001
     23          1           0       -2.940836    2.482950    0.000000
 ---------------------------------------------------------------------
                    Distance matrix (angstroms):
                    1          2          3          4          5
     1  Br   0.000000
     2  C    1.896228   0.000000
     3  C    2.843062   1.387945   0.000000
     4  C    4.143621   2.398872   1.386610   0.000000
     5  C    4.646491   2.750305   2.391425   1.385611   0.000000
     6  C    4.126151   2.374028   2.769468   2.414909   1.397573
     7  C    2.841987   1.387580   2.425534   2.806332   2.416631
     8  C    5.448481   3.824570   4.260847   3.696597   2.382669
     9  C    6.471362   4.663027   4.667339   3.682873   2.323508
    10  C    7.840885   6.043982   6.014898   4.944948   3.636881
    11  C    8.728977   6.861616   6.571364   5.328113   4.207144
    12  C    8.451251   6.555043   5.996564   4.648505   3.804765
    13  C    7.202633   5.314940   4.649606   3.283638   2.594052
    14  C    6.089187   4.195543   3.809663   2.595630   1.465500
    15  H    2.938868   2.142779   1.081210   2.147146   3.376697
    16  H    4.984068   3.379846   2.141350   1.082924   2.153954
    17  H    2.947912   2.149319   3.403016   3.888407   3.405362
    18  H    5.708810   4.245405   4.823938   4.376883   3.133101
    19  H    5.708812   4.245405   4.823938   4.376883   3.133100
    20  H    8.337444   6.635065   6.788707   5.830524   4.471037
    21  H    9.784501   7.926492   7.653947   6.405151   5.288157
    22  H    9.343024   7.453160   6.767277   5.387430   4.717897
    23  H    7.241090   5.412975   4.498839   3.120361   2.906830
                    6          7          8          9         10
     6  C    0.000000
     7  C    1.381270   0.000000
     8  C    1.506473   2.606534   0.000000
     9  C    2.351894   3.713020   1.507033   0.000000
    10  C    3.715033   5.053417   2.612233   1.381994   0.000000
    11  C    4.676141   6.056027   3.838092   2.387158   1.389481
    12  C    4.663240   6.011853   4.258139   2.766465   2.414950
    13  C    3.683423   4.947348   3.700059   2.419475   2.804654
    14  C    2.324253   3.639287   2.383581   1.397938   2.412398
    15  H    3.850533   3.398110   5.341276   5.689005   7.013211
    16  H    3.402664   3.889231   4.535716   4.212877   5.322460
    17  H    2.153995   1.082156   2.904070   4.264610   5.505676
    18  H    2.164336   2.969859   1.093217   2.166864   2.980247
    19  H    2.164334   2.969858   1.093216   2.166860   2.980242
    20  H    4.261185   5.498536   2.902445   2.148881   1.083573
    21  H    5.702485   7.076062   4.742508   3.369599   2.143431
    22  H    5.683853   7.009171   5.339713   3.849053   3.391281
    23  H    4.208738   5.320973   4.535708   3.405436   3.887840
                   11         12         13         14         15
    11  C    0.000000
    12  C    1.390246   0.000000
    13  C    2.412613   1.386979   0.000000
    14  C    2.761716   2.386405   1.386417   0.000000
    15  H    7.472105   6.771856   5.392432   4.725399   0.000000
    16  H    5.430925   4.504415   3.124685   2.912509   2.471464
    17  H    6.651654   6.789265   5.836193   4.476791   4.285167
    18  H    4.261266   4.823998   4.382085   3.134830   5.889055
    19  H    4.261262   4.823996   4.382084   3.134829   5.889056
    20  H    2.149990   3.396555   3.888208   3.399545   7.825745
    21  H    1.082610   2.143309   3.388860   3.844287   8.550638
    22  H    2.143223   1.082650   2.141479   3.370266   7.447010
    23  H    3.394941   2.148688   1.083190   2.153332   5.055695
                   16         17         18         19         20
    16  H    0.000000
    17  H    4.971270   0.000000
    18  H    5.235076   3.021504   0.000000
    19  H    5.235076   3.021504   1.758187   0.000000
    20  H    6.304933   5.758597   3.025068   3.025063   0.000000
    21  H    6.469789   7.613507   5.064689   5.064685   2.472358
    22  H    5.056046   7.825693   5.890888   5.890885   4.283976
    23  H    2.612086   6.305547   5.236451   5.236449   4.971386
                   21         22         23
    21  H    0.000000
    22  H    2.461076   0.000000
    23  H    4.282649   2.472056   0.000000
 Stoichiometry    C13H9Br(1-,2)
 Framework group  C1[X(C13H9Br)]
 Deg. of freedom    63
 Full point group                 C1      NOp   1
 Largest Abelian subgroup         C1      NOp   1
 Largest concise Abelian subgroup C1      NOp   1
                         Standard orientation:                         
 ---------------------------------------------------------------------
 Center     Atomic      Atomic             Coordinates (Angstroms)
 Number     Number       Type             X           Y           Z
 ---------------------------------------------------------------------
      1         35           0       -3.819441   -0.111666    0.000001
      2          6           0       -1.940451    0.143434   -0.000003
      3          6           0       -1.434452    1.435857   -0.000001
      4          6           0       -0.062340    1.635844   -0.000000
      5          6           0        0.781567    0.536872   -0.000000
      6          6           0        0.255770   -0.758021   -0.000002
      7          6           0       -1.109476   -0.967808   -0.000003
      8          6           0        1.369891   -1.772021    0.000002
      9          6           0        2.603024   -0.905689   -0.000000
     10          6           0        3.934550   -1.275751   -0.000001
     11          6           0        4.907833   -0.284097   -0.000000
     12          6           0        4.550283    1.059384   -0.000000
     13          6           0        3.215154    1.435071    0.000002
     14          6           0        2.244210    0.445415    0.000002
     15          1           0       -2.110761    2.279434   -0.000000
     16          1           0        0.333704    2.643750    0.000001
     17          1           0       -1.527701   -1.965881   -0.000002
     18          1           0        1.327123   -2.420471    0.879096
     19          1           0        1.327126   -2.420471   -0.879091
     20          1           0        4.219932   -2.321068   -0.000000
     21          1           0        5.954802   -0.559597   -0.000000
     22          1           0        5.321985    1.818730   -0.000001
     23          1           0        2.940836    2.482950   -0.000000
 ---------------------------------------------------------------------
 Rotational constants (GHZ):           2.1683567           0.2152623           0.1960588
 Standard basis: def2TZVP (5D, 7F)
 There are   577 symmetry adapted cartesian basis functions of A   symmetry.
 There are   505 symmetry adapted basis functions of A   symmetry.
   505 basis functions,   849 primitive gaussians,   577 cartesian basis functions
    62 alpha electrons       61 beta electrons
       nuclear repulsion energy      1043.2012901792 Hartrees.
 NAtoms=   23 NActive=   23 NUniq=   23 SFac= 1.00D+00 NAtFMM=   60 NAOKFM=F Big=F
 Integral buffers will be    131072 words long.
 Raffenetti 2 integral format.
 Two-electron integral symmetry is turned on.
 Nuclear repulsion after empirical dispersion term =     1043.1866171284 Hartrees.
 One-electron integrals computed using PRISM.
   1 Symmetry operations used in ECPInt.
 ECPInt:  NShTT=   19110 NPrTT=   62860 LenC2=   17702 LenP2D=   42924.
 LDataN:  DoStor=T MaxTD1= 6 Len=  172
 NBasis=   505 RedAO= T EigKep=  5.76D-06  NBF=   505
 NBsUse=   505 1.00D-06 EigRej= -1.00D+00 NBFU=   505
 ExpMin= 9.52D-02 ExpMax= 5.65D+05 ExpMxC= 5.46D+03 IAcc=3 IRadAn=         5 AccDes= 0.00D+00
 Harris functional with IExCor= 4639 and IRadAn=       5 diagonalized for initial guess.
 HarFok:  IExCor= 4639 AccDes= 0.00D+00 IRadAn=         5 IDoV= 1 UseB2=F ITyADJ=14
 ICtDFT=  3500011 ScaDFX=  1.000000  1.000000  1.000000  1.000000
 FoFCou: FMM=F IPFlag=           0 FMFlag=      100000 FMFlg1=           0
         NFxFlg=           0 DoJE=T BraDBF=F KetDBF=T FulRan=T
         wScrn=  0.000000 ICntrl=       500 IOpCl=  0 I1Cent=   200000004 NGrid=           0
         NMat0=    1 NMatS0=      1 NMatT0=    0 NMatD0=    1 NMtDS0=    0 NMtDT0=    0
 Petite list used in FoFCou.
 Initial guess <Sx>= 0.0000 <Sy>= 0.0000 <Sz>= 0.5000 <S**2>= 0.7500 S= 0.5000
 Requested convergence on RMS density matrix=1.00D-08 within 128 cycles.
 Requested convergence on MAX density matrix=1.00D-06.
 Requested convergence on             energy=1.00D-06.
 No special actions if energy rises.
 Integral accuracy reduced to 1.0D-05 until final iterations.
 Rare condition: small coef for last iteration:  0.000D+00
 Rare condition: small coef for last iteration:  0.000D+00
 Problem detected with inexpensive integrals.
 Switching to full accuracy and repeating last cycle.
 SCF Done:  E(UwB97XD) =  -3075.02175386     A.U. after   32 cycles
            NFock= 32  Conv=0.65D-08     -V/T= 2.0019
 <Sx>= 0.0000 <Sy>= 0.0000 <Sz>= 0.5000 <S**2>= 0.7747 S= 0.5123
 <L.S>= 0.000000000000E+00
 Annihilation of the first spin contaminant:
 S**2 before annihilation     0.7747,   after     0.7504

 **********************************************************************

            Population analysis using the SCF Density.

 **********************************************************************

 Orbital symmetries:
 Alpha Orbitals:
       Occupied  (A) (A) (A) (A) (A) (A) (A) (A) (A) (A) (A) (A)
                 (A) (A) (A) (A) (A) (A) (A) (A) (A) (A) (A) (A)
                 (A) (A) (A) (A) (A) (A) (A) (A) (A) (A) (A) (A)
                 (A) (A) (A) (A) (A) (A) (A) (A) (A) (A) (A) (A)
                 (A) (A) (A) (A) (A) (A) (A) (A) (A) (A) (A) (A)
                 (A) (A)
       Virtual   (A) (A) (A) (A) (A) (A) (A) (A) (A) (A) (A) (A)
                 (A) (A) (A) (A) (A) (A) (A) (A) (A) (A) (A) (A)
                 (A) (A) (A) (A) (A) (A) (A) (A) (A) (A) (A) (A)
                 (A) (A) (A) (A) (A) (A) (A) (A) (A) (A) (A) (A)
                 (A) (A) (A) (A) (A) (A) (A) (A) (A) (A) (A) (A)
                 (A) (A) (A) (A) (A) (A) (A) (A) (A) (A) (A) (A)
                 (A) (A) (A) (A) (A) (A) (A) (A) (A) (A) (A) (A)
                 (A) (A) (A) (A) (A) (A) (A) (A) (A) (A) (A) (A)
                 (A) (A) (A) (A) (A) (A) (A) (A) (A) (A) (A) (A)
                 (A) (A) (A) (A) (A) (A) (A) (A) (A) (A) (A) (A)
                 (A) (A) (A) (A) (A) (A) (A) (A) (A) (A) (A) (A)
                 (A) (A) (A) (A) (A) (A) (A) (A) (A) (A) (A) (A)
                 (A) (A) (A) (A) (A) (A) (A) (A) (A) (A) (A) (A)
                 (A) (A) (A) (A) (A) (A) (A) (A) (A) (A) (A) (A)
                 (A) (A) (A) (A) (A) (A) (A) (A) (A) (A) (A) (A)
                 (A) (A) (A) (A) (A) (A) (A) (A) (A) (A) (A) (A)
                 (A) (A) (A) (A) (A) (A) (A) (A) (A) (A) (A) (A)
                 (A) (A) (A) (A) (A) (A) (A) (A) (A) (A) (A) (A)
                 (A) (A) (A) (A) (A) (A) (A) (A) (A) (A) (A) (A)
                 (A) (A) (A) (A) (A) (A) (A) (A) (A) (A) (A) (A)
                 (A) (A) (A) (A) (A) (A) (A) (A) (A) (A) (A) (A)
                 (A) (A) (A) (A) (A) (A) (A) (A) (A) (A) (A) (A)
                 (A) (A) (A) (A) (A) (A) (A) (A) (A) (A) (A) (A)
                 (A) (A) (A) (A) (A) (A) (A) (A) (A) (A) (A) (A)
                 (A) (A) (A) (A) (A) (A) (A) (A) (A) (A) (A) (A)
                 (A) (A) (A) (A) (A) (A) (A) (A) (A) (A) (A) (A)
                 (A) (A) (A) (A) (A) (A) (A) (A) (A) (A) (A) (A)
                 (A) (A) (A) (A) (A) (A) (A) (A) (A) (A) (A) (A)
                 (A) (A) (A) (A) (A) (A) (A) (A) (A) (A) (A) (A)
                 (A) (A) (A) (A) (A) (A) (A) (A) (A) (A) (A) (A)
                 (A) (A) (A) (A) (A) (A) (A) (A) (A) (A) (A) (A)
                 (A) (A) (A) (A) (A) (A) (A) (A) (A) (A) (A) (A)
                 (A) (A) (A) (A) (A) (A) (A) (A) (A) (A) (A) (A)
                 (A) (A) (A) (A) (A) (A) (A) (A) (A) (A) (A) (A)
                 (A) (A) (A) (A) (A) (A) (A) (A) (A) (A) (A) (A)
                 (A) (A) (A) (A) (A) (A) (A) (A) (A) (A) (A) (A)
                 (A) (A) (A) (A) (A) (A) (A) (A) (A) (A) (A)
 Beta  Orbitals:
       Occupied  (A) (A) (A) (A) (A) (A) (A) (A) (A) (A) (A) (A)
                 (A) (A) (A) (A) (A) (A) (A) (A) (A) (A) (A) (A)
                 (A) (A) (A) (A) (A) (A) (A) (A) (A) (A) (A) (A)
                 (A) (A) (A) (A) (A) (A) (A) (A) (A) (A) (A) (A)
                 (A) (A) (A) (A) (A) (A) (A) (A) (A) (A) (A) (A)
                 (A)
       Virtual   (A) (A) (A) (A) (A) (A) (A) (A) (A) (A) (A) (A)
                 (A) (A) (A) (A) (A) (A) (A) (A) (A) (A) (A) (A)
                 (A) (A) (A) (A) (A) (A) (A) (A) (A) (A) (A) (A)
                 (A) (A) (A) (A) (A) (A) (A) (A) (A) (A) (A) (A)
                 (A) (A) (A) (A) (A) (A) (A) (A) (A) (A) (A) (A)
                 (A) (A) (A) (A) (A) (A) (A) (A) (A) (A) (A) (A)
                 (A) (A) (A) (A) (A) (A) (A) (A) (A) (A) (A) (A)
                 (A) (A) (A) (A) (A) (A) (A) (A) (A) (A) (A) (A)
                 (A) (A) (A) (A) (A) (A) (A) (A) (A) (A) (A) (A)
                 (A) (A) (A) (A) (A) (A) (A) (A) (A) (A) (A) (A)
                 (A) (A) (A) (A) (A) (A) (A) (A) (A) (A) (A) (A)
                 (A) (A) (A) (A) (A) (A) (A) (A) (A) (A) (A) (A)
                 (A) (A) (A) (A) (A) (A) (A) (A) (A) (A) (A) (A)
                 (A) (A) (A) (A) (A) (A) (A) (A) (A) (A) (A) (A)
                 (A) (A) (A) (A) (A) (A) (A) (A) (A) (A) (A) (A)
                 (A) (A) (A) (A) (A) (A) (A) (A) (A) (A) (A) (A)
                 (A) (A) (A) (A) (A) (A) (A) (A) (A) (A) (A) (A)
                 (A) (A) (A) (A) (A) (A) (A) (A) (A) (A) (A) (A)
                 (A) (A) (A) (A) (A) (A) (A) (A) (A) (A) (A) (A)
                 (A) (A) (A) (A) (A) (A) (A) (A) (A) (A) (A) (A)
                 (A) (A) (A) (A) (A) (A) (A) (A) (A) (A) (A) (A)
                 (A) (A) (A) (A) (A) (A) (A) (A) (A) (A) (A) (A)
                 (A) (A) (A) (A) (A) (A) (A) (A) (A) (A) (A) (A)
                 (A) (A) (A) (A) (A) (A) (A) (A) (A) (A) (A) (A)
                 (A) (A) (A) (A) (A) (A) (A) (A) (A) (A) (A) (A)
                 (A) (A) (A) (A) (A) (A) (A) (A) (A) (A) (A) (A)
                 (A) (A) (A) (A) (A) (A) (A) (A) (A) (A) (A) (A)
                 (A) (A) (A) (A) (A) (A) (A) (A) (A) (A) (A) (A)
                 (A) (A) (A) (A) (A) (A) (A) (A) (A) (A) (A) (A)
                 (A) (A) (A) (A) (A) (A) (A) (A) (A) (A) (A) (A)
                 (A) (A) (A) (A) (A) (A) (A) (A) (A) (A) (A) (A)
                 (A) (A) (A) (A) (A) (A) (A) (A) (A) (A) (A) (A)
                 (A) (A) (A) (A) (A) (A) (A) (A) (A) (A) (A) (A)
                 (A) (A) (A) (A) (A) (A) (A) (A) (A) (A) (A) (A)
                 (A) (A) (A) (A) (A) (A) (A) (A) (A) (A) (A) (A)
                 (A) (A) (A) (A) (A) (A) (A) (A) (A) (A) (A) (A)
                 (A) (A) (A) (A) (A) (A) (A) (A) (A) (A) (A) (A)
 The electronic state is 2-A.
 Alpha  occ. eigenvalues -- -482.99205 -62.54063 -56.33138 -56.32840 -56.32836
 Alpha  occ. eigenvalues --  -10.17375 -10.15678 -10.14678 -10.14484 -10.14211
 Alpha  occ. eigenvalues --  -10.14130 -10.13695 -10.13625 -10.12859 -10.12686
 Alpha  occ. eigenvalues --  -10.12614 -10.12602 -10.12354  -8.68201  -6.50244
 Alpha  occ. eigenvalues --   -6.49277  -6.49259  -2.60662  -2.60371  -2.60358
 Alpha  occ. eigenvalues --   -2.59569  -2.59569  -0.84598  -0.81292  -0.77432
 Alpha  occ. eigenvalues --   -0.74066  -0.71047  -0.69834  -0.65268  -0.64575
 Alpha  occ. eigenvalues --   -0.58012  -0.53486  -0.52941  -0.52044  -0.46716
 Alpha  occ. eigenvalues --   -0.42905  -0.42365  -0.40190  -0.39361  -0.38410
 Alpha  occ. eigenvalues --   -0.37247  -0.35700  -0.34888  -0.34178  -0.32887
 Alpha  occ. eigenvalues --   -0.31206  -0.29124  -0.28950  -0.26975  -0.26598
 Alpha  occ. eigenvalues --   -0.26477  -0.23975  -0.21470  -0.19458  -0.18681
 Alpha  occ. eigenvalues --   -0.14980   0.00884
 Alpha virt. eigenvalues --    0.18830   0.20904   0.20996   0.22140   0.23591
 Alpha virt. eigenvalues --    0.24583   0.26204   0.27375   0.27697   0.29144
 Alpha virt. eigenvalues --    0.29364   0.29801   0.32004   0.33976   0.34209
 Alpha virt. eigenvalues --    0.35482   0.35838   0.36989   0.37573   0.38983
 Alpha virt. eigenvalues --    0.39684   0.40996   0.41007   0.41516   0.42126
 Alpha virt. eigenvalues --    0.42218   0.42999   0.43249   0.44232   0.44418
 Alpha virt. eigenvalues --    0.45329   0.45416   0.46775   0.46827   0.47021
 Alpha virt. eigenvalues --    0.47363   0.48342   0.50771   0.50988   0.51296
 Alpha virt. eigenvalues --    0.51554   0.52878   0.53861   0.54079   0.54912
 Alpha virt. eigenvalues --    0.55684   0.56071   0.56442   0.57128   0.58006
 Alpha virt. eigenvalues --    0.58498   0.59519   0.59674   0.59775   0.60359
 Alpha virt. eigenvalues --    0.60953   0.61103   0.62385   0.63148   0.63915
 Alpha virt. eigenvalues --    0.64290   0.65389   0.65979   0.66127   0.66789
 Alpha virt. eigenvalues --    0.67421   0.69093   0.69912   0.70015   0.71820
 Alpha virt. eigenvalues --    0.72354   0.72514   0.73879   0.75419   0.76158
 Alpha virt. eigenvalues --    0.77871   0.79246   0.80089   0.81635   0.82392
 Alpha virt. eigenvalues --    0.83939   0.84570   0.85049   0.87194   0.87496
 Alpha virt. eigenvalues --    0.87501   0.87985   0.89857   0.90541   0.91244
 Alpha virt. eigenvalues --    0.91292   0.91729   0.92471   0.94488   0.95635
 Alpha virt. eigenvalues --    0.96691   0.98094   0.98849   0.98851   0.99988
 Alpha virt. eigenvalues --    1.01457   1.01596   1.04327   1.04568   1.04682
 Alpha virt. eigenvalues --    1.06289   1.07040   1.07972   1.08895   1.12066
 Alpha virt. eigenvalues --    1.12526   1.13486   1.15119   1.15969   1.16127
 Alpha virt. eigenvalues --    1.18385   1.19511   1.20780   1.20794   1.21824
 Alpha virt. eigenvalues --    1.24025   1.24837   1.24948   1.26984   1.28260
 Alpha virt. eigenvalues --    1.29820   1.30785   1.33655   1.35831   1.37217
 Alpha virt. eigenvalues --    1.37434   1.37986   1.38221   1.41533   1.41716
 Alpha virt. eigenvalues --    1.41782   1.43077   1.44452   1.44795   1.46605
 Alpha virt. eigenvalues --    1.47447   1.48361   1.48598   1.51105   1.51376
 Alpha virt. eigenvalues --    1.54438   1.54777   1.55326   1.56330   1.56644
 Alpha virt. eigenvalues --    1.57459   1.58227   1.59926   1.60090   1.61015
 Alpha virt. eigenvalues --    1.62366   1.63439   1.64115   1.66509   1.67039
 Alpha virt. eigenvalues --    1.67549   1.69787   1.70606   1.70925   1.71679
 Alpha virt. eigenvalues --    1.72230   1.74533   1.75312   1.75718   1.75981
 Alpha virt. eigenvalues --    1.77155   1.78591   1.79508   1.79791   1.81534
 Alpha virt. eigenvalues --    1.81685   1.83052   1.84184   1.84941   1.86654
 Alpha virt. eigenvalues --    1.87481   1.87800   1.89779   1.91312   1.91822
 Alpha virt. eigenvalues --    1.93154   1.93395   1.93820   1.93985   1.95666
 Alpha virt. eigenvalues --    1.96909   1.97007   1.98627   2.00180   2.01749
 Alpha virt. eigenvalues --    2.05410   2.06648   2.07057   2.09670   2.10060
 Alpha virt. eigenvalues --    2.12618   2.13286   2.15843   2.16054   2.17807
 Alpha virt. eigenvalues --    2.19436   2.21359   2.21498   2.22907   2.27153
 Alpha virt. eigenvalues --    2.27476   2.28760   2.29233   2.31553   2.34454
 Alpha virt. eigenvalues --    2.34987   2.36560   2.37050   2.39896   2.40892
 Alpha virt. eigenvalues --    2.42356   2.43529   2.44056   2.44829   2.46333
 Alpha virt. eigenvalues --    2.46929   2.48070   2.52770   2.55849   2.57015
 Alpha virt. eigenvalues --    2.58105   2.62288   2.64468   2.64668   2.67934
 Alpha virt. eigenvalues --    2.68131   2.68895   2.71802   2.73398   2.73549
 Alpha virt. eigenvalues --    2.74988   2.76485   2.76623   2.80776   2.82589
 Alpha virt. eigenvalues --    2.83479   2.85488   2.85699   2.87021   2.88984
 Alpha virt. eigenvalues --    2.90061   2.90388   2.92149   2.92392   2.93276
 Alpha virt. eigenvalues --    2.93359   2.93724   2.94090   2.96854   2.97051
 Alpha virt. eigenvalues --    2.98604   2.99348   3.01333   3.01789   3.01890
 Alpha virt. eigenvalues --    3.04545   3.05342   3.06408   3.06599   3.08427
 Alpha virt. eigenvalues --    3.08640   3.10059   3.10665   3.11103   3.12020
 Alpha virt. eigenvalues --    3.14116   3.15674   3.16322   3.17422   3.19096
 Alpha virt. eigenvalues --    3.19488   3.20506   3.21622   3.23409   3.23997
 Alpha virt. eigenvalues --    3.25023   3.27340   3.27849   3.27926   3.28316
 Alpha virt. eigenvalues --    3.29500   3.30766   3.33082   3.34118   3.36564
 Alpha virt. eigenvalues --    3.37367   3.37814   3.38911   3.39289   3.39688
 Alpha virt. eigenvalues --    3.40653   3.41910   3.43133   3.43144   3.44810
 Alpha virt. eigenvalues --    3.44811   3.46579   3.47491   3.48198   3.48257
 Alpha virt. eigenvalues --    3.50464   3.51998   3.53254   3.54789   3.55323
 Alpha virt. eigenvalues --    3.55381   3.57655   3.59354   3.59454   3.59744
 Alpha virt. eigenvalues --    3.62275   3.63454   3.64299   3.65086   3.66473
 Alpha virt. eigenvalues --    3.67044   3.68709   3.69408   3.70097   3.72528
 Alpha virt. eigenvalues --    3.74038   3.74472   3.75706   3.76093   3.77225
 Alpha virt. eigenvalues --    3.77470   3.80486   3.81179   3.83454   3.83676
 Alpha virt. eigenvalues --    3.84116   3.85847   3.86624   3.87429   3.88055
 Alpha virt. eigenvalues --    3.88731   3.89450   3.94753   3.96693   3.99143
 Alpha virt. eigenvalues --    4.01359   4.03472   4.03920   4.05858   4.08554
 Alpha virt. eigenvalues --    4.10737   4.13086   4.15247   4.16361   4.18078
 Alpha virt. eigenvalues --    4.19319   4.23922   4.25467   4.25723   4.26893
 Alpha virt. eigenvalues --    4.29438   4.29608   4.33710   4.34430   4.34754
 Alpha virt. eigenvalues --    4.36799   4.38557   4.40745   4.40989   4.41987
 Alpha virt. eigenvalues --    4.43483   4.44312   4.45920   4.46299   4.46866
 Alpha virt. eigenvalues --    4.49566   4.50317   4.53297   4.54065   4.54412
 Alpha virt. eigenvalues --    4.57169   4.58455   4.58897   4.62781   4.62969
 Alpha virt. eigenvalues --    4.67427   4.69076   4.69146   4.71366   4.73142
 Alpha virt. eigenvalues --    4.76815   4.80378   4.82352   4.87203   4.92646
 Alpha virt. eigenvalues --    4.93484   4.95629   4.95716   5.00110   5.01683
 Alpha virt. eigenvalues --    5.05874   5.07478   5.08970   5.09639   5.11874
 Alpha virt. eigenvalues --    5.17706   5.19610   5.22364   5.28072   5.31945
 Alpha virt. eigenvalues --    5.35424   5.38181   5.49150   5.51194   5.57720
 Alpha virt. eigenvalues --    5.59411   5.64851   5.72129   5.73214   5.80129
 Alpha virt. eigenvalues --    5.84385   5.96291   6.01009   6.34925   7.99960
 Alpha virt. eigenvalues --   22.15422  22.75602  22.85071  22.92604  22.92619
 Alpha virt. eigenvalues --   22.96867  23.03162  23.09537  23.25969  23.26898
 Alpha virt. eigenvalues --   23.41537  23.90403  24.04756
  Beta  occ. eigenvalues -- -482.99206 -62.54061 -56.33143 -56.32840 -56.32827
  Beta  occ. eigenvalues --  -10.17027 -10.15679 -10.14794 -10.14488 -10.14312
  Beta  occ. eigenvalues --  -10.14089 -10.13617 -10.13602 -10.12785 -10.12431
  Beta  occ. eigenvalues --  -10.12384 -10.12374 -10.12196  -8.68200  -6.50255
  Beta  occ. eigenvalues --   -6.49277  -6.49246  -2.60667  -2.60376  -2.60349
  Beta  occ. eigenvalues --   -2.59562  -2.59562  -0.84253  -0.80913  -0.77127
  Beta  occ. eigenvalues --   -0.73825  -0.70582  -0.69502  -0.64860  -0.64443
  Beta  occ. eigenvalues --   -0.57379  -0.53318  -0.52605  -0.51623  -0.46592
  Beta  occ. eigenvalues --   -0.42615  -0.42121  -0.39933  -0.39071  -0.38209
  Beta  occ. eigenvalues --   -0.37094  -0.35503  -0.34764  -0.34030  -0.31838
  Beta  occ. eigenvalues --   -0.30338  -0.28958  -0.28764  -0.26838  -0.26284
  Beta  occ. eigenvalues --   -0.25725  -0.23952  -0.19943  -0.18346  -0.17451
  Beta  occ. eigenvalues --   -0.12913
  Beta virt. eigenvalues --    0.18397   0.18915   0.21392   0.21619   0.23557
  Beta virt. eigenvalues --    0.24600   0.25122   0.26267   0.27398   0.27676
  Beta virt. eigenvalues --    0.29157   0.29819   0.29971   0.32002   0.33959
  Beta virt. eigenvalues --    0.34189   0.35487   0.36943   0.36981   0.37596
  Beta virt. eigenvalues --    0.38938   0.40282   0.41022   0.41511   0.41542
  Beta virt. eigenvalues --    0.42152   0.42217   0.42986   0.43298   0.44295
  Beta virt. eigenvalues --    0.44704   0.45406   0.45468   0.46854   0.46904
  Beta virt. eigenvalues --    0.47075   0.47565   0.48396   0.50930   0.51048
  Beta virt. eigenvalues --    0.51616   0.51740   0.53073   0.54109   0.54168
  Beta virt. eigenvalues --    0.54901   0.55970   0.56324   0.56781   0.57215
  Beta virt. eigenvalues --    0.58100   0.58794   0.59621   0.59975   0.60045
  Beta virt. eigenvalues --    0.60467   0.61069   0.61299   0.62367   0.63256
  Beta virt. eigenvalues --    0.64106   0.64352   0.65472   0.66145   0.66196
  Beta virt. eigenvalues --    0.66846   0.67690   0.69208   0.70090   0.70221
  Beta virt. eigenvalues --    0.71858   0.72475   0.72602   0.74000   0.75495
  Beta virt. eigenvalues --    0.76298   0.77908   0.79345   0.80156   0.81652
  Beta virt. eigenvalues --    0.83133   0.84060   0.84739   0.85139   0.87239
  Beta virt. eigenvalues --    0.87621   0.87791   0.88066   0.89998   0.90602
  Beta virt. eigenvalues --    0.91390   0.91505   0.91816   0.92580   0.94972
  Beta virt. eigenvalues --    0.95748   0.96820   0.98115   0.98902   0.99270
  Beta virt. eigenvalues --    0.99997   1.01545   1.02082   1.04444   1.04970
  Beta virt. eigenvalues --    1.05089   1.06679   1.07145   1.07968   1.09035
  Beta virt. eigenvalues --    1.12103   1.12593   1.13882   1.15192   1.16206
  Beta virt. eigenvalues --    1.16273   1.18435   1.19791   1.20871   1.21307
  Beta virt. eigenvalues --    1.22146   1.24402   1.24961   1.25219   1.27122
  Beta virt. eigenvalues --    1.28327   1.30202   1.30968   1.33999   1.36277
  Beta virt. eigenvalues --    1.37334   1.37649   1.38134   1.38504   1.41713
  Beta virt. eigenvalues --    1.41826   1.42218   1.43320   1.44531   1.45106
  Beta virt. eigenvalues --    1.46749   1.47533   1.48420   1.48774   1.51359
  Beta virt. eigenvalues --    1.51567   1.54546   1.55090   1.55401   1.56642
  Beta virt. eigenvalues --    1.56751   1.57612   1.58552   1.60036   1.60494
  Beta virt. eigenvalues --    1.61147   1.62537   1.63622   1.64669   1.66680
  Beta virt. eigenvalues --    1.67515   1.67719   1.69900   1.70787   1.71021
  Beta virt. eigenvalues --    1.72264   1.72330   1.74645   1.75460   1.76081
  Beta virt. eigenvalues --    1.76405   1.77307   1.78732   1.79581   1.80121
  Beta virt. eigenvalues --    1.81642   1.81825   1.83163   1.84406   1.85057
  Beta virt. eigenvalues --    1.87019   1.87914   1.87972   1.89937   1.91852
  Beta virt. eigenvalues --    1.92031   1.93229   1.93832   1.94181   1.94265
  Beta virt. eigenvalues --    1.95788   1.97148   1.97310   1.99182   2.00290
  Beta virt. eigenvalues --    2.01871   2.05737   2.06781   2.07212   2.10153
  Beta virt. eigenvalues --    2.10502   2.12876   2.13922   2.16128   2.16264
  Beta virt. eigenvalues --    2.17903   2.19636   2.21477   2.21766   2.23102
  Beta virt. eigenvalues --    2.27262   2.27784   2.29068   2.29475   2.31738
  Beta virt. eigenvalues --    2.34681   2.35531   2.36899   2.37211   2.40278
  Beta virt. eigenvalues --    2.41139   2.42730   2.43749   2.44342   2.45095
  Beta virt. eigenvalues --    2.46527   2.47182   2.48275   2.52976   2.56129
  Beta virt. eigenvalues --    2.57320   2.58499   2.62559   2.64637   2.64906
  Beta virt. eigenvalues --    2.68137   2.68341   2.69108   2.72049   2.73698
  Beta virt. eigenvalues --    2.73744   2.75203   2.76667   2.76861   2.80902
  Beta virt. eigenvalues --    2.82848   2.83687   2.85750   2.86111   2.87312
  Beta virt. eigenvalues --    2.89163   2.90459   2.90496   2.92330   2.92690
  Beta virt. eigenvalues --    2.93481   2.93731   2.93872   2.94409   2.97013
  Beta virt. eigenvalues --    2.97391   2.98843   2.99691   3.01642   3.02124
  Beta virt. eigenvalues --    3.02153   3.04898   3.05614   3.06720   3.06919
  Beta virt. eigenvalues --    3.08683   3.08843   3.10497   3.10932   3.11274
  Beta virt. eigenvalues --    3.12164   3.14501   3.15887   3.16500   3.17794
  Beta virt. eigenvalues --    3.19403   3.19803   3.20733   3.21894   3.23640
  Beta virt. eigenvalues --    3.24175   3.25338   3.27671   3.28107   3.28236
  Beta virt. eigenvalues --    3.28682   3.29857   3.31104   3.33362   3.34402
  Beta virt. eigenvalues --    3.36943   3.37650   3.38056   3.39155   3.39460
  Beta virt. eigenvalues --    3.40020   3.40863   3.42095   3.43271   3.43565
  Beta virt. eigenvalues --    3.45157   3.45179   3.46828   3.47791   3.48557
  Beta virt. eigenvalues --    3.48627   3.50645   3.52497   3.53515   3.54918
  Beta virt. eigenvalues --    3.55555   3.55781   3.58140   3.59714   3.59837
  Beta virt. eigenvalues --    3.60036   3.62461   3.63680   3.64461   3.65258
  Beta virt. eigenvalues --    3.66819   3.67573   3.69197   3.69670   3.70239
  Beta virt. eigenvalues --    3.72653   3.74191   3.74960   3.75965   3.76468
  Beta virt. eigenvalues --    3.77378   3.77939   3.80895   3.81411   3.83738
  Beta virt. eigenvalues --    3.84069   3.84576   3.86090   3.87112   3.87559
  Beta virt. eigenvalues --    3.88495   3.88990   3.89556   3.94946   3.96893
  Beta virt. eigenvalues --    3.99507   4.01477   4.03682   4.04139   4.06175
  Beta virt. eigenvalues --    4.08818   4.10948   4.13458   4.15472   4.16540
  Beta virt. eigenvalues --    4.18326   4.19458   4.23969   4.25755   4.25853
  Beta virt. eigenvalues --    4.27124   4.29625   4.29768   4.34038   4.34701
  Beta virt. eigenvalues --    4.35020   4.36972   4.39239   4.41020   4.41173
  Beta virt. eigenvalues --    4.42522   4.43665   4.44559   4.46254   4.46481
  Beta virt. eigenvalues --    4.47314   4.50087   4.50486   4.53462   4.54208
  Beta virt. eigenvalues --    4.54850   4.57496   4.58674   4.59407   4.62896
  Beta virt. eigenvalues --    4.63085   4.67586   4.69288   4.69574   4.71661
  Beta virt. eigenvalues --    4.73352   4.76966   4.80612   4.82476   4.87638
  Beta virt. eigenvalues --    4.92898   4.93795   4.95777   4.95914   5.00318
  Beta virt. eigenvalues --    5.01897   5.06478   5.07683   5.09222   5.10046
  Beta virt. eigenvalues --    5.12164   5.17893   5.19776   5.22578   5.28275
  Beta virt. eigenvalues --    5.32119   5.35625   5.38348   5.49344   5.51332
  Beta virt. eigenvalues --    5.57929   5.59602   5.65014   5.72299   5.73400
  Beta virt. eigenvalues --    5.80304   5.84531   5.96452   6.01269   6.35053
  Beta virt. eigenvalues --    7.99984  22.15570  22.75752  22.85083  22.92645
  Beta virt. eigenvalues --   22.92941  22.96877  23.03354  23.09829  23.26131
  Beta virt. eigenvalues --   23.27080  23.41656  23.90544  24.04867
          Condensed to atoms (all electrons):
               1          2          3          4          5          6
     1  Br  35.069126   0.247760  -0.077886   0.025903  -0.004315   0.017914
     2  C    0.247760   5.263516   0.297383   0.069552  -0.117937   0.080794
     3  C   -0.077886   0.297383   5.146760   0.341753   0.054004  -0.123642
     4  C    0.025903   0.069552   0.341753   5.461320   0.236251   0.020030
     5  C   -0.004315  -0.117937   0.054004   0.236251   5.328369   0.424829
     6  C    0.017914   0.080794  -0.123642   0.020030   0.424829   5.221619
     7  C   -0.059074   0.165953   0.077938  -0.094653   0.044214   0.284380
     8  C   -0.001947   0.011891   0.004090   0.011828  -0.116327   0.342881
     9  C    0.000182  -0.000038  -0.002531   0.021212  -0.106821  -0.091845
    10  C    0.000001  -0.000261   0.000176  -0.002631  -0.000134   0.023109
    11  C   -0.000000   0.000021   0.000003   0.000094  -0.002659  -0.001096
    12  C    0.000000   0.000013  -0.000091  -0.001025   0.003288  -0.000343
    13  C   -0.000008  -0.000189  -0.000379   0.021851  -0.146012   0.017325
    14  C   -0.000472  -0.008466   0.011421  -0.153488   0.375883  -0.120116
    15  H   -0.004387  -0.092944   0.474264  -0.085664   0.019273  -0.004524
    16  H   -0.000492   0.014696  -0.079862   0.470955  -0.079323   0.015764
    17  H   -0.001981  -0.097092   0.019501  -0.007189   0.019887  -0.088089
    18  H    0.000022  -0.000623   0.000036  -0.000466  -0.000463   0.004091
    19  H    0.000022  -0.000623   0.000036  -0.000466  -0.000463   0.004090
    20  H    0.000000  -0.000003  -0.000002   0.000028  -0.000166   0.001159
    21  H   -0.000000  -0.000000   0.000000  -0.000004   0.000183   0.000015
    22  H   -0.000000  -0.000000  -0.000001   0.000019   0.000098  -0.000033
    23  H   -0.000001  -0.000020  -0.000158   0.006555  -0.015839   0.000541
               7          8          9         10         11         12
     1  Br  -0.059074  -0.001947   0.000182   0.000001  -0.000000   0.000000
     2  C    0.165953   0.011891  -0.000038  -0.000261   0.000021   0.000013
     3  C    0.077938   0.004090  -0.002531   0.000176   0.000003  -0.000091
     4  C   -0.094653   0.011828   0.021212  -0.002631   0.000094  -0.001025
     5  C    0.044214  -0.116327  -0.106821  -0.000134  -0.002659   0.003288
     6  C    0.284380   0.342881  -0.091845   0.023109  -0.001096  -0.000343
     7  C    5.607271  -0.146711   0.021942   0.001816  -0.000294   0.000263
     8  C   -0.146711   5.068960   0.320524  -0.147395   0.015358  -0.005735
     9  C    0.021942   0.320524   5.215709   0.384754   0.020628  -0.107791
    10  C    0.001816  -0.147395   0.384754   5.274643   0.316010   0.061765
    11  C   -0.000294   0.015358   0.020628   0.316010   5.147465   0.420944
    12  C    0.000263  -0.005735  -0.107791   0.061765   0.420944   4.931655
    13  C   -0.003334   0.030140   0.001347  -0.073520   0.007912   0.422972
    14  C    0.003973  -0.069866   0.444563   0.013998  -0.091876   0.034983
    15  H    0.018614   0.000319  -0.000070  -0.000002  -0.000000  -0.000002
    16  H   -0.003290  -0.000931   0.001001  -0.000050   0.000022  -0.000259
    17  H    0.487832  -0.011494   0.000733   0.000017  -0.000001  -0.000002
    18  H    0.004109   0.304813   0.004615   0.003973  -0.000466   0.000232
    19  H    0.004110   0.304815   0.004614   0.003973  -0.000466   0.000232
    20  H   -0.000001  -0.016127  -0.090463   0.478647  -0.083137   0.016463
    21  H    0.000000  -0.000210   0.020656  -0.092362   0.471482  -0.081965
    22  H   -0.000000   0.000187  -0.004025   0.014987  -0.075300   0.455581
    23  H   -0.000013  -0.000714   0.017395  -0.004004   0.012417  -0.073262
              13         14         15         16         17         18
     1  Br  -0.000008  -0.000472  -0.004387  -0.000492  -0.001981   0.000022
     2  C   -0.000189  -0.008466  -0.092944   0.014696  -0.097092  -0.000623
     3  C   -0.000379   0.011421   0.474264  -0.079862   0.019501   0.000036
     4  C    0.021851  -0.153488  -0.085664   0.470955  -0.007189  -0.000466
     5  C   -0.146012   0.375883   0.019273  -0.079323   0.019887  -0.000463
     6  C    0.017325  -0.120116  -0.004524   0.015764  -0.088089   0.004091
     7  C   -0.003334   0.003973   0.018614  -0.003290   0.487832   0.004109
     8  C    0.030140  -0.069866   0.000319  -0.000931  -0.011494   0.304813
     9  C    0.001347   0.444563  -0.000070   0.001001   0.000733   0.004615
    10  C   -0.073520   0.013998  -0.000002  -0.000050   0.000017   0.003973
    11  C    0.007912  -0.091876  -0.000000   0.000022  -0.000001  -0.000466
    12  C    0.422972   0.034983  -0.000002  -0.000259  -0.000002   0.000232
    13  C    5.356651   0.283399   0.000054   0.005705   0.000029  -0.000876
    14  C    0.283399   5.233050   0.000559  -0.014081   0.000181  -0.003552
    15  H    0.000054   0.000559   0.608396  -0.010561  -0.000013  -0.000003
    16  H    0.005705  -0.014081  -0.010561   0.613934   0.000083   0.000036
    17  H    0.000029   0.000181  -0.000013   0.000083   0.607312   0.001753
    18  H   -0.000876  -0.003552  -0.000003   0.000036   0.001753   0.655229
    19  H   -0.000876  -0.003551  -0.000003   0.000036   0.001753  -0.042247
    20  H   -0.006180   0.018906   0.000000   0.000002   0.000006   0.002007
    21  H    0.016837  -0.005459   0.000000  -0.000001  -0.000000  -0.000007
    22  H   -0.079815   0.016991   0.000000   0.000011   0.000000  -0.000002
    23  H    0.457502  -0.070358   0.000015   0.004550   0.000003   0.000034
              19         20         21         22         23
     1  Br   0.000022   0.000000  -0.000000  -0.000000  -0.000001
     2  C   -0.000623  -0.000003  -0.000000  -0.000000  -0.000020
     3  C    0.000036  -0.000002   0.000000  -0.000001  -0.000158
     4  C   -0.000466   0.000028  -0.000004   0.000019   0.006555
     5  C   -0.000463  -0.000166   0.000183   0.000098  -0.015839
     6  C    0.004090   0.001159   0.000015  -0.000033   0.000541
     7  C    0.004110  -0.000001   0.000000  -0.000000  -0.000013
     8  C    0.304815  -0.016127  -0.000210   0.000187  -0.000714
     9  C    0.004614  -0.090463   0.020656  -0.004025   0.017395
    10  C    0.003973   0.478647  -0.092362   0.014987  -0.004004
    11  C   -0.000466  -0.083137   0.471482  -0.075300   0.012417
    12  C    0.000232   0.016463  -0.081965   0.455581  -0.073262
    13  C   -0.000876  -0.006180   0.016837  -0.079815   0.457502
    14  C   -0.003551   0.018906  -0.005459   0.016991  -0.070358
    15  H   -0.000003   0.000000   0.000000   0.000000   0.000015
    16  H    0.000036   0.000002  -0.000001   0.000011   0.004550
    17  H    0.001753   0.000006  -0.000000   0.000000   0.000003
    18  H   -0.042247   0.002007  -0.000007  -0.000002   0.000034
    19  H    0.655229   0.002007  -0.000007  -0.000002   0.000034
    20  H    0.002007   0.640136  -0.011554  -0.000267   0.000086
    21  H   -0.000007  -0.011554   0.641940  -0.011824  -0.000277
    22  H   -0.000002  -0.000267  -0.011824   0.635472  -0.010068
    23  H    0.000034   0.000086  -0.000277  -0.010068   0.613254
          Atomic-Atomic Spin Densities.
               1          2          3          4          5          6
     1  Br   0.022386  -0.034020   0.003683   0.001125  -0.000604   0.000311
     2  C   -0.034020   0.426231  -0.001498  -0.055692   0.033505  -0.024641
     3  C    0.003683  -0.001498  -0.110693   0.028679  -0.007948   0.006904
     4  C    0.001125  -0.055692   0.028679   0.355594  -0.114412   0.004326
     5  C   -0.000604   0.033505  -0.007948  -0.114412   0.207757  -0.047381
     6  C    0.000311  -0.024641   0.006904   0.004326  -0.047381   0.001386
     7  C    0.011289  -0.113054   0.001324   0.024707  -0.034318   0.063896
     8  C    0.000027   0.001486  -0.000304  -0.000605   0.007379  -0.002746
     9  C    0.000001  -0.000718   0.000097   0.003962  -0.011013   0.003952
    10  C    0.000000  -0.000071   0.000000   0.000797  -0.005637   0.001135
    11  C   -0.000000   0.000016  -0.000004  -0.000478   0.003213  -0.000425
    12  C   -0.000000  -0.000003   0.000005   0.000183  -0.000780   0.000026
    13  C    0.000002  -0.000489   0.000295   0.010392  -0.031401   0.003057
    14  C   -0.000022   0.003264  -0.001577  -0.027604   0.101299  -0.002834
    15  H    0.000233  -0.000387   0.000395   0.000173   0.000071   0.000042
    16  H    0.000005  -0.000676   0.002911   0.000365   0.000669  -0.001042
    17  H    0.000320   0.000142  -0.000337   0.000037  -0.000773   0.000831
    18  H   -0.000003   0.000185  -0.000022  -0.000063   0.000781  -0.001019
    19  H   -0.000003   0.000185  -0.000022  -0.000063   0.000780  -0.001019
    20  H    0.000000  -0.000000   0.000000   0.000002   0.000079  -0.000013
    21  H   -0.000000   0.000000  -0.000000  -0.000000  -0.000004  -0.000004
    22  H    0.000000  -0.000000   0.000000  -0.000001  -0.000000   0.000003
    23  H   -0.000000  -0.000002  -0.000014  -0.000329   0.000710   0.000067
               7          8          9         10         11         12
     1  Br   0.011289   0.000027   0.000001   0.000000  -0.000000  -0.000000
     2  C   -0.113054   0.001486  -0.000718  -0.000071   0.000016  -0.000003
     3  C    0.001324  -0.000304   0.000097   0.000000  -0.000004   0.000005
     4  C    0.024707  -0.000605   0.003962   0.000797  -0.000478   0.000183
     5  C   -0.034318   0.007379  -0.011013  -0.005637   0.003213  -0.000780
     6  C    0.063896  -0.002746   0.003952   0.001135  -0.000425   0.000026
     7  C    0.133676  -0.003882   0.002278   0.000485  -0.000080  -0.000000
     8  C   -0.003882  -0.004237  -0.005782  -0.001943   0.000921  -0.000073
     9  C    0.002278  -0.005782   0.051592   0.057330  -0.023929   0.005545
    10  C    0.000485  -0.001943   0.057330   0.047247  -0.076539  -0.000744
    11  C   -0.000080   0.000921  -0.023929  -0.076539   0.324373   0.004390
    12  C   -0.000000  -0.000073   0.005545  -0.000744   0.004390  -0.097415
    13  C    0.000854  -0.000638   0.005429   0.018066  -0.043366   0.015505
    14  C   -0.006170   0.005925  -0.048116  -0.020634   0.023319  -0.003464
    15  H   -0.000097  -0.000008   0.000002   0.000000  -0.000000   0.000000
    16  H    0.000340  -0.000022   0.000066   0.000007  -0.000002  -0.000016
    17  H    0.001046   0.000028  -0.000016   0.000001  -0.000000   0.000000
    18  H   -0.001157   0.002431  -0.001764  -0.000775   0.000150  -0.000019
    19  H   -0.001157   0.002431  -0.001764  -0.000775   0.000150  -0.000019
    20  H    0.000002   0.000055   0.000766   0.000339  -0.000014  -0.000145
    21  H   -0.000000   0.000024  -0.000600   0.001683  -0.000798   0.002498
    22  H    0.000000  -0.000005   0.000052  -0.000109  -0.000006   0.000133
    23  H    0.000007  -0.000026  -0.000854   0.000278  -0.000508   0.002176
              13         14         15         16         17         18
     1  Br   0.000002  -0.000022   0.000233   0.000005   0.000320  -0.000003
     2  C   -0.000489   0.003264  -0.000387  -0.000676   0.000142   0.000185
     3  C    0.000295  -0.001577   0.000395   0.002911  -0.000337  -0.000022
     4  C    0.010392  -0.027604   0.000173   0.000365   0.000037  -0.000063
     5  C   -0.031401   0.101299   0.000071   0.000669  -0.000773   0.000781
     6  C    0.003057  -0.002834   0.000042  -0.001042   0.000831  -0.001019
     7  C    0.000854  -0.006170  -0.000097   0.000340   0.001046  -0.001157
     8  C   -0.000638   0.005925  -0.000008  -0.000022   0.000028   0.002431
     9  C    0.005429  -0.048116   0.000002   0.000066  -0.000016  -0.001764
    10  C    0.018066  -0.020634   0.000000   0.000007   0.000001  -0.000775
    11  C   -0.043366   0.023319  -0.000000  -0.000002  -0.000000   0.000150
    12  C    0.015505  -0.003464   0.000000  -0.000016   0.000000  -0.000019
    13  C    0.311631  -0.082365  -0.000001  -0.000349   0.000001  -0.000053
    14  C   -0.082365   0.101349   0.000000   0.000881   0.000093   0.000637
    15  H   -0.000001   0.000000   0.003016   0.000207   0.000001   0.000000
    16  H   -0.000349   0.000881   0.000207  -0.013202  -0.000000  -0.000000
    17  H    0.000001   0.000093   0.000001  -0.000000  -0.005838  -0.000012
    18  H   -0.000053   0.000637   0.000000  -0.000000  -0.000012   0.003795
    19  H   -0.000053   0.000637   0.000000  -0.000000  -0.000012  -0.000563
    20  H   -0.000038  -0.000525   0.000000  -0.000000   0.000000  -0.000012
    21  H   -0.000606   0.000132  -0.000000   0.000000   0.000000   0.000000
    22  H   -0.000118   0.000039  -0.000000  -0.000000  -0.000000   0.000000
    23  H    0.000430   0.000716  -0.000000  -0.000199  -0.000000  -0.000000
              19         20         21         22         23
     1  Br  -0.000003   0.000000  -0.000000   0.000000  -0.000000
     2  C    0.000185  -0.000000   0.000000  -0.000000  -0.000002
     3  C   -0.000022   0.000000  -0.000000   0.000000  -0.000014
     4  C   -0.000063   0.000002  -0.000000  -0.000001  -0.000329
     5  C    0.000780   0.000079  -0.000004  -0.000000   0.000710
     6  C   -0.001019  -0.000013  -0.000004   0.000003   0.000067
     7  C   -0.001157   0.000002  -0.000000   0.000000   0.000007
     8  C    0.002431   0.000055   0.000024  -0.000005  -0.000026
     9  C   -0.001764   0.000766  -0.000600   0.000052  -0.000854
    10  C   -0.000775   0.000339   0.001683  -0.000109   0.000278
    11  C    0.000150  -0.000014  -0.000798  -0.000006  -0.000508
    12  C   -0.000019  -0.000145   0.002498   0.000133   0.002176
    13  C   -0.000053  -0.000038  -0.000606  -0.000118   0.000430
    14  C    0.000637  -0.000525   0.000132   0.000039   0.000716
    15  H    0.000000   0.000000  -0.000000  -0.000000  -0.000000
    16  H   -0.000000  -0.000000   0.000000  -0.000000  -0.000199
    17  H   -0.000012   0.000000   0.000000  -0.000000  -0.000000
    18  H   -0.000563  -0.000012   0.000000   0.000000  -0.000000
    19  H    0.003794  -0.000012   0.000000   0.000000  -0.000000
    20  H   -0.000012  -0.002731   0.000298  -0.000000  -0.000001
    21  H    0.000000   0.000298  -0.014322   0.000289   0.000003
    22  H    0.000000  -0.000000   0.000289   0.003076   0.000141
    23  H   -0.000000  -0.000001   0.000003   0.000141  -0.011524
 Mulliken charges and spin densities:
               1          2
     1  Br  -0.210368   0.004729
     2  C    0.166617   0.233762
     3  C   -0.142812  -0.078124
     4  C   -0.341768   0.231094
     5  C    0.084177   0.101972
     6  C   -0.028851   0.004812
     7  C   -0.415047   0.079991
     8  C    0.101649   0.000435
     9  C   -0.076290   0.036516
    10  C   -0.257514   0.020142
    11  C   -0.157059   0.210385
    12  C   -0.077917  -0.072219
    13  C   -0.310534   0.206184
    14  C    0.103376   0.044980
    15  H    0.076677   0.003648
    16  H    0.062053  -0.010058
    17  H    0.066771  -0.004490
    18  H    0.067755   0.002517
    19  H    0.067754   0.002517
    20  H    0.048453  -0.001948
    21  H    0.052554  -0.011406
    22  H    0.057994   0.003493
    23  H    0.062329  -0.008930
 Sum of Mulliken charges =  -1.00000   1.00000
 Mulliken charges and spin densities with hydrogens summed into heavy atoms:
               1          2
     1  Br  -0.210368   0.004729
     2  C    0.166617   0.233762
     3  C   -0.066135  -0.074476
     4  C   -0.279715   0.221036
     5  C    0.084177   0.101972
     6  C   -0.028851   0.004812
     7  C   -0.348276   0.075501
     8  C    0.237157   0.005469
     9  C   -0.076290   0.036516
    10  C   -0.209060   0.018193
    11  C   -0.104505   0.198978
    12  C   -0.019923  -0.068726
    13  C   -0.248205   0.197255
    14  C    0.103376   0.044980
 Electronic spatial extent (au):  <R**2>=           4910.2655
 Charge=             -1.0000 electrons
 Dipole moment (field-independent basis, Debye):
    X=             -2.7876    Y=             -1.0221    Z=              0.0000  Tot=              2.9691
 Quadrupole moment (field-independent basis, Debye-Ang):
   XX=           -149.7259   YY=            -97.1663   ZZ=           -103.7891
   XY=             -1.3727   XZ=             -0.0000   YZ=             -0.0000
 Traceless Quadrupole moment (field-independent basis, Debye-Ang):
   XX=            -32.8321   YY=             19.7275   ZZ=             13.1047
   XY=             -1.3727   XZ=             -0.0000   YZ=             -0.0000
 Octapole moment (field-independent basis, Debye-Ang**2):
  XXX=           -211.8587  YYY=             -5.8888  ZZZ=              0.0001  XYY=            -47.5973
  XXY=             -0.2843  XXZ=              0.0000  XZZ=            -57.0677  YZZ=             -5.9819
  YYZ=              0.0000  XYZ=             -0.0000
 Hexadecapole moment (field-independent basis, Debye-Ang**3):
 XXXX=          -6084.0037 YYYY=           -800.5715 ZZZZ=           -134.4275 XXXY=             17.0294
 XXXZ=             -0.0003 YYYX=              9.1994 YYYZ=             -0.0001 ZZZX=             -0.0001
 ZZZY=             -0.0001 XXYY=          -1019.8106 XXZZ=           -985.0485 YYZZ=           -169.9117
 XXYZ=             -0.0002 YYXZ=             -0.0001 ZZXY=              0.3628
 N-N= 1.043186617128D+03 E-N=-9.419293478439D+03  KE= 3.069322091795D+03
 There are a total of      529042 grid points.
 ElSum from          density=      123.0000705176
 ElSum from atomic densities=      122.0001647803

 Hirshfeld populations at iteration   1 (CX, CA, CB, DipXYZ):
               1          2          3          4          5          6
     1  Br   0.000000  17.598952  17.569392   0.230722   0.031413  -0.000000
     2  C    0.000000   3.118235   2.947124  -0.042805  -0.019291   0.000000
     3  C    0.000000   3.035245   3.047763  -0.013562   0.029782   0.000000
     4  C    0.000000   3.124478   2.981915   0.044753   0.003542   0.000000
     5  C    0.000000   3.083654   2.974466   0.003780   0.029406   0.000000
     6  C    0.000000   3.022987   2.995809   0.050977  -0.045729  -0.000000
     7  C    0.000000   3.088675   3.018536  -0.004496  -0.020485   0.000000
     8  C    0.000000   3.033149   3.027353  -0.000276   0.007376   0.000001
     9  C    0.000000   3.031659   2.992535  -0.057480  -0.037686  -0.000000
    10  C    0.000000   3.066275   3.028607   0.014320  -0.033339   0.000000
    11  C    0.000000   3.132314   2.991553   0.000557  -0.014003   0.000000
    12  C    0.000000   3.033890   3.047191   0.026793   0.026116  -0.000000
    13  C    0.000000   3.114814   2.989218  -0.042523   0.013537  -0.000000
    14  C    0.000000   3.060600   2.985946  -0.000418   0.026991   0.000000
    15  H    0.000000   0.489908   0.490710  -0.071944   0.122010   0.000000
    16  H    0.000000   0.500640   0.486737   0.054632   0.128617   0.000000
    17  H    0.000000   0.496432   0.489520  -0.036059  -0.133627   0.000000
    18  H    0.000000   0.487515   0.484865  -0.005300  -0.077599   0.112675
    19  H    0.000000   0.487515   0.484865  -0.005299  -0.077599  -0.112675
    20  H    0.000000   0.495107   0.492031   0.037496  -0.133116   0.000000
    21  H    0.000000   0.505952   0.492943   0.132378  -0.037326   0.000000
    22  H    0.000000   0.492322   0.493057   0.099656   0.099600  -0.000000
    23  H    0.000000   0.499716   0.487898  -0.038162   0.133426  -0.000000
       Tot   0.000000  62.000036  61.000034   0.377742   0.022020   0.000001

 Dip from Atomic Chgs             -1.474951  -0.424167   0.000001
         Total Dipole             -1.097209  -0.402147   0.000002

 Hirshfeld charges, spin densities, dipoles, and CM5 charges using IRadAn=      5:
              Q-H        S-H        Dx         Dy         Dz        Q-CM5   
     1  Br  -0.168344   0.029561   0.230722   0.031413  -0.000000  -0.153429
     2  C   -0.065360   0.171111  -0.042805  -0.019291   0.000000  -0.086679
     3  C   -0.083008  -0.012518  -0.013562   0.029782   0.000000  -0.136911
     4  C   -0.106392   0.142563   0.044753   0.003542   0.000000  -0.158953
     5  C   -0.058120   0.109188   0.003780   0.029406   0.000000  -0.063056
     6  C   -0.018796   0.027178   0.050977  -0.045729  -0.000000  -0.029235
     7  C   -0.107211   0.070139  -0.004496  -0.020485   0.000000  -0.158404
     8  C   -0.060502   0.005796  -0.000276   0.007376   0.000001  -0.156404
     9  C   -0.024194   0.039125  -0.057480  -0.037686  -0.000000  -0.034747
    10  C   -0.094882   0.037668   0.014320  -0.033339   0.000000  -0.148051
    11  C   -0.123867   0.140760   0.000557  -0.014003   0.000000  -0.179721
    12  C   -0.081081  -0.013300   0.026793   0.026116  -0.000000  -0.136921
    13  C   -0.104032   0.125597  -0.042523   0.013537  -0.000000  -0.156713
    14  C   -0.046545   0.074654  -0.000418   0.026991   0.000000  -0.051517
    15  H    0.019382  -0.000801  -0.071944   0.122010   0.000000   0.076645
    16  H    0.012623   0.013903   0.054632   0.128617   0.000000   0.069480
    17  H    0.014048   0.006912  -0.036059  -0.133627   0.000000   0.071601
    18  H    0.027620   0.002650  -0.005300  -0.077599   0.112675   0.083281
    19  H    0.027619   0.002650  -0.005299  -0.077599  -0.112675   0.083280
    20  H    0.012862   0.003076   0.037496  -0.133116   0.000000   0.069287
    21  H    0.001104   0.013009   0.132378  -0.037326   0.000000   0.057209
    22  H    0.014621  -0.000736   0.099656   0.099600  -0.000000   0.070738
    23  H    0.012385   0.011818  -0.038162   0.133426  -0.000000   0.069150
       Tot  -1.000071   1.000002   0.377742   0.022020   0.000001  -1.000071
 Hirshfeld charges and spin densities with hydrogens summed into heavy atoms:
              Q-H        S-H       Q-CM5   
     1  Br  -0.168344   0.029561  -0.153429
     2  C   -0.065360   0.171111  -0.086679
     3  C   -0.063626  -0.013320  -0.060266
     4  C   -0.093770   0.156466  -0.089473
     5  C   -0.058120   0.109188  -0.063056
     6  C   -0.018796   0.027178  -0.029235
     7  C   -0.093163   0.077051  -0.086803
     8  C   -0.005263   0.011096   0.010157
     9  C   -0.024194   0.039125  -0.034747
    10  C   -0.082020   0.040744  -0.078764
    11  C   -0.122763   0.153769  -0.122513
    12  C   -0.066460  -0.014036  -0.066184
    13  C   -0.091647   0.137415  -0.087564
    14  C   -0.046545   0.074654  -0.051517
 
 EQQ= 0.819115542003E-01 EQD=-0.359424873506E-01 EDD= 0.309201942567E-02
 EQQ+QD+DD= 0.490610862754E-01
 
                          Isotropic Fermi Contact Couplings
        Atom                 a.u.       MegaHertz       Gauss      10(-4) cm-1
     1  Br(79)            -0.00348      -3.90820      -1.39454      -1.30364
     2  C(13)              0.02012      22.62431       8.07292       7.54666
     3  C(13)             -0.01743     -19.59017      -6.99026      -6.53458
     4  C(13)              0.00813       9.13877       3.26094       3.04836
     5  C(13)             -0.00246      -2.77096      -0.98875      -0.92429
     6  C(13)             -0.00662      -7.43952      -2.65461      -2.48156
     7  C(13)             -0.00410      -4.61150      -1.64550      -1.53823
     8  C(13)             -0.00208      -2.33874      -0.83452      -0.78012
     9  C(13)             -0.00212      -2.38048      -0.84941      -0.79404
    10  C(13)             -0.00599      -6.73920      -2.40471      -2.24796
    11  C(13)              0.01125      12.65149       4.51437       4.22008
    12  C(13)             -0.01475     -16.57827      -5.91554      -5.52991
    13  C(13)              0.00863       9.70318       3.46234       3.23663
    14  C(13)             -0.00759      -8.53724      -3.04630      -2.84772
    15  H(1)               0.00105       4.71255       1.68155       1.57194
    16  H(1)              -0.00324     -14.48187      -5.16749      -4.83063
    17  H(1)              -0.00125      -5.58577      -1.99314      -1.86321
    18  H(1)               0.00164       7.34773       2.62185       2.45094
    19  H(1)               0.00164       7.34762       2.62181       2.45090
    20  H(1)              -0.00048      -2.16720      -0.77331      -0.72290
    21  H(1)              -0.00328     -14.64373      -5.22525      -4.88462
    22  H(1)               0.00093       4.17243       1.48883       1.39177
    23  H(1)              -0.00289     -12.92738      -4.61281      -4.31211
 --------------------------------------------------------
       Center         ----  Spin Dipole Couplings  ----
                      3XX-RR        3YY-RR        3ZZ-RR
 --------------------------------------------------------
     1   Atom       -0.204716     -0.007535      0.212251
     2   Atom       -0.157347     -0.171653      0.329000
     3   Atom        0.045266      0.041874     -0.087140
     4   Atom       -0.119325     -0.118076      0.237401
     5   Atom       -0.077679     -0.090005      0.167684
     6   Atom        0.000677     -0.006459      0.005781
     7   Atom       -0.045365     -0.045234      0.090599
     8   Atom       -0.000797      0.000171      0.000626
     9   Atom       -0.019718     -0.023879      0.043597
    10   Atom       -0.015658     -0.019215      0.034873
    11   Atom       -0.118814     -0.127323      0.246137
    12   Atom        0.040153      0.038721     -0.078873
    13   Atom       -0.106784     -0.106878      0.213662
    14   Atom       -0.038903     -0.053081      0.091983
    15   Atom        0.003259      0.001356     -0.004614
    16   Atom       -0.011168      0.011018      0.000150
    17   Atom       -0.003974      0.005436     -0.001463
    18   Atom        0.000390      0.001872     -0.002262
    19   Atom        0.000390      0.001872     -0.002262
    20   Atom       -0.001557      0.003718     -0.002160
    21   Atom        0.013749     -0.015452      0.001703
    22   Atom        0.002426      0.001488     -0.003914
    23   Atom       -0.011215      0.011423     -0.000208
 --------------------------------------------------------
                        XY            XZ            YZ
 --------------------------------------------------------
     1   Atom       -0.030803     -0.000002     -0.000000
     2   Atom        0.000004      0.000002     -0.000000
     3   Atom        0.006972      0.000000      0.000000
     4   Atom       -0.000152     -0.000001     -0.000000
     5   Atom       -0.003401     -0.000001     -0.000000
     6   Atom        0.004930     -0.000000     -0.000000
     7   Atom       -0.002231      0.000000     -0.000000
     8   Atom       -0.000362     -0.000000      0.000000
     9   Atom       -0.004665      0.000000     -0.000000
    10   Atom        0.001611      0.000000      0.000000
    11   Atom       -0.001772     -0.000000     -0.000000
    12   Atom       -0.006213     -0.000000     -0.000000
    13   Atom        0.000065      0.000000      0.000000
    14   Atom        0.002267     -0.000000      0.000000
    15   Atom        0.002854      0.000000      0.000000
    16   Atom        0.010186     -0.000000      0.000000
    17   Atom        0.006269      0.000000     -0.000000
    18   Atom       -0.000098     -0.000052     -0.001979
    19   Atom       -0.000098      0.000052      0.001979
    20   Atom       -0.003201     -0.000000     -0.000000
    21   Atom       -0.009100     -0.000000     -0.000000
    22   Atom       -0.003010     -0.000000      0.000000
    23   Atom       -0.005794      0.000000     -0.000000
 --------------------------------------------------------


 ---------------------------------------------------------------------------------
              Anisotropic Spin Dipole Couplings in Principal Axis System
 ---------------------------------------------------------------------------------

       Atom             a.u.   MegaHertz   Gauss  10(-4) cm-1        Axes

              Baa    -0.2094   -28.091   -10.023    -9.370  0.9886  0.1508  0.0000
     1 Br(79) Bbb    -0.0028    -0.380    -0.136    -0.127 -0.1508  0.9886  0.0000
              Bcc     0.2123    28.471    10.159     9.497 -0.0000 -0.0000  1.0000
 
              Baa    -0.1717   -23.034    -8.219    -7.683 -0.0003  1.0000  0.0000
     2 C(13)  Bbb    -0.1573   -21.114    -7.534    -7.043  1.0000  0.0003 -0.0000
              Bcc     0.3290    44.149    15.753    14.726  0.0000 -0.0000  1.0000
 
              Baa    -0.0871   -11.693    -4.172    -3.900 -0.0000 -0.0000  1.0000
     3 C(13)  Bbb     0.0364     4.884     1.743     1.629 -0.6179  0.7862  0.0000
              Bcc     0.0507     6.810     2.430     2.271  0.7862  0.6179  0.0000
 
              Baa    -0.1193   -16.015    -5.714    -5.342  0.9929  0.1191  0.0000
     4 C(13)  Bbb    -0.1181   -15.842    -5.653    -5.284 -0.1191  0.9929  0.0000
              Bcc     0.2374    31.857    11.367    10.626 -0.0000 -0.0000  1.0000
 
              Baa    -0.0909   -12.195    -4.352    -4.068  0.2495  0.9684  0.0000
     5 C(13)  Bbb    -0.0768   -10.306    -3.677    -3.438  0.9684 -0.2495  0.0000
              Bcc     0.1677    22.502     8.029     7.506 -0.0000 -0.0000  1.0000
 
              Baa    -0.0090    -1.205    -0.430    -0.402 -0.4548  0.8906  0.0000
     6 C(13)  Bbb     0.0032     0.429     0.153     0.143  0.8906  0.4548  0.0001
              Bcc     0.0058     0.776     0.277     0.259 -0.0001 -0.0000  1.0000
 
              Baa    -0.0475    -6.378    -2.276    -2.128  0.7174  0.6966 -0.0000
     7 C(13)  Bbb    -0.0431    -5.779    -2.062    -1.928 -0.6966  0.7174  0.0000
              Bcc     0.0906    12.158     4.338     4.055  0.0000 -0.0000  1.0000
 
              Baa    -0.0009    -0.123    -0.044    -0.041  0.9488  0.3158 -0.0000
     8 C(13)  Bbb     0.0003     0.039     0.014     0.013 -0.3158  0.9488 -0.0002
              Bcc     0.0006     0.084     0.030     0.028 -0.0001  0.0002  1.0000
 
              Baa    -0.0269    -3.611    -1.288    -1.204  0.5443  0.8389 -0.0000
     9 C(13)  Bbb    -0.0167    -2.240    -0.799    -0.747  0.8389 -0.5443 -0.0000
              Bcc     0.0436     5.850     2.088     1.951  0.0000 -0.0000  1.0000
 
              Baa    -0.0198    -2.662    -0.950    -0.888 -0.3597  0.9331 -0.0000
    10 C(13)  Bbb    -0.0150    -2.018    -0.720    -0.673  0.9331  0.3597 -0.0000
              Bcc     0.0349     4.680     1.670     1.561  0.0000  0.0000  1.0000
 
              Baa    -0.1277   -17.133    -6.114    -5.715  0.1960  0.9806  0.0000
    11 C(13)  Bbb    -0.1185   -15.896    -5.672    -5.302  0.9806 -0.1960  0.0000
              Bcc     0.2461    33.029    11.786    11.017 -0.0000 -0.0000  1.0000
 
              Baa    -0.0789   -10.584    -3.777    -3.530  0.0000  0.0000  1.0000
    12 C(13)  Bbb     0.0332     4.453     1.589     1.485  0.6654  0.7465 -0.0000
              Bcc     0.0457     6.131     2.188     2.045  0.7465 -0.6654 -0.0000
 
              Baa    -0.1069   -14.346    -5.119    -4.785 -0.4579  0.8890 -0.0000
    13 C(13)  Bbb    -0.1068   -14.325    -5.111    -4.778  0.8890  0.4579 -0.0000
              Bcc     0.2137    28.671    10.231     9.564  0.0000  0.0000  1.0000
 
              Baa    -0.0534    -7.170    -2.559    -2.392 -0.1541  0.9881 -0.0000
    14 C(13)  Bbb    -0.0385    -5.173    -1.846    -1.725  0.9881  0.1541  0.0000
              Bcc     0.0920    12.343     4.404     4.117 -0.0000  0.0000  1.0000
 
              Baa    -0.0046    -2.462    -0.878    -0.821 -0.0000 -0.0000  1.0000
    15 H(1)   Bbb    -0.0007    -0.374    -0.133    -0.125 -0.5847  0.8113  0.0000
              Bcc     0.0053     2.836     1.012     0.946  0.8113  0.5847  0.0000
 
              Baa    -0.0151    -8.075    -2.881    -2.694  0.9318 -0.3629  0.0000
    16 H(1)   Bbb     0.0001     0.080     0.029     0.027 -0.0000 -0.0000  1.0000
              Bcc     0.0150     7.995     2.853     2.667  0.3629  0.9318  0.0000
 
              Baa    -0.0071    -3.792    -1.353    -1.265  0.8945 -0.4471 -0.0000
    17 H(1)   Bbb    -0.0015    -0.780    -0.278    -0.260  0.0000 -0.0000  1.0000
              Bcc     0.0086     4.572     1.631     1.525  0.4471  0.8945 -0.0000
 
              Baa    -0.0031    -1.632    -0.582    -0.544  0.0244  0.3728  0.9276
    18 H(1)   Bbb     0.0004     0.208     0.074     0.069  0.9992  0.0200 -0.0344
              Bcc     0.0027     1.424     0.508     0.475 -0.0314  0.9277 -0.3720
 
              Baa    -0.0031    -1.632    -0.582    -0.544 -0.0244 -0.3728  0.9276
    19 H(1)   Bbb     0.0004     0.208     0.074     0.069  0.9992  0.0200  0.0344
              Bcc     0.0027     1.424     0.508     0.475 -0.0314  0.9277  0.3720
 
              Baa    -0.0031    -1.636    -0.584    -0.546  0.9044  0.4267  0.0000
    20 H(1)   Bbb    -0.0022    -1.153    -0.411    -0.385 -0.0000 -0.0000  1.0000
              Bcc     0.0052     2.789     0.995     0.930 -0.4267  0.9044 -0.0000
 
              Baa    -0.0181    -9.634    -3.438    -3.214  0.2751  0.9614  0.0000
    21 H(1)   Bbb     0.0017     0.909     0.324     0.303 -0.0000 -0.0000  1.0000
              Bcc     0.0164     8.725     3.113     2.910  0.9614 -0.2751 -0.0000
 
              Baa    -0.0039    -2.088    -0.745    -0.697  0.0000  0.0000  1.0000
    22 H(1)   Bbb    -0.0011    -0.581    -0.207    -0.194  0.6504  0.7596 -0.0000
              Bcc     0.0050     2.669     0.952     0.890  0.7596 -0.6504 -0.0000
 
              Baa    -0.0126    -6.729    -2.401    -2.245  0.9722  0.2343 -0.0000
    23 H(1)   Bbb    -0.0002    -0.111    -0.040    -0.037  0.0000  0.0000  1.0000
              Bcc     0.0128     6.840     2.441     2.282 -0.2343  0.9722 -0.0000
 

 ---------------------------------------------------------------------------------

 Running external command "gaunbo6 R"
         input file       "/home/rpaton/arbr500/tzvp/fukui/Gau-2270415.EIn"
         output file      "/home/rpaton/arbr500/tzvp/fukui/Gau-2270415.EOu"
         message file     "/home/rpaton/arbr500/tzvp/fukui/Gau-2270415.EMs"
         fchk file        "/home/rpaton/arbr500/tzvp/fukui/Gau-2270415.EFC"
         mat. el file     "/home/rpaton/arbr500/tzvp/fukui/Gau-2270415.EUF"

 Writing WrtUnf unformatted file "/home/rpaton/arbr500/tzvp/fukui/Gau-2270415.EUF"
 Gaussian matrix elements                                         Version   2 NLab=11 Len12L=8 Len4L=8
 Write SHELL TO ATOM MAP                   from file      0 offset           0 length                 195 to matrix element file.
 Write SHELL TYPES                         from file      0 offset           0 length                 195 to matrix element file.
 Write NUMBER OF PRIMITIVES PER SHELL      from file      0 offset           0 length                 195 to matrix element file.
 Write PRIMITIVE EXPONENTS                 from file      0 offset           0 length                 353 to matrix element file.
 Write CONTRACTION COEFFICIENTS            from file      0 offset           0 length                 353 to matrix element file.
 Write P(S=P) CONTRACTION COEFFICIENTS     from file      0 offset           0 length                 353 to matrix element file.
 Write COORDINATES OF EACH SHELL           from file      0 offset           0 length                 585 to matrix element file.
 Write BONDS PER ATOM                      from file      0 offset           0 length                  23 to matrix element file.
 Write BONDED ATOMS                        from file      0 offset           0 length                  50 to matrix element file.
 Write BOND TYPES                          from file      0 offset           0 length                  50 to matrix element file.
 Write ONIOM CHARGE/MULT                   from file      0 offset           0 length                  32 to matrix element file.
 Write ONIOM ATOM LAYERS                   from file      0 offset           0 length                  23 to matrix element file.
 Write ONIOM ATOM MODIFIERS                from file      0 offset           0 length                  23 to matrix element file.
 Write ONIOM ATOM TYPES                    from file      0 offset           0 length                  23 to matrix element file.
 Write ONIOM LINK ATOMS                    from file      0 offset           0 length                  23 to matrix element file.
 Write ONIOM LINK CHARGES                  from file      0 offset           0 length                  23 to matrix element file.
 Write ONIOM LINK DISTANCES                from file      0 offset           0 length                  92 to matrix element file.
 Write SYMINF INTS                         from file      0 offset           0 length                  26 to matrix element file.
 Write ROTTR TO SO                         from file      0 offset           0 length                  12 to matrix element file.
 Write GAUSSIAN SCALARS                    from file    501 offset           0 to matrix element file.
 Write OPTIMIZATION FLAGS                  from file      0 offset           0 length                  23 to matrix element file.
 Write INTEGER ISO                         from file      0 offset           0 length                  23 to matrix element file.
 Write INTEGER SPIN                        from file      0 offset           0 length                  23 to matrix element file.
 Write REAL ZEFFECTIVE                     from file      0 offset           0 length                  23 to matrix element file.
 Write REAL QUADRUPOLEMOMENT               from file      0 offset           0 length                  23 to matrix element file.
 Write REAL GFACTOR                        from file      0 offset           0 length                  23 to matrix element file.
 Write REAL ZNUCLEAR                       from file      0 offset           0 length                  23 to matrix element file.
 Write MULLIKEN CHARGES                    from file      0 offset           0 length                  23 to matrix element file.
 Write TYPE 6 CHARGES                      from file      0 offset           0 length                  23 to matrix element file.
 Write TYPE 7 CHARGES                      from file      0 offset           0 length                  23 to matrix element file.
 Write NUCLEAR GRADIENT                    from file  10584 offset           0 length                  69 to matrix element file.
 Array NUCLEAR FORCE CONSTANTS              on  file  10585 does not exist.
 Write ELECTRIC DIPOLE MOMENT              from file      0 offset           0 length                   3 to matrix element file.
 Write NON-ADIABATIC COUPLING              from file  10810 offset           0 length                  69 to matrix element file.
 Write FINITE EM FIELD                     from file  10521 offset           0 length                  35 to matrix element file.
 Write OVERLAP                             from file  10514 offset           0 length              127765 to matrix element file.
 Write CORE HAMILTONIAN ALPHA              from file  10515 offset           0 length              127765 to matrix element file.
 Write CORE HAMILTONIAN BETA               from file  10515 offset      127765 length              127765 to matrix element file.
 Write KINETIC ENERGY                      from file  10516 offset           0 length              127765 to matrix element file.
 Write ORTHOGONAL BASIS                    from file  10685 offset           0 length              255025 to matrix element file.
 Write DIPOLE INTEGRALS                    from file  10518 offset           0 length              383295 to matrix element file.
 Array DIP VEL INTEGRALS                    on  file  10572 does not exist.
 Array R X DEL INTEGRALS                    on  file  10572 does not exist.
 Write ALPHA ORBITAL ENERGIES              from file      0 offset           0 length                 505 to matrix element file.
 Write BETA ORBITAL ENERGIES               from file      0 offset           0 length                 505 to matrix element file.
 Write ALPHA MO COEFFICIENTS               from file  10524 offset           0 length              255025 to matrix element file.
 Write BETA MO COEFFICIENTS                from file  10526 offset           0 length              255025 to matrix element file.
 Write ALPHA DENSITY MATRIX                from file      0 offset           0 length              127765 to matrix element file.
 Write BETA DENSITY MATRIX                 from file      0 offset           0 length              127765 to matrix element file.
 Write ALPHA FOCK MATRIX                   from file  10536 offset           0 length              127765 to matrix element file.
 Write BETA FOCK MATRIX                    from file  10538 offset           0 length              127765 to matrix element file.
 Write ENERGY-WEIGHTED DENSITY             from file  10571 offset           0 length              127765 to matrix element file.
 Write ALPHA SCF DENSITY MATRIX            from file      0 offset           0 length              127765 to matrix element file.
 Write BETA SCF DENSITY MATRIX             from file      0 offset           0 length              127765 to matrix element file.
 No 2e integrals to process.
 Perform NBO analysis...

 *********************************** NBO 7.0 ***********************************
             N A T U R A L   A T O M I C   O R B I T A L   A N D
          N A T U R A L   B O N D   O R B I T A L   A N A L Y S I S
 **************************** Robert Paton (I101709) ***************************
  (c) Copyright 1996-2019 Board of Regents of the University of Wisconsin System
      on behalf of the Theoretical Chemistry Institute.  All rights reserved.

[...]
  188. RY (14) C  4             0.00000     3.96863
  189. RY (15) C  4             0.00000     2.07378
  190. RY (16) C  4             0.00000     4.09364
  191. RY (17) C  4             0.00000     2.02727
  192. RY (18) C  4             0.00000     3.23123
  193. RY (19) C  4             0.00000    13.67993
  194. RY (20) C  4             0.00000     3.43438
  195. RY (21) C  4             0.00000     6.68595
  196. RY (22) C  4             0.00000     4.61456
  197. RY (23) C  4             0.00000     3.30059
  198. RY (24) C  4             0.00000     3.34784
  199. RY (25) C  4             0.00000     4.51676
  200. RY (26) C  4             0.00000     4.22453
  201. RY ( 1) C  5             0.00265     1.71673
  202. RY ( 2) C  5             0.00169     2.01677
  203. RY ( 3) C  5             0.00071     0.86687
  204. RY ( 4) C  5             0.00030     2.28084
  205. RY ( 5) C  5             0.00019     2.63353
  206. RY ( 6) C  5             0.00016     2.86211
  207. RY ( 7) C  5             0.00016     3.16904
  208. RY ( 8) C  5             0.00014     4.04876
  209. RY ( 9) C  5             0.00008     3.20143
  210. RY (10) C  5             0.00006     4.01874
  211. RY (11) C  5             0.00004     2.54393
  212. RY (12) C  5             0.00004     2.31112
  213. RY (13) C  5             0.00003     2.16437
  214. RY (14) C  5             0.00001     3.82475
  215. RY (15) C  5             0.00001     4.22890
  216. RY (16) C  5             0.00001     2.72951
  217. RY (17) C  5             0.00000     2.50890
  218. RY (18) C  5             0.00000     4.30281
  219. RY (19) C  5             0.00000    17.09755
  220. RY (20) C  5             0.00000     2.54183
  221. RY (21) C  5             0.00000     4.89587
  222. RY (22) C  5             0.00000     3.44994
  223. RY (23) C  5             0.00000     5.38363
  224. RY (24) C  5             0.00000     4.48099
  225. RY (25) C  5             0.00000     3.01570
  226. RY (26) C  5             0.00000     3.51795
  227. RY ( 1) C  6             0.00216     1.96531
  228. RY ( 2) C  6             0.00111     1.70579
  229. RY ( 3) C  6             0.00103     0.85711
  230. RY ( 4) C  6             0.00036     2.49236
  231. RY ( 5) C  6             0.00025     2.69225
  232. RY ( 6) C  6             0.00017     3.51348
  233. RY ( 7) C  6             0.00016     3.21387
  234. RY ( 8) C  6             0.00011     3.09896
  235. RY ( 9) C  6             0.00007     2.27611
  236. RY (10) C  6             0.00006     3.14435
  237. RY (11) C  6             0.00004     3.66430
  238. RY (12) C  6             0.00003     2.42847
  239. RY (13) C  6             0.00002     3.81170
  240. RY (14) C  6             0.00001     2.55238
  241. RY (15) C  6             0.00001     2.66638
  242. RY (16) C  6             0.00001     3.22660
  243. RY (17) C  6             0.00001     3.36722
  244. RY (18) C  6             0.00000     3.71703
  245. RY (19) C  6             0.00000    19.07586
  246. RY (20) C  6             0.00000     3.89181
  247. RY (21) C  6             0.00000     3.41554
  248. RY (22) C  6             0.00000     4.14165
  249. RY (23) C  6             0.00000     4.48557
  250. RY (24) C  6             0.00000     3.34151
  251. RY (25) C  6             0.00000     3.58930
  252. RY (26) C  6             0.00000     2.02306
  253. RY ( 1) C  7             0.00219     1.58157
  254. RY ( 2) C  7             0.00117     1.46744
  255. RY ( 3) C  7             0.00068     0.71525
  256. RY ( 4) C  7             0.00044     1.89397
  257. RY ( 5) C  7             0.00020     2.00014
  258. RY ( 6) C  7             0.00018     3.10944
  259. RY ( 7) C  7             0.00009     2.69254
  260. RY ( 8) C  7             0.00006     2.25976
  261. RY ( 9) C  7             0.00004     1.98671
  262. RY (10) C  7             0.00002     3.38431
  263. RY (11) C  7             0.00002     1.61024
  264. RY (12) C  7             0.00001     3.87974
  265. RY (13) C  7             0.00001     3.51846
  266. RY (14) C  7             0.00001     2.96588
  267. RY (15) C  7             0.00000     2.53979
  268. RY (16) C  7             0.00000     3.50343
  269. RY (17) C  7             0.00000     3.98005
  270. RY (18) C  7             0.00000     3.25333
  271. RY (19) C  7             0.00000     2.48830
  272. RY (20) C  7             0.00000     3.32419
  273. RY (21) C  7             0.00000     4.77712
  274. RY (22) C  7             0.00000     3.05899
  275. RY (23) C  7             0.00000     4.51646
  276. RY (24) C  7             0.00000     5.81230
  277. RY (25) C  7             0.00000     3.21679
  278. RY (26) C  7             0.00000    15.79273
  279. RY ( 1) C  8             0.00112     1.49189
  280. RY ( 2) C  8             0.00061     1.29829
  281. RY ( 3) C  8             0.00039     1.37893
  282. RY ( 4) C  8             0.00027     1.87411
  283. RY ( 5) C  8             0.00024     2.23078
  284. RY ( 6) C  8             0.00013     2.60252
  285. RY ( 7) C  8             0.00009     2.33257
  286. RY ( 8) C  8             0.00006     1.84877
  287. RY ( 9) C  8             0.00003     2.05655
  288. RY (10) C  8             0.00002     2.25724
  289. RY (11) C  8             0.00001     2.60249
  290. RY (12) C  8             0.00001     3.01072
  291. RY (13) C  8             0.00001     3.50205
  292. RY (14) C  8             0.00001     3.16532
  293. RY (15) C  8             0.00000     4.19234
  294. RY (16) C  8             0.00000     3.06294
  295. RY (17) C  8             0.00000     3.01443
  296. RY (18) C  8             0.00000    10.81811
  297. RY (19) C  8             0.00000     2.87367
  298. RY (20) C  8             0.00000     3.80060
  299. RY (21) C  8             0.00000    11.76248
  300. RY (22) C  8             0.00000     3.36993
  301. RY (23) C  8             0.00000     3.72314
  302. RY (24) C  8             0.00000     4.94138
  303. RY (25) C  8             0.00000     3.83811
  304. RY (26) C  8             0.00000     3.58578
  305. RY ( 1) C  9             0.00240     1.86105
  306. RY ( 2) C  9             0.00101     1.83970
  307. RY ( 3) C  9             0.00101     0.84735
  308. RY ( 4) C  9             0.00031     2.08838
  309. RY ( 5) C  9             0.00024     2.74712
  310. RY ( 6) C  9             0.00019     3.70950
  311. RY ( 7) C  9             0.00017     3.16036
  312. RY ( 8) C  9             0.00011     3.24480
  313. RY ( 9) C  9             0.00007     2.97635
  314. RY (10) C  9             0.00007     2.35457
  315. RY (11) C  9             0.00003     3.71087
  316. RY (12) C  9             0.00002     3.71461
  317. RY (13) C  9             0.00002     2.21527
  318. RY (14) C  9             0.00001     2.86226
  319. RY (15) C  9             0.00001     2.56745
  320. RY (16) C  9             0.00001     3.54006
  321. RY (17) C  9             0.00000     3.19890
  322. RY (18) C  9             0.00000     3.25114
  323. RY (19) C  9             0.00000     2.42633
  324. RY (20) C  9             0.00000    19.88620
  325. RY (21) C  9             0.00000     4.06562
  326. RY (22) C  9             0.00000     3.28505
  327. RY (23) C  9             0.00000     4.09123
  328. RY (24) C  9             0.00000     3.01045
  329. RY (25) C  9             0.00000     3.60832
  330. RY (26) C  9             0.00000     3.66610
  331. RY ( 1) C 10             0.00205     1.81854
  332. RY ( 2) C 10             0.00081     1.60694
  333. RY ( 3) C 10             0.00061     0.70775
  334. RY ( 4) C 10             0.00033     1.61497
  335. RY ( 5) C 10             0.00017     3.21170
  336. RY ( 6) C 10             0.00013     3.47811
  337. RY ( 7) C 10             0.00006     2.42995
  338. RY ( 8) C 10             0.00002     3.47811
  339. RY ( 9) C 10             0.00001     1.89431
  340. RY (10) C 10             0.00001     2.91944
  341. RY (11) C 10             0.00001     2.19339
  342. RY (12) C 10             0.00001     1.87200
  343. RY (13) C 10             0.00001     2.97479
  344. RY (14) C 10             0.00000     3.42526
  345. RY (15) C 10             0.00000     3.85185
  346. RY (16) C 10             0.00000     3.24548
  347. RY (17) C 10             0.00000     3.39865
  348. RY (18) C 10             0.00000     2.53302
  349. RY (19) C 10             0.00000     5.18759
  350. RY (20) C 10             0.00000     2.86826
  351. RY (21) C 10             0.00000     3.87916
  352. RY (22) C 10             0.00000    16.96727
  353. RY (23) C 10             0.00000     2.91519
  354. RY (24) C 10             0.00000     3.48987
  355. RY (25) C 10             0.00000     4.26956
  356. RY (26) C 10             0.00000     3.19695
  357. RY ( 1) C 11             0.00224     1.76591
  358. RY ( 2) C 11             0.00083     0.66092
  359. RY ( 3) C 11             0.00072     1.54642
  360. RY ( 4) C 11             0.00027     1.51610
  361. RY ( 5) C 11             0.00019     3.31437
  362. RY ( 6) C 11             0.00015     3.52393
  363. RY ( 7) C 11             0.00004     2.47267
  364. RY ( 8) C 11             0.00002     2.10556
  365. RY ( 9) C 11             0.00001     3.42982
  366. RY (10) C 11             0.00001     2.50453
  367. RY (11) C 11             0.00001     1.58166
  368. RY (12) C 11             0.00000     4.15530
  369. RY (13) C 11             0.00000     4.39728
  370. RY (14) C 11             0.00000     1.98892
  371. RY (15) C 11             0.00000    10.12259
  372. RY (16) C 11             0.00000     3.41674
  373. RY (17) C 11             0.00000     3.10345
  374. RY (18) C 11             0.00000     1.99061
  375. RY (19) C 11             0.00000     6.67128
  376. RY (20) C 11             0.00000     3.08587
  377. RY (21) C 11             0.00000     4.82928
  378. RY (22) C 11             0.00000     6.39984
  379. RY (23) C 11             0.00000     3.19189
  380. RY (24) C 11             0.00000     3.49788
  381. RY (25) C 11             0.00000     3.56934
  382. RY (26) C 11             0.00000     3.25092
  383. RY ( 1) C 12             0.00225     1.74118
  384. RY ( 2) C 12             0.00076     1.48071
  385. RY ( 3) C 12             0.00063     0.71159
  386. RY ( 4) C 12             0.00024     1.54029
  387. RY ( 5) C 12             0.00018     3.18029
  388. RY ( 6) C 12             0.00013     3.55049
  389. RY ( 7) C 12             0.00004     2.53960
  390. RY ( 8) C 12             0.00001     2.33811
  391. RY ( 9) C 12             0.00001     3.41821
  392. RY (10) C 12             0.00001     2.77380
  393. RY (11) C 12             0.00001     1.49440
  394. RY (12) C 12             0.00000     3.33696
  395. RY (13) C 12             0.00000     1.94163
  396. RY (14) C 12             0.00000    10.20218
  397. RY (15) C 12             0.00000     2.00432
  398. RY (16) C 12             0.00000     3.41641
  399. RY (17) C 12             0.00000     3.09072
  400. RY (18) C 12             0.00000     5.25994
  401. RY (19) C 12             0.00000     5.11661
  402. RY (20) C 12             0.00000     3.45070
  403. RY (21) C 12             0.00000     5.40114
  404. RY (22) C 12             0.00000     6.66127
  405. RY (23) C 12             0.00000     3.23661
  406. RY (24) C 12             0.00000     3.22611
  407. RY (25) C 12             0.00000     2.90284
  408. RY (26) C 12             0.00000     4.64179
  409. RY ( 1) C 13             0.00207     1.79640
  410. RY ( 2) C 13             0.00069     1.78519
  411. RY ( 3) C 13             0.00063     0.69782
  412. RY ( 4) C 13             0.00035     1.69084
  413. RY ( 5) C 13             0.00017     3.26047
  414. RY ( 6) C 13             0.00014     3.45780
  415. RY ( 7) C 13             0.00007     2.46219
  416. RY ( 8) C 13             0.00005     1.76669
  417. RY ( 9) C 13             0.00002     2.12159
  418. RY (10) C 13             0.00002     3.24174
  419. RY (11) C 13             0.00001     3.13511
  420. RY (12) C 13             0.00001     3.27158
  421. RY (13) C 13             0.00001     1.97223
  422. RY (14) C 13             0.00000     3.32138
  423. RY (15) C 13             0.00000     1.91374
  424. RY (16) C 13             0.00000    15.02867
  425. RY (17) C 13             0.00000     2.11218
  426. RY (18) C 13             0.00000     3.48557
  427. RY (19) C 13             0.00000     4.11635
  428. RY (20) C 13             0.00000     5.72519
  429. RY (21) C 13             0.00000     3.77386
  430. RY (22) C 13             0.00000     3.44203
  431. RY (23) C 13             0.00000     5.55283
  432. RY (24) C 13             0.00000     3.76950
  433. RY (25) C 13             0.00000     2.95507
  434. RY (26) C 13             0.00000     3.37681
  435. RY ( 1) C 14             0.00293     1.68247
  436. RY ( 2) C 14             0.00167     2.01308
  437. RY ( 3) C 14             0.00063     0.83471
  438. RY ( 4) C 14             0.00031     2.04054
  439. RY ( 5) C 14             0.00021     2.98964
  440. RY ( 6) C 14             0.00020     2.73666
  441. RY ( 7) C 14             0.00016     3.16560
  442. RY ( 8) C 14             0.00014     4.03163
  443. RY ( 9) C 14             0.00008     3.50984
  444. RY (10) C 14             0.00006     3.43068
  445. RY (11) C 14             0.00005     3.05528
  446. RY (12) C 14             0.00004     2.26283
  447. RY (13) C 14             0.00003     2.10334
  448. RY (14) C 14             0.00001     3.46249
  449. RY (15) C 14             0.00001     4.23245
  450. RY (16) C 14             0.00001     2.79104
  451. RY (17) C 14             0.00000     2.97477
  452. RY (18) C 14             0.00000     2.45443
  453. RY (19) C 14             0.00000    18.78355
  454. RY (20) C 14             0.00000     4.62917
  455. RY (21) C 14             0.00000     3.30199
  456. RY (22) C 14             0.00000     4.68755
  457. RY (23) C 14             0.00000     3.90756
  458. RY (24) C 14             0.00000     3.14636
  459. RY (25) C 14             0.00000     4.14989
  460. RY (26) C 14             0.00000     3.52849
  461. RY ( 1) H 15             0.00036     0.70810
  462. RY ( 2) H 15             0.00008     2.34572
  463. RY ( 3) H 15             0.00005     2.29282
  464. RY ( 4) H 15             0.00004     2.67809
  465. RY ( 5) H 15             0.00000     3.16331
  466. RY ( 1) H 16             0.00034     0.82049
  467. RY ( 2) H 16             0.00006     2.38266
  468. RY ( 3) H 16             0.00005     2.23934
  469. RY ( 4) H 16             0.00003     2.77018
  470. RY ( 5) H 16             0.00000     3.22402
  471. RY ( 1) H 17             0.00052     0.73287
  472. RY ( 2) H 17             0.00007     2.37443
  473. RY ( 3) H 17             0.00005     2.32830
  474. RY ( 4) H 17             0.00004     2.69348
  475. RY ( 5) H 17             0.00000     3.21446
  476. RY ( 1) H 18             0.00038     1.00724
  477. RY ( 2) H 18             0.00007     2.60730
  478. RY ( 3) H 18             0.00004     2.48493
  479. RY ( 4) H 18             0.00001     2.46048
  480. RY ( 5) H 18             0.00000     2.69502
  481. RY ( 1) H 19             0.00038     1.00724
  482. RY ( 2) H 19             0.00007     2.60730
  483. RY ( 3) H 19             0.00004     2.48493
  484. RY ( 4) H 19             0.00001     2.46049
  485. RY ( 5) H 19             0.00000     2.69500
  486. RY ( 1) H 20             0.00034     0.76239
  487. RY ( 2) H 20             0.00007     2.36682
  488. RY ( 3) H 20             0.00005     2.26646
  489. RY ( 4) H 20             0.00003     2.73846
  490. RY ( 5) H 20             0.00000     3.19385
  491. RY ( 1) H 21             0.00025     0.67211
  492. RY ( 2) H 21             0.00006     2.35746
  493. RY ( 3) H 21             0.00004     2.33694
  494. RY ( 4) H 21             0.00003     2.71604
  495. RY ( 5) H 21             0.00000     3.16031
  496. RY ( 1) H 22             0.00021     0.71979
  497. RY ( 2) H 22             0.00008     2.34083
  498. RY ( 3) H 22             0.00004     2.30141
  499. RY ( 4) H 22             0.00003     2.69965
  500. RY ( 5) H 22             0.00000     3.14080
  501. RY ( 1) H 23             0.00035     0.79623
  502. RY ( 2) H 23             0.00006     2.38115
  503. RY ( 3) H 23             0.00005     2.27190
  504. RY ( 4) H 23             0.00003     2.76447
  505. RY ( 5) H 23             0.00000     3.22348
          -------------------------------
                 Total Lewis   59.63785  ( 97.7670%)
           Valence non-Lewis    1.28941  (  2.1138%)
           Rydberg non-Lewis    0.07275  (  0.1193%)
          -------------------------------
               Total unit  1   61.00000  (100.0000%)
              Charge unit  1    0.00000

 $CHOOSE
  ALPHA
   LONE 1 3 2 1 11 1 END
   BOND S 1 2 S 2 3 S 2 7 D 3 4 S 3 15 S 4 5 S 4 16 S 5 6 D 5 14 D 6 7 S 6 8
        S 7 17 S 8 9 S 8 18 S 8 19 D 9 10 S 9 14 S 10 11 S 10 20 S 11 12
        S 11 21 D 12 13 S 12 22 S 13 14 S 13 23 END
  END
  BETA
   LONE 1 3 END
   BOND S 1 2 S 2 3 D 2 7 D 3 4 S 3 15 S 4 5 S 4 16 D 5 6 S 5 14 S 6 7 S 6 8
        S 7 17 S 8 9 S 8 18 S 8 19 S 9 10 D 9 14 D 10 11 S 10 20 S 11 12
        S 11 21 D 12 13 S 12 22 S 13 14 S 13 23 END
  END
 $END

 NBO analysis completed in 14.01 CPU seconds (14 wall seconds)
 Maximum scratch memory used by NBO was 2828349 words (21.58 MB)
 Maximum scratch memory used by G16NBO was 521281 words (3.98 MB)

 Opening RunExU unformatted file "/home/rpaton/arbr500/tzvp/fukui/Gau-2270415.EUF"
 Read unf file /home/rpaton/arbr500/tzvp/fukui/Gau-2270415.EUF:
 Label Gaussian matrix elements                                         IVers= 2 NLab= 2 Version=ES64L-G16RevC.01
 Title arbr34_wb97xd_redcreated by GaussianPrep                        
 NAtoms=    23 NBasis=   505 NBsUse=   505 ICharg=    -1 Multip=     2 NE=   123 Len12L=8 Len4L=8 IOpCl= 1 ICGU=112
 GAUSSIAN SCALARS                    NI= 1 NR= 1 NTot=       1 LenBuf=    2 NRI=1 N=    1000
 NPA CHARGES                         NI= 0 NR= 1 NTot=      23 LenBuf= 2048 NRI=1 N=      23
 Recovered energy= -3075.02175386     dipole=     -1.096738953886     -0.402119493356      0.000001784353
 Unable to Open any file for archive entry.
 1\1\GINC-DYNAMO\SP\UwB97XD\def2TZVP\C13H9Br1(1-,2)\RPATON\28-Sep-2024\
 0\\# pop=(nbo6,hirshfeld) wb97xd/def2tzvp\\arbr34_wb97xd_redcreated by
  GaussianPrep\\-1,2\Br,0,3.819441,-0.111666,-0.000001\C,0,1.940451,0.1
 43434,0.000003\C,0,1.434452,1.435857,0.000001\C,0,0.06234,1.635844,0.\
 C,0,-0.781567,0.536872,0.\C,0,-0.25577,-0.758021,0.000002\C,0,1.109476
 ,-0.967808,0.000003\C,0,-1.369891,-1.772021,-0.000002\C,0,-2.603024,-0
 .905689,0.\C,0,-3.93455,-1.275751,0.000001\C,0,-4.907833,-0.284097,0.\
 C,0,-4.550283,1.059384,0.\C,0,-3.215154,1.435071,-0.000002\C,0,-2.2442
 1,0.445415,-0.000002\H,0,2.110761,2.279434,0.\H,0,-0.333704,2.64375,-0
 .000001\H,0,1.527701,-1.965881,0.000002\H,0,-1.327123,-2.420471,-0.879
 096\H,0,-1.327126,-2.420471,0.879091\H,0,-4.219932,-2.321068,0.\H,0,-5
 .954802,-0.559597,0.\H,0,-5.321985,1.81873,0.000001\H,0,-2.940836,2.48
 295,0.\\Version=ES64L-G16RevC.01\State=2-A\HF=-3075.0217539\S2=0.77473
 \S2-1=0.\S2A=0.750407\RMSD=6.524e-09\Dipole=1.096739,-0.4021195,-0.000
 0018\Quadrupole=-24.409895,14.6668852,9.7430098,1.0205631,-0.0000109,0
 .0000106\PG=C01 [X(C13H9Br1)]\\@
 The archive entry for this job was punched.


 I FIND THAT THE THREE TRULY GREAT TIMES FOR THINKING THOUGHTS
 ARE WHEN I AM STANDING IN THE SHOWER, SITTING ON THE JOHN, OR WALKING.

                                    -- COLIN FLETCHER
 Job cpu time:       0 days  2 hours 48 minutes 32.1 seconds.
 Elapsed time:       0 days  0 hours  7 minutes  4.7 seconds.
 File lengths (MBytes):  RWF=    245 Int=      0 D2E=      0 Chk=     19 Scr=      1
 Normal termination of Gaussian 16 at Sat Sep 28 22:10:59 2024.
