 Entering Gaussian System, Link 0=/usr/local/Gaussian/G16C/g16/g16
 Input=arbr39_wb97xd_red.com
 Output=arbr39_wb97xd_red.log
 Initial command:
 /usr/local/Gaussian/G16C/g16/l1.exe "/home/rpaton/arbr500/tzvp/fukui/Gau-2304302.inp" -scrdir="/home/rpaton/arbr500/tzvp/fukui/"
 Entering Link 1 = /usr/local/Gaussian/G16C/g16/l1.exe PID=   2304303.
  
 Copyright (c) 1988-2019, Gaussian, Inc.  All Rights Reserved.
  
 This is part of the Gaussian(R) 16 program.  It is based on
 the Gaussian(R) 09 system (copyright 2009, Gaussian, Inc.),
 the Gaussian(R) 03 system (copyright 2003, Gaussian, Inc.),
 the Gaussian(R) 98 system (copyright 1998, Gaussian, Inc.),
 the Gaussian(R) 94 system (copyright 1995, Gaussian, Inc.),
 the Gaussian 92(TM) system (copyright 1992, Gaussian, Inc.),
 the Gaussian 90(TM) system (copyright 1990, Gaussian, Inc.),
 the Gaussian 88(TM) system (copyright 1988, Gaussian, Inc.),
 the Gaussian 86(TM) system (copyright 1986, Carnegie Mellon
 University), and the Gaussian 82(TM) system (copyright 1983,
 Carnegie Mellon University). Gaussian is a federally registered
 trademark of Gaussian, Inc.
  
 This software contains proprietary and confidential information,
 including trade secrets, belonging to Gaussian, Inc.
  
 This software is provided under written license and may be
 used, copied, transmitted, or stored only in accord with that
 written license.
  
 The following legend is applicable only to US Government
 contracts under FAR:
  
                    RESTRICTED RIGHTS LEGEND
  
 Use, reproduction and disclosure by the US Government is
 subject to restrictions as set forth in subparagraphs (a)
 and (c) of the Commercial Computer Software - Restricted
 Rights clause in FAR 52.227-19.
  
 Gaussian, Inc.
 340 Quinnipiac St., Bldg. 40, Wallingford CT 06492
  
  
 ---------------------------------------------------------------
 Warning -- This program may not be used in any manner that
 competes with the business of Gaussian, Inc. or will provide
 assistance to any competitor of Gaussian, Inc.  The licensee
 of this program is prohibited from giving any competitor of
 Gaussian, Inc. access to this program.  By using this program,
 the user acknowledges that Gaussian, Inc. is engaged in the
 business of creating and licensing software in the field of
 computational chemistry and represents and warrants to the
 licensee that it is not a competitor of Gaussian, Inc. and that
 it will not use this program in any manner prohibited above.
 ---------------------------------------------------------------
  

 Cite this work as:
 Gaussian 16, Revision C.01,
 M. J. Frisch, G. W. Trucks, H. B. Schlegel, G. E. Scuseria, 
 M. A. Robb, J. R. Cheeseman, G. Scalmani, V. Barone, 
 G. A. Petersson, H. Nakatsuji, X. Li, M. Caricato, A. V. Marenich, 
 J. Bloino, B. G. Janesko, R. Gomperts, B. Mennucci, H. P. Hratchian, 
 J. V. Ortiz, A. F. Izmaylov, J. L. Sonnenberg, D. Williams-Young, 
 F. Ding, F. Lipparini, F. Egidi, J. Goings, B. Peng, A. Petrone, 
 T. Henderson, D. Ranasinghe, V. G. Zakrzewski, J. Gao, N. Rega, 
 G. Zheng, W. Liang, M. Hada, M. Ehara, K. Toyota, R. Fukuda, 
 J. Hasegawa, M. Ishida, T. Nakajima, Y. Honda, O. Kitao, H. Nakai, 
 T. Vreven, K. Throssell, J. A. Montgomery, Jr., J. E. Peralta, 
 F. Ogliaro, M. J. Bearpark, J. J. Heyd, E. N. Brothers, K. N. Kudin, 
 V. N. Staroverov, T. A. Keith, R. Kobayashi, J. Normand, 
 K. Raghavachari, A. P. Rendell, J. C. Burant, S. S. Iyengar, 
 J. Tomasi, M. Cossi, J. M. Millam, M. Klene, C. Adamo, R. Cammi, 
 J. W. Ochterski, R. L. Martin, K. Morokuma, O. Farkas, 
 J. B. Foresman, and D. J. Fox, Gaussian, Inc., Wallingford CT, 2019.
 
 ******************************************
 Gaussian 16:  ES64L-G16RevC.01  3-Jul-2019
                28-Sep-2024 
 ******************************************
 %chk=arbr39_wb97xd_red.chk
 %mem=48GB
 %nprocshared=24
 Will use up to   24 processors via shared memory.
 --------------------------------------
 # pop=(nbo6,hirshfeld) wb97xd/def2tzvp
 --------------------------------------
 1/38=1,172=1/1;
 2/12=2,17=6,18=5,40=1/2;
 3/5=44,7=101,11=2,25=1,30=1,74=-58/1,2,3;
 4//1;
 5/5=2,38=5/2;
 6/7=2,8=2,9=2,10=2,28=1,40=1,79=1,113=1,114=1,124=3103,126=1/1,12;
 99/5=1,9=1/99;
 ----------------------------------------
 arbr39_wb97xd_redcreated by GaussianPrep
 ----------------------------------------
 Symbolic Z-matrix:
 Charge = -1 Multiplicity = 2
 O                     1.72094  -2.19294   0.00013 
 C                     1.61133  -0.99325   0.00101 
 C                     0.35136  -0.21803   0.00047 
 C                    -0.94866  -0.70405   0.00028 
 C                    -1.97127   0.22202   0.00003 
 Br                   -3.77218  -0.36649  -0.00015 
 C                    -1.70798   1.59153  -0.00005 
 C                    -0.40287   2.05396   0.00007 
 C                     0.63805   1.13641   0.00029 
 C                     2.12215   1.39311   0.00019 
 C                     2.76888  -0.00365   0.00018 
 C                     3.86798  -0.2447    1.07021 
 C                     4.94084   0.02843  -0.00078 
 C                     3.86704  -0.24516  -1.07071 
 H                    -1.13724  -1.76939   0.00042 
 H                    -2.53261   2.29163  -0.00026 
 H                    -0.20973   3.11982  -0.00009 
 H                     2.41261   1.97619   0.8773 
 H                     2.41244   1.97606  -0.87706 
 H                     3.841     0.39638   1.95122 
 H                     3.86561  -1.29024   1.37933 
 H                     5.82507  -0.6067   -0.00103 
 H                     5.25669   1.0724   -0.00115 
 H                     3.8393    0.39554  -1.95198 
 H                     3.86442  -1.29084  -1.37937 
 
                          Input orientation:                          
 ---------------------------------------------------------------------
 Center     Atomic      Atomic             Coordinates (Angstroms)
 Number     Number       Type             X           Y           Z
 ---------------------------------------------------------------------
      1          8           0        1.720941   -2.192944    0.000132
      2          6           0        1.611331   -0.993249    0.001006
      3          6           0        0.351364   -0.218033    0.000468
      4          6           0       -0.948663   -0.704047    0.000275
      5          6           0       -1.971272    0.222022    0.000026
      6         35           0       -3.772177   -0.366488   -0.000154
      7          6           0       -1.707982    1.591534   -0.000054
      8          6           0       -0.402866    2.053964    0.000067
      9          6           0        0.638049    1.136408    0.000292
     10          6           0        2.122149    1.393110    0.000193
     11          6           0        2.768880   -0.003648    0.000180
     12          6           0        3.867979   -0.244700    1.070207
     13          6           0        4.940841    0.028426   -0.000781
     14          6           0        3.867042   -0.245160   -1.070709
     15          1           0       -1.137236   -1.769394    0.000418
     16          1           0       -2.532610    2.291633   -0.000259
     17          1           0       -0.209725    3.119816   -0.000093
     18          1           0        2.412607    1.976191    0.877301
     19          1           0        2.412443    1.976061   -0.877057
     20          1           0        3.840998    0.396383    1.951219
     21          1           0        3.865614   -1.290240    1.379328
     22          1           0        5.825074   -0.606700   -0.001027
     23          1           0        5.256690    1.072396   -0.001147
     24          1           0        3.839300    0.395537   -1.951978
     25          1           0        3.864416   -1.290836   -1.379372
 ---------------------------------------------------------------------
                    Distance matrix (angstroms):
                    1          2          3          4          5
     1  O    0.000000
     2  C    1.204692   0.000000
     3  C    2.403334   1.479350   0.000000
     4  C    3.056730   2.576278   1.387905   0.000000
     5  C    4.411859   3.783111   2.363956   1.379613   0.000000
     6  Br   5.788807   5.419870   4.126213   2.843621   1.894625
     7  C    5.106837   4.207011   2.741430   2.417904   1.394591
     8  C    4.748345   3.652738   2.393916   2.811498   2.411620
     9  C    3.501034   2.341520   1.384449   2.430006   2.764897
    10  C    3.608428   2.440419   2.394047   3.718596   4.257645
    11  C    2.427178   1.522902   2.427003   3.782947   4.745521
    12  C    3.090386   2.606909   3.675817   4.955380   5.954827
    13  C    3.911808   3.482737   4.596090   5.934878   6.914824
    14  C    3.089711   2.606999   3.675343   4.954654   5.954044
    15  H    2.889389   2.856050   2.150035   1.081908   2.159017
    16  H    6.180949   5.287977   3.823052   3.388656   2.144386
    17  H    5.652689   4.498172   3.384680   3.894606   3.391203
    18  H    4.316192   3.198048   3.135630   4.387595   4.802615
    19  H    4.316044   3.198371   3.135625   4.387451   4.802383
    20  H    3.873757   3.271975   4.044809   5.287531   6.133518
    21  H    2.704936   2.658903   3.924390   5.042090   6.185358
    22  H    4.400009   4.231436   5.487492   6.774437   7.840267
    23  H    4.812896   4.189933   5.072222   6.454623   7.277814
    24  H    3.872778   3.272112   4.044034   5.286300   6.132143
    25  H    2.703944   2.659021   3.923825   5.041178   6.184394
                    6          7          8          9         10
     6  Br   0.000000
     7  C    2.845128   0.000000
     8  C    4.148595   1.384619   0.000000
     9  C    4.659269   2.389770   1.387593   0.000000
    10  C    6.151363   3.835267   2.610063   1.506137   0.000000
    11  C    6.551113   4.752568   3.780706   2.416644   1.539219
    12  C    7.715730   5.967290   4.966807   3.672142   2.622074
    13  C    8.721963   6.830092   5.714719   4.443157   3.131675
    14  C    7.714822   5.966627   4.966351   3.671807   2.622101
    15  H    2.985140   3.409045   3.893246   3.405190   4.541478
    16  H    2.932939   1.081735   2.142964   3.374555   4.740688
    17  H    4.984514   2.140192   1.083210   2.156995   2.901577
    18  H    6.671553   4.230481   2.949996   2.150218   1.092551
    19  H    6.671283   4.230236   2.949810   2.150170   1.092552
    20  H    7.896218   6.002252   4.956304   3.822648   2.784674
    21  H    7.816146   6.424351   5.595175   4.267029   3.484545
    22  H    9.600257   7.847239   6.772472   5.472080   4.208431
    23  H    9.142802   6.983993   5.744045   4.619085   3.150906
    24  H    7.894611   6.001063   4.955485   3.822075   2.784732
    25  H    7.814999   6.423566   5.594661   4.266665   3.484575
                   11         12         13         14         15
    11  C    0.000000
    12  C    1.552766   0.000000
    13  C    2.172198   1.540340   0.000000
    14  C    1.552769   2.140916   1.540337   0.000000
    15  H    4.286677   5.340535   6.338389   5.339794   0.000000
    16  H    5.777033   6.967526   7.808622   6.966831   4.294067
    17  H    4.316030   5.393809   6.007081   5.393451   4.976409
    18  H    2.194546   2.662269   3.310103   3.293103   5.234474
    19  H    2.194502   3.292750   3.309673   2.662176   5.234369
    20  H    2.261861   1.089907   2.270540   3.089386   5.768798
    21  H    2.181787   1.090282   2.190820   2.663621   5.211477
    22  H    3.115124   2.260267   1.088693   2.260270   7.058727
    23  H    2.710548   2.193413   1.090703   2.193408   6.997004
    24  H    2.261873   3.089390   2.270536   1.089907   5.767555
    25  H    2.181792   2.663616   2.190812   1.090283   5.210505
                   16         17         18         19         20
    16  H    0.000000
    17  H    2.466107   0.000000
    18  H    5.032374   2.992378   0.000000
    19  H    5.032088   2.992157   1.754358   0.000000
    20  H    6.929871   5.256716   2.385245   3.540522   0.000000
    21  H    7.461256   6.161151   3.610101   4.227494   1.781113
    22  H    8.845972   7.092653   4.368949   4.368539   2.958716
    23  H    7.884144   5.837262   3.110840   3.110236   2.504578
    24  H    6.928609   5.256059   3.541008   2.385253   3.903197
    25  H    7.460427   6.160754   4.227740   3.610147   3.733643
                   21         22         23         24         25
    21  H    0.000000
    22  H    2.492407   0.000000
    23  H    3.069667   1.772688   0.000000
    24  H    3.733649   2.958714   2.504571   0.000000
    25  H    2.758700   2.492400   3.069657   1.781113   0.000000
 Stoichiometry    C12H11BrO(1-,2)
 Framework group  C1[X(C12H11BrO)]
 Deg. of freedom    69
 Full point group                 C1      NOp   1
 Largest Abelian subgroup         C1      NOp   1
 Largest concise Abelian subgroup C1      NOp   1
                         Standard orientation:                         
 ---------------------------------------------------------------------
 Center     Atomic      Atomic             Coordinates (Angstroms)
 Number     Number       Type             X           Y           Z
 ---------------------------------------------------------------------
      1          8           0       -1.720941   -2.192944   -0.000132
      2          6           0       -1.611331   -0.993249   -0.001006
      3          6           0       -0.351364   -0.218033   -0.000468
      4          6           0        0.948663   -0.704047   -0.000275
      5          6           0        1.971272    0.222022   -0.000026
      6         35           0        3.772177   -0.366488    0.000154
      7          6           0        1.707982    1.591534    0.000054
      8          6           0        0.402866    2.053964   -0.000067
      9          6           0       -0.638049    1.136408   -0.000292
     10          6           0       -2.122149    1.393110   -0.000193
     11          6           0       -2.768880   -0.003648   -0.000180
     12          6           0       -3.867979   -0.244700   -1.070207
     13          6           0       -4.940841    0.028426    0.000781
     14          6           0       -3.867042   -0.245160    1.070709
     15          1           0        1.137236   -1.769394   -0.000418
     16          1           0        2.532610    2.291633    0.000259
     17          1           0        0.209725    3.119816    0.000093
     18          1           0       -2.412607    1.976191   -0.877301
     19          1           0       -2.412443    1.976061    0.877057
     20          1           0       -3.840998    0.396383   -1.951219
     21          1           0       -3.865614   -1.290240   -1.379328
     22          1           0       -5.825074   -0.606700    0.001027
     23          1           0       -5.256690    1.072396    0.001147
     24          1           0       -3.839300    0.395537    1.951978
     25          1           0       -3.864416   -1.290836    1.379372
 ---------------------------------------------------------------------
 Rotational constants (GHZ):           1.6890298           0.2228875           0.2033308
 Standard basis: def2TZVP (5D, 7F)
 There are   589 symmetry adapted cartesian basis functions of A   symmetry.
 There are   517 symmetry adapted basis functions of A   symmetry.
   517 basis functions,   865 primitive gaussians,   589 cartesian basis functions
    64 alpha electrons       63 beta electrons
       nuclear repulsion energy      1115.8831907815 Hartrees.
 NAtoms=   25 NActive=   25 NUniq=   25 SFac= 1.00D+00 NAtFMM=   60 NAOKFM=F Big=F
 Integral buffers will be    131072 words long.
 Raffenetti 2 integral format.
 Two-electron integral symmetry is turned on.
 Nuclear repulsion after empirical dispersion term =     1115.8650507607 Hartrees.
 One-electron integrals computed using PRISM.
   1 Symmetry operations used in ECPInt.
 ECPInt:  NShTT=   20706 NPrTT=   67180 LenC2=   19152 LenP2D=   45818.
 LDataN:  DoStor=T MaxTD1= 6 Len=  172
 NBasis=   517 RedAO= T EigKep=  6.06D-06  NBF=   517
 NBsUse=   517 1.00D-06 EigRej= -1.00D+00 NBFU=   517
 ExpMin= 9.52D-02 ExpMax= 5.65D+05 ExpMxC= 5.46D+03 IAcc=3 IRadAn=         5 AccDes= 0.00D+00
 Harris functional with IExCor= 4639 and IRadAn=       5 diagonalized for initial guess.
 HarFok:  IExCor= 4639 AccDes= 0.00D+00 IRadAn=         5 IDoV= 1 UseB2=F ITyADJ=14
 ICtDFT=  3500011 ScaDFX=  1.000000  1.000000  1.000000  1.000000
 FoFCou: FMM=F IPFlag=           0 FMFlag=      100000 FMFlg1=           0
         NFxFlg=           0 DoJE=T BraDBF=F KetDBF=T FulRan=T
         wScrn=  0.000000 ICntrl=       500 IOpCl=  0 I1Cent=   200000004 NGrid=           0
         NMat0=    1 NMatS0=      1 NMatT0=    0 NMatD0=    1 NMtDS0=    0 NMtDT0=    0
 Petite list used in FoFCou.
 Initial guess <Sx>= 0.0000 <Sy>= 0.0000 <Sz>= 0.5000 <S**2>= 0.7500 S= 0.5000
 Requested convergence on RMS density matrix=1.00D-08 within 128 cycles.
 Requested convergence on MAX density matrix=1.00D-06.
 Requested convergence on             energy=1.00D-06.
 No special actions if energy rises.
 Integral accuracy reduced to 1.0D-05 until final iterations.
 Initial convergence to 1.0D-05 achieved.  Increase integral accuracy.
 SCF Done:  E(UwB97XD) =  -3113.35361376     A.U. after   33 cycles
            NFock= 33  Conv=0.82D-08     -V/T= 2.0019
 <Sx>= 0.0000 <Sy>= 0.0000 <Sz>= 0.5000 <S**2>= 0.7690 S= 0.5095
 <L.S>= 0.000000000000E+00
 Annihilation of the first spin contaminant:
 S**2 before annihilation     0.7690,   after     0.7502

 **********************************************************************

            Population analysis using the SCF Density.

 **********************************************************************

 Orbital symmetries:
 Alpha Orbitals:
       Occupied  (A) (A) (A) (A) (A) (A) (A) (A) (A) (A) (A) (A)
                 (A) (A) (A) (A) (A) (A) (A) (A) (A) (A) (A) (A)
                 (A) (A) (A) (A) (A) (A) (A) (A) (A) (A) (A) (A)
                 (A) (A) (A) (A) (A) (A) (A) (A) (A) (A) (A) (A)
                 (A) (A) (A) (A) (A) (A) (A) (A) (A) (A) (A) (A)
                 (A) (A) (A) (A)
       Virtual   (A) (A) (A) (A) (A) (A) (A) (A) (A) (A) (A) (A)
                 (A) (A) (A) (A) (A) (A) (A) (A) (A) (A) (A) (A)
                 (A) (A) (A) (A) (A) (A) (A) (A) (A) (A) (A) (A)
                 (A) (A) (A) (A) (A) (A) (A) (A) (A) (A) (A) (A)
                 (A) (A) (A) (A) (A) (A) (A) (A) (A) (A) (A) (A)
                 (A) (A) (A) (A) (A) (A) (A) (A) (A) (A) (A) (A)
                 (A) (A) (A) (A) (A) (A) (A) (A) (A) (A) (A) (A)
                 (A) (A) (A) (A) (A) (A) (A) (A) (A) (A) (A) (A)
                 (A) (A) (A) (A) (A) (A) (A) (A) (A) (A) (A) (A)
                 (A) (A) (A) (A) (A) (A) (A) (A) (A) (A) (A) (A)
                 (A) (A) (A) (A) (A) (A) (A) (A) (A) (A) (A) (A)
                 (A) (A) (A) (A) (A) (A) (A) (A) (A) (A) (A) (A)
                 (A) (A) (A) (A) (A) (A) (A) (A) (A) (A) (A) (A)
                 (A) (A) (A) (A) (A) (A) (A) (A) (A) (A) (A) (A)
                 (A) (A) (A) (A) (A) (A) (A) (A) (A) (A) (A) (A)
                 (A) (A) (A) (A) (A) (A) (A) (A) (A) (A) (A) (A)
                 (A) (A) (A) (A) (A) (A) (A) (A) (A) (A) (A) (A)
                 (A) (A) (A) (A) (A) (A) (A) (A) (A) (A) (A) (A)
                 (A) (A) (A) (A) (A) (A) (A) (A) (A) (A) (A) (A)
                 (A) (A) (A) (A) (A) (A) (A) (A) (A) (A) (A) (A)
                 (A) (A) (A) (A) (A) (A) (A) (A) (A) (A) (A) (A)
                 (A) (A) (A) (A) (A) (A) (A) (A) (A) (A) (A) (A)
                 (A) (A) (A) (A) (A) (A) (A) (A) (A) (A) (A) (A)
                 (A) (A) (A) (A) (A) (A) (A) (A) (A) (A) (A) (A)
                 (A) (A) (A) (A) (A) (A) (A) (A) (A) (A) (A) (A)
                 (A) (A) (A) (A) (A) (A) (A) (A) (A) (A) (A) (A)
                 (A) (A) (A) (A) (A) (A) (A) (A) (A) (A) (A) (A)
                 (A) (A) (A) (A) (A) (A) (A) (A) (A) (A) (A) (A)
                 (A) (A) (A) (A) (A) (A) (A) (A) (A) (A) (A) (A)
                 (A) (A) (A) (A) (A) (A) (A) (A) (A) (A) (A) (A)
                 (A) (A) (A) (A) (A) (A) (A) (A) (A) (A) (A) (A)
                 (A) (A) (A) (A) (A) (A) (A) (A) (A) (A) (A) (A)
                 (A) (A) (A) (A) (A) (A) (A) (A) (A) (A) (A) (A)
                 (A) (A) (A) (A) (A) (A) (A) (A) (A) (A) (A) (A)
                 (A) (A) (A) (A) (A) (A) (A) (A) (A) (A) (A) (A)
                 (A) (A) (A) (A) (A) (A) (A) (A) (A) (A) (A) (A)
                 (A) (A) (A) (A) (A) (A) (A) (A) (A) (A) (A) (A)
                 (A) (A) (A) (A) (A) (A) (A) (A) (A)
 Beta  Orbitals:
       Occupied  (A) (A) (A) (A) (A) (A) (A) (A) (A) (A) (A) (A)
                 (A) (A) (A) (A) (A) (A) (A) (A) (A) (A) (A) (A)
                 (A) (A) (A) (A) (A) (A) (A) (A) (A) (A) (A) (A)
                 (A) (A) (A) (A) (A) (A) (A) (A) (A) (A) (A) (A)
                 (A) (A) (A) (A) (A) (A) (A) (A) (A) (A) (A) (A)
                 (A) (A) (A)
       Virtual   (A) (A) (A) (A) (A) (A) (A) (A) (A) (A) (A) (A)
                 (A) (A) (A) (A) (A) (A) (A) (A) (A) (A) (A) (A)
                 (A) (A) (A) (A) (A) (A) (A) (A) (A) (A) (A) (A)
                 (A) (A) (A) (A) (A) (A) (A) (A) (A) (A) (A) (A)
                 (A) (A) (A) (A) (A) (A) (A) (A) (A) (A) (A) (A)
                 (A) (A) (A) (A) (A) (A) (A) (A) (A) (A) (A) (A)
                 (A) (A) (A) (A) (A) (A) (A) (A) (A) (A) (A) (A)
                 (A) (A) (A) (A) (A) (A) (A) (A) (A) (A) (A) (A)
                 (A) (A) (A) (A) (A) (A) (A) (A) (A) (A) (A) (A)
                 (A) (A) (A) (A) (A) (A) (A) (A) (A) (A) (A) (A)
                 (A) (A) (A) (A) (A) (A) (A) (A) (A) (A) (A) (A)
                 (A) (A) (A) (A) (A) (A) (A) (A) (A) (A) (A) (A)
                 (A) (A) (A) (A) (A) (A) (A) (A) (A) (A) (A) (A)
                 (A) (A) (A) (A) (A) (A) (A) (A) (A) (A) (A) (A)
                 (A) (A) (A) (A) (A) (A) (A) (A) (A) (A) (A) (A)
                 (A) (A) (A) (A) (A) (A) (A) (A) (A) (A) (A) (A)
                 (A) (A) (A) (A) (A) (A) (A) (A) (A) (A) (A) (A)
                 (A) (A) (A) (A) (A) (A) (A) (A) (A) (A) (A) (A)
                 (A) (A) (A) (A) (A) (A) (A) (A) (A) (A) (A) (A)
                 (A) (A) (A) (A) (A) (A) (A) (A) (A) (A) (A) (A)
                 (A) (A) (A) (A) (A) (A) (A) (A) (A) (A) (A) (A)
                 (A) (A) (A) (A) (A) (A) (A) (A) (A) (A) (A) (A)
                 (A) (A) (A) (A) (A) (A) (A) (A) (A) (A) (A) (A)
                 (A) (A) (A) (A) (A) (A) (A) (A) (A) (A) (A) (A)
                 (A) (A) (A) (A) (A) (A) (A) (A) (A) (A) (A) (A)
                 (A) (A) (A) (A) (A) (A) (A) (A) (A) (A) (A) (A)
                 (A) (A) (A) (A) (A) (A) (A) (A) (A) (A) (A) (A)
                 (A) (A) (A) (A) (A) (A) (A) (A) (A) (A) (A) (A)
                 (A) (A) (A) (A) (A) (A) (A) (A) (A) (A) (A) (A)
                 (A) (A) (A) (A) (A) (A) (A) (A) (A) (A) (A) (A)
                 (A) (A) (A) (A) (A) (A) (A) (A) (A) (A) (A) (A)
                 (A) (A) (A) (A) (A) (A) (A) (A) (A) (A) (A) (A)
                 (A) (A) (A) (A) (A) (A) (A) (A) (A) (A) (A) (A)
                 (A) (A) (A) (A) (A) (A) (A) (A) (A) (A) (A) (A)
                 (A) (A) (A) (A) (A) (A) (A) (A) (A) (A) (A) (A)
                 (A) (A) (A) (A) (A) (A) (A) (A) (A) (A) (A) (A)
                 (A) (A) (A) (A) (A) (A) (A) (A) (A) (A) (A) (A)
                 (A) (A) (A) (A) (A) (A) (A) (A) (A) (A)
 The electronic state is 2-A.
 Alpha  occ. eigenvalues -- -482.99663 -62.54529 -56.33613 -56.33299 -56.33297
 Alpha  occ. eigenvalues --  -19.03854 -10.19384 -10.16610 -10.16542 -10.15475
 Alpha  occ. eigenvalues --  -10.15454 -10.15413 -10.15409 -10.14210 -10.13512
 Alpha  occ. eigenvalues --  -10.13073 -10.12738 -10.11578  -8.68666  -6.50737
 Alpha  occ. eigenvalues --   -6.49724  -6.49714  -2.61149  -2.60840  -2.60834
 Alpha  occ. eigenvalues --   -2.60014  -2.60014  -0.96056  -0.83988  -0.82356
 Alpha  occ. eigenvalues --   -0.77880  -0.72858  -0.70259  -0.64774  -0.63511
 Alpha  occ. eigenvalues --   -0.61997  -0.58091  -0.53110  -0.50858  -0.48049
 Alpha  occ. eigenvalues --   -0.44441  -0.43492  -0.42053  -0.40573  -0.39303
 Alpha  occ. eigenvalues --   -0.37709  -0.36423  -0.35776  -0.34678  -0.33039
 Alpha  occ. eigenvalues --   -0.32945  -0.31902  -0.29701  -0.29287  -0.28220
 Alpha  occ. eigenvalues --   -0.27357  -0.26216  -0.26009  -0.24773  -0.24253
 Alpha  occ. eigenvalues --   -0.19490  -0.17582  -0.15476  -0.01386
 Alpha virt. eigenvalues --    0.19765   0.20943   0.21718   0.23587   0.23919
 Alpha virt. eigenvalues --    0.25970   0.26361   0.26839   0.27449   0.28847
 Alpha virt. eigenvalues --    0.29460   0.30520   0.30890   0.32387   0.33460
 Alpha virt. eigenvalues --    0.33943   0.35470   0.35671   0.37169   0.37267
 Alpha virt. eigenvalues --    0.37503   0.39250   0.39290   0.40138   0.40787
 Alpha virt. eigenvalues --    0.40981   0.42265   0.42761   0.42792   0.43797
 Alpha virt. eigenvalues --    0.44325   0.45047   0.46348   0.46695   0.47880
 Alpha virt. eigenvalues --    0.47962   0.49538   0.49653   0.50483   0.50926
 Alpha virt. eigenvalues --    0.51843   0.53553   0.54215   0.54544   0.55081
 Alpha virt. eigenvalues --    0.55412   0.56473   0.56795   0.57211   0.57406
 Alpha virt. eigenvalues --    0.57932   0.58971   0.59145   0.59711   0.61227
 Alpha virt. eigenvalues --    0.61235   0.62314   0.62606   0.63125   0.63647
 Alpha virt. eigenvalues --    0.64232   0.64252   0.65022   0.65475   0.66351
 Alpha virt. eigenvalues --    0.66476   0.67912   0.69005   0.70028   0.70101
 Alpha virt. eigenvalues --    0.70714   0.71638   0.71962   0.73366   0.73790
 Alpha virt. eigenvalues --    0.74932   0.76381   0.76905   0.77983   0.78939
 Alpha virt. eigenvalues --    0.80139   0.80297   0.82642   0.83685   0.83919
 Alpha virt. eigenvalues --    0.85942   0.86770   0.88726   0.89564   0.89682
 Alpha virt. eigenvalues --    0.91207   0.91390   0.92396   0.94139   0.94197
 Alpha virt. eigenvalues --    0.94993   0.98107   0.99900   1.00307   1.00800
 Alpha virt. eigenvalues --    1.02054   1.03618   1.04415   1.05617   1.07018
 Alpha virt. eigenvalues --    1.08766   1.09128   1.10189   1.12499   1.13117
 Alpha virt. eigenvalues --    1.14383   1.14790   1.15441   1.15842   1.16665
 Alpha virt. eigenvalues --    1.18653   1.19812   1.20360   1.21243   1.21349
 Alpha virt. eigenvalues --    1.22309   1.24384   1.24760   1.26038   1.27364
 Alpha virt. eigenvalues --    1.29535   1.30240   1.30883   1.32000   1.34128
 Alpha virt. eigenvalues --    1.34694   1.34771   1.36368   1.36383   1.38095
 Alpha virt. eigenvalues --    1.40811   1.40888   1.42300   1.42359   1.42457
 Alpha virt. eigenvalues --    1.43476   1.45656   1.46111   1.48477   1.49955
 Alpha virt. eigenvalues --    1.50723   1.52136   1.53147   1.54461   1.55332
 Alpha virt. eigenvalues --    1.57313   1.57969   1.59247   1.60752   1.60966
 Alpha virt. eigenvalues --    1.61808   1.62792   1.64178   1.66793   1.67146
 Alpha virt. eigenvalues --    1.67539   1.69300   1.70911   1.72014   1.72111
 Alpha virt. eigenvalues --    1.74007   1.74017   1.75085   1.76707   1.77740
 Alpha virt. eigenvalues --    1.77912   1.78784   1.80442   1.80725   1.81688
 Alpha virt. eigenvalues --    1.83021   1.83183   1.85334   1.85376   1.87669
 Alpha virt. eigenvalues --    1.88538   1.88953   1.89151   1.92211   1.92721
 Alpha virt. eigenvalues --    1.92758   1.94498   1.95195   1.95509   1.97123
 Alpha virt. eigenvalues --    1.97320   1.98254   1.99545   2.00179   2.02720
 Alpha virt. eigenvalues --    2.02958   2.04044   2.04998   2.07011   2.09831
 Alpha virt. eigenvalues --    2.11325   2.12247   2.13708   2.14090   2.14984
 Alpha virt. eigenvalues --    2.16031   2.17770   2.18972   2.20616   2.22297
 Alpha virt. eigenvalues --    2.24635   2.27261   2.28011   2.29661   2.30323
 Alpha virt. eigenvalues --    2.32537   2.36525   2.37584   2.37958   2.38584
 Alpha virt. eigenvalues --    2.39609   2.41642   2.43894   2.44353   2.45151
 Alpha virt. eigenvalues --    2.46201   2.50260   2.52799   2.52917   2.53828
 Alpha virt. eigenvalues --    2.57410   2.58426   2.58455   2.59945   2.60656
 Alpha virt. eigenvalues --    2.64083   2.65289   2.66018   2.66986   2.68000
 Alpha virt. eigenvalues --    2.72281   2.72407   2.72906   2.73888   2.74644
 Alpha virt. eigenvalues --    2.77823   2.79323   2.79330   2.81235   2.81873
 Alpha virt. eigenvalues --    2.82086   2.84386   2.85523   2.85750   2.86066
 Alpha virt. eigenvalues --    2.88032   2.88779   2.89165   2.90577   2.90981
 Alpha virt. eigenvalues --    2.94257   2.94820   2.95281   2.96338   2.96521
 Alpha virt. eigenvalues --    2.97591   3.00676   3.01201   3.02869   3.03136
 Alpha virt. eigenvalues --    3.03905   3.05419   3.06572   3.08170   3.08201
 Alpha virt. eigenvalues --    3.08694   3.11222   3.12099   3.14118   3.14391
 Alpha virt. eigenvalues --    3.17182   3.17372   3.19187   3.19197   3.19659
 Alpha virt. eigenvalues --    3.23952   3.24417   3.24565   3.24811   3.25956
 Alpha virt. eigenvalues --    3.26267   3.28325   3.29588   3.31782   3.31856
 Alpha virt. eigenvalues --    3.33152   3.34996   3.37298   3.38269   3.39098
 Alpha virt. eigenvalues --    3.40138   3.40938   3.40970   3.42395   3.43456
 Alpha virt. eigenvalues --    3.44545   3.45273   3.47566   3.49655   3.49673
 Alpha virt. eigenvalues --    3.50578   3.50890   3.51488   3.52762   3.53141
 Alpha virt. eigenvalues --    3.55870   3.56846   3.57319   3.59095   3.59353
 Alpha virt. eigenvalues --    3.61042   3.61341   3.62121   3.62768   3.64771
 Alpha virt. eigenvalues --    3.66504   3.67343   3.68546   3.69276   3.69936
 Alpha virt. eigenvalues --    3.71764   3.72439   3.73720   3.74489   3.77798
 Alpha virt. eigenvalues --    3.78086   3.79260   3.80767   3.81126   3.82703
 Alpha virt. eigenvalues --    3.83034   3.86494   3.87907   3.89108   3.91489
 Alpha virt. eigenvalues --    3.92326   3.93612   3.94923   3.97741   3.99961
 Alpha virt. eigenvalues --    4.00102   4.03039   4.03640   4.04688   4.06365
 Alpha virt. eigenvalues --    4.08042   4.09346   4.10001   4.12058   4.13375
 Alpha virt. eigenvalues --    4.15273   4.21321   4.23234   4.25068   4.25076
 Alpha virt. eigenvalues --    4.26394   4.26408   4.30170   4.30891   4.30968
 Alpha virt. eigenvalues --    4.31616   4.34217   4.35207   4.37243   4.37749
 Alpha virt. eigenvalues --    4.40465   4.40757   4.42834   4.44780   4.46586
 Alpha virt. eigenvalues --    4.47300   4.48304   4.48975   4.51728   4.52957
 Alpha virt. eigenvalues --    4.55065   4.55097   4.57628   4.58871   4.60186
 Alpha virt. eigenvalues --    4.60514   4.62329   4.66315   4.67577   4.70778
 Alpha virt. eigenvalues --    4.72368   4.74557   4.74684   4.78596   4.80176
 Alpha virt. eigenvalues --    4.83841   4.84331   4.86412   4.92508   4.96548
 Alpha virt. eigenvalues --    4.97100   5.00005   5.00258   5.03566   5.07405
 Alpha virt. eigenvalues --    5.09686   5.11714   5.12906   5.19489   5.20650
 Alpha virt. eigenvalues --    5.24325   5.28850   5.34024   5.42316   5.43408
 Alpha virt. eigenvalues --    5.47958   5.48358   5.53493   5.57137   5.58713
 Alpha virt. eigenvalues --    5.69966   5.76118   5.82691   5.92270   5.99466
 Alpha virt. eigenvalues --    6.12155   6.47887   6.68368   6.77942   6.90803
 Alpha virt. eigenvalues --    7.04550   7.11367   7.38021   7.42229   7.99523
 Alpha virt. eigenvalues --   22.39198  22.63936  22.73846  22.81732  22.86360
 Alpha virt. eigenvalues --   22.96736  23.02592  23.07376  23.21678  23.27872
 Alpha virt. eigenvalues --   23.78793  23.92694  44.33458
  Beta  occ. eigenvalues -- -482.99663 -62.54529 -56.33612 -56.33302 -56.33297
  Beta  occ. eigenvalues --  -19.03366 -10.19530 -10.16543 -10.16379 -10.15500
  Beta  occ. eigenvalues --  -10.15467 -10.15364 -10.15362 -10.14150 -10.13477
  Beta  occ. eigenvalues --  -10.12738 -10.12451 -10.11511  -8.68667  -6.50735
  Beta  occ. eigenvalues --   -6.49729  -6.49714  -2.61148  -2.60843  -2.60833
  Beta  occ. eigenvalues --   -2.60017  -2.60016  -0.95022  -0.83741  -0.82137
  Beta  occ. eigenvalues --   -0.77747  -0.72586  -0.69651  -0.64536  -0.63408
  Beta  occ. eigenvalues --   -0.61494  -0.57466  -0.52883  -0.50571  -0.47865
  Beta  occ. eigenvalues --   -0.44357  -0.43360  -0.41526  -0.40290  -0.39002
  Beta  occ. eigenvalues --   -0.37422  -0.36185  -0.35258  -0.34621  -0.32730
  Beta  occ. eigenvalues --   -0.32275  -0.31134  -0.29364  -0.28144  -0.28044
  Beta  occ. eigenvalues --   -0.27195  -0.25968  -0.25888  -0.24208  -0.23658
  Beta  occ. eigenvalues --   -0.17111  -0.16069  -0.14970
  Beta virt. eigenvalues --    0.18279   0.20074   0.20817   0.21711   0.23875
  Beta virt. eigenvalues --    0.25379   0.25967   0.26351   0.27502   0.28269
  Beta virt. eigenvalues --    0.29465   0.29635   0.30544   0.30893   0.32353
  Beta virt. eigenvalues --    0.33836   0.33925   0.35465   0.35655   0.37279
  Beta virt. eigenvalues --    0.37376   0.37507   0.39237   0.39636   0.40193
  Beta virt. eigenvalues --    0.40815   0.41311   0.42275   0.42721   0.43378
  Beta virt. eigenvalues --    0.43820   0.44335   0.45596   0.46436   0.46740
  Beta virt. eigenvalues --    0.47998   0.48198   0.49717   0.49821   0.50553
  Beta virt. eigenvalues --    0.50867   0.51844   0.53740   0.54338   0.54650
  Beta virt. eigenvalues --    0.55198   0.55528   0.56522   0.56923   0.57326
  Beta virt. eigenvalues --    0.57449   0.58125   0.59066   0.59305   0.59914
  Beta virt. eigenvalues --    0.61283   0.61422   0.62429   0.62813   0.63215
  Beta virt. eigenvalues --    0.63810   0.64229   0.64356   0.65081   0.65541
  Beta virt. eigenvalues --    0.66483   0.66524   0.68028   0.69022   0.70121
  Beta virt. eigenvalues --    0.70152   0.70844   0.71672   0.72032   0.73427
  Beta virt. eigenvalues --    0.74010   0.74973   0.76453   0.76916   0.78073
  Beta virt. eigenvalues --    0.78909   0.80418   0.80475   0.82763   0.83657
  Beta virt. eigenvalues --    0.84418   0.85966   0.86778   0.88776   0.89851
  Beta virt. eigenvalues --    0.89900   0.91399   0.91623   0.92467   0.94248
  Beta virt. eigenvalues --    0.94629   0.95125   0.98107   0.99944   1.00339
  Beta virt. eigenvalues --    1.01336   1.02116   1.03819   1.04689   1.05713
  Beta virt. eigenvalues --    1.07567   1.08789   1.09208   1.10320   1.12593
  Beta virt. eigenvalues --    1.13469   1.14453   1.14965   1.15510   1.16043
  Beta virt. eigenvalues --    1.16800   1.18944   1.19876   1.20497   1.21561
  Beta virt. eigenvalues --    1.21588   1.22368   1.24600   1.24928   1.26144
  Beta virt. eigenvalues --    1.27449   1.29882   1.30339   1.31007   1.32424
  Beta virt. eigenvalues --    1.34160   1.34933   1.35078   1.36497   1.36608
  Beta virt. eigenvalues --    1.38165   1.40840   1.41054   1.42538   1.42572
  Beta virt. eigenvalues --    1.42604   1.43670   1.45832   1.46262   1.48542
  Beta virt. eigenvalues --    1.50118   1.51046   1.52460   1.53238   1.54589
  Beta virt. eigenvalues --    1.55453   1.57445   1.58010   1.59564   1.60845
  Beta virt. eigenvalues --    1.61473   1.61916   1.63240   1.64275   1.66854
  Beta virt. eigenvalues --    1.67392   1.67964   1.69392   1.71644   1.72110
  Beta virt. eigenvalues --    1.72271   1.74131   1.74355   1.75070   1.76737
  Beta virt. eigenvalues --    1.77985   1.78114   1.79021   1.80511   1.80853
  Beta virt. eigenvalues --    1.81802   1.83081   1.83362   1.85412   1.85490
  Beta virt. eigenvalues --    1.87832   1.88673   1.89300   1.89474   1.92598
  Beta virt. eigenvalues --    1.92724   1.93314   1.94576   1.95414   1.95788
  Beta virt. eigenvalues --    1.97301   1.97443   1.98357   1.99701   2.00242
  Beta virt. eigenvalues --    2.02879   2.03059   2.04488   2.05035   2.07334
  Beta virt. eigenvalues --    2.10010   2.11791   2.12497   2.14094   2.14232
  Beta virt. eigenvalues --    2.15178   2.16548   2.17926   2.19138   2.20933
  Beta virt. eigenvalues --    2.22516   2.24956   2.27424   2.28208   2.29930
  Beta virt. eigenvalues --    2.30571   2.32944   2.36689   2.37999   2.38143
  Beta virt. eigenvalues --    2.38771   2.40225   2.41941   2.44097   2.44575
  Beta virt. eigenvalues --    2.45427   2.46534   2.50372   2.52991   2.53119
  Beta virt. eigenvalues --    2.53940   2.57678   2.58514   2.58842   2.60248
  Beta virt. eigenvalues --    2.60880   2.64233   2.65442   2.66258   2.67292
  Beta virt. eigenvalues --    2.68077   2.72393   2.72519   2.73166   2.74068
  Beta virt. eigenvalues --    2.74813   2.78045   2.79422   2.79681   2.81377
  Beta virt. eigenvalues --    2.81982   2.82366   2.84533   2.85686   2.85972
  Beta virt. eigenvalues --    2.86244   2.88139   2.89344   2.89398   2.90907
  Beta virt. eigenvalues --    2.91063   2.94552   2.95052   2.95607   2.96489
  Beta virt. eigenvalues --    2.97040   2.97911   3.00929   3.01376   3.03304
  Beta virt. eigenvalues --    3.03338   3.04109   3.05831   3.06794   3.08445
  Beta virt. eigenvalues --    3.08457   3.09087   3.11607   3.12289   3.14277
  Beta virt. eigenvalues --    3.14654   3.17631   3.17638   3.19528   3.19598
  Beta virt. eigenvalues --    3.19888   3.24261   3.24729   3.24986   3.25140
  Beta virt. eigenvalues --    3.26364   3.26619   3.28423   3.30153   3.32006
  Beta virt. eigenvalues --    3.32266   3.33511   3.35268   3.37423   3.38375
  Beta virt. eigenvalues --    3.39450   3.40478   3.41241   3.41267   3.42784
  Beta virt. eigenvalues --    3.43834   3.44736   3.45464   3.47807   3.49855
  Beta virt. eigenvalues --    3.50041   3.50837   3.51080   3.51690   3.52974
  Beta virt. eigenvalues --    3.53317   3.56260   3.57003   3.57557   3.59489
  Beta virt. eigenvalues --    3.59715   3.61270   3.61496   3.62375   3.63154
  Beta virt. eigenvalues --    3.64933   3.66638   3.67542   3.68704   3.69568
  Beta virt. eigenvalues --    3.70232   3.72337   3.72610   3.73964   3.74984
  Beta virt. eigenvalues --    3.78214   3.78253   3.79675   3.81064   3.81293
  Beta virt. eigenvalues --    3.83118   3.83148   3.86772   3.88230   3.89741
  Beta virt. eigenvalues --    3.91685   3.92564   3.93744   3.95028   3.97914
  Beta virt. eigenvalues --    4.00173   4.00326   4.03568   4.03937   4.05006
  Beta virt. eigenvalues --    4.06587   4.08150   4.09594   4.10094   4.12211
  Beta virt. eigenvalues --    4.13573   4.15428   4.21521   4.23268   4.25303
  Beta virt. eigenvalues --    4.25316   4.26483   4.26652   4.30357   4.31148
  Beta virt. eigenvalues --    4.31402   4.31720   4.34345   4.35356   4.37523
  Beta virt. eigenvalues --    4.37915   4.40601   4.40931   4.43092   4.45022
  Beta virt. eigenvalues --    4.46722   4.47438   4.48716   4.49343   4.52324
  Beta virt. eigenvalues --    4.53113   4.55224   4.55247   4.58088   4.58994
  Beta virt. eigenvalues --    4.60347   4.60884   4.62423   4.66457   4.67711
  Beta virt. eigenvalues --    4.70923   4.72587   4.74852   4.74923   4.78806
  Beta virt. eigenvalues --    4.80358   4.84047   4.84419   4.86497   4.92637
  Beta virt. eigenvalues --    4.96718   4.97577   5.00492   5.00522   5.03754
  Beta virt. eigenvalues --    5.07656   5.09825   5.11924   5.12946   5.19787
  Beta virt. eigenvalues --    5.20789   5.24452   5.28986   5.34247   5.42617
  Beta virt. eigenvalues --    5.43723   5.48757   5.49656   5.53835   5.57369
  Beta virt. eigenvalues --    5.58930   5.70302   5.76421   5.82873   5.93181
  Beta virt. eigenvalues --    5.99643   6.12761   6.49417   6.70094   6.78832
  Beta virt. eigenvalues --    6.92360   7.04915   7.12871   7.38489   7.42852
  Beta virt. eigenvalues --    7.99516  22.39345  22.63980  22.73859  22.81790
  Beta virt. eigenvalues --   22.86395  22.96986  23.02781  23.07454  23.21674
  Beta virt. eigenvalues --   23.28010  23.79159  23.92812  44.33915
          Condensed to atoms (all electrons):
               1          2          3          4          5          6
     1  O    7.977763   0.771124  -0.273348   0.067858   0.002957   0.000043
     2  C    0.771124   5.414874  -0.324311  -0.031890   0.013198  -0.001028
     3  C   -0.273348  -0.324311   6.553646  -0.105154   0.058638   0.011138
     4  C    0.067858  -0.031890  -0.105154   5.925761   0.261296  -0.080671
     5  C    0.002957   0.013198   0.058638   0.261296   5.071851   0.300884
     6  Br   0.000043  -0.001028   0.011138  -0.080671   0.300884  35.011187
     7  C    0.000021   0.002926  -0.122549   0.053378   0.254126  -0.077078
     8  C    0.000971   0.017481   0.005482  -0.102736   0.132997   0.021513
     9  C    0.003908  -0.031927   0.405136  -0.121216  -0.121785  -0.003981
    10  C    0.013130  -0.049596  -0.099010  -0.021261   0.000268   0.000038
    11  C   -0.175778   0.227233  -0.148737   0.100600  -0.005421   0.000003
    12  C    0.011247  -0.036528   0.026990  -0.003326   0.000289  -0.000001
    13  C   -0.006702   0.009281  -0.008386   0.000918  -0.000042   0.000000
    14  C    0.011231  -0.035391   0.026545  -0.003331   0.000294  -0.000001
    15  H    0.014033   0.007783  -0.098191   0.496035  -0.100364  -0.003570
    16  H   -0.000002   0.000185  -0.006257   0.020980  -0.102087  -0.003728
    17  H    0.000014   0.001511   0.023735  -0.004716   0.016990  -0.000514
    18  H   -0.000363   0.001656  -0.000887   0.001631  -0.000053  -0.000001
    19  H   -0.000362   0.001807  -0.001025   0.001623  -0.000052  -0.000001
    20  H    0.000009   0.001897   0.005582  -0.000138  -0.000001  -0.000000
    21  H    0.021377  -0.017444   0.006259  -0.001267  -0.000023  -0.000000
    22  H    0.000503   0.001313   0.000613  -0.000018   0.000000  -0.000000
    23  H   -0.000039  -0.001535  -0.000732   0.000004   0.000000   0.000000
    24  H    0.000008   0.001828   0.005610  -0.000139  -0.000001  -0.000000
    25  H    0.021429  -0.017336   0.006238  -0.001270  -0.000023  -0.000000
               7          8          9         10         11         12
     1  O    0.000021   0.000971   0.003908   0.013130  -0.175778   0.011247
     2  C    0.002926   0.017481  -0.031927  -0.049596   0.227233  -0.036528
     3  C   -0.122549   0.005482   0.405136  -0.099010  -0.148737   0.026990
     4  C    0.053378  -0.102736  -0.121216  -0.021261   0.100600  -0.003326
     5  C    0.254126   0.132997  -0.121785   0.000268  -0.005421   0.000289
     6  Br  -0.077078   0.021513  -0.003981   0.000038   0.000003  -0.000001
     7  C    5.428129   0.191938   0.059171   0.015668   0.002780  -0.000196
     8  C    0.191938   5.403736   0.340919  -0.128855  -0.002850   0.001086
     9  C    0.059171   0.340919   5.337502   0.370753  -0.143161  -0.006089
    10  C    0.015668  -0.128855   0.370753   5.272174   0.171992   0.016362
    11  C    0.002780  -0.002850  -0.143161   0.171992   5.512607   0.186899
    12  C   -0.000196   0.001086  -0.006089   0.016362   0.186899   5.234564
    13  C    0.000022  -0.000351  -0.000686   0.004531  -0.087604   0.304379
    14  C   -0.000201   0.001129  -0.006022   0.016772   0.185627  -0.226140
    15  H    0.017368  -0.003489   0.008612  -0.002308   0.005158  -0.000236
    16  H    0.491757  -0.098485   0.023059  -0.000264   0.000057  -0.000002
    17  H   -0.095479   0.500008  -0.110038  -0.020620   0.001198  -0.000167
    18  H   -0.000697   0.003489  -0.008857   0.312026   0.005442  -0.018300
    19  H   -0.000692   0.003499  -0.008876   0.312271   0.005246   0.002447
    20  H    0.000028  -0.000379  -0.004171  -0.007646  -0.036885   0.377514
    21  H    0.000008   0.000032   0.000733   0.008507  -0.037807   0.390537
    22  H    0.000000  -0.000003  -0.000170  -0.000416   0.001587  -0.014773
    23  H   -0.000003   0.000060   0.002074  -0.003959   0.014033  -0.024385
    24  H    0.000028  -0.000382  -0.004173  -0.007662  -0.036783   0.031336
    25  H    0.000008   0.000033   0.000739   0.008522  -0.037971   0.005966
              13         14         15         16         17         18
     1  O   -0.006702   0.011231   0.014033  -0.000002   0.000014  -0.000363
     2  C    0.009281  -0.035391   0.007783   0.000185   0.001511   0.001656
     3  C   -0.008386   0.026545  -0.098191  -0.006257   0.023735  -0.000887
     4  C    0.000918  -0.003331   0.496035   0.020980  -0.004716   0.001631
     5  C   -0.000042   0.000294  -0.100364  -0.102087   0.016990  -0.000053
     6  Br   0.000000  -0.000001  -0.003570  -0.003728  -0.000514  -0.000001
     7  C    0.000022  -0.000201   0.017368   0.491757  -0.095479  -0.000697
     8  C   -0.000351   0.001129  -0.003489  -0.098485   0.500008   0.003489
     9  C   -0.000686  -0.006022   0.008612   0.023059  -0.110038  -0.008857
    10  C    0.004531   0.016772  -0.002308  -0.000264  -0.020620   0.312026
    11  C   -0.087604   0.185627   0.005158   0.000057   0.001198   0.005442
    12  C    0.304379  -0.226140  -0.000236  -0.000002  -0.000167  -0.018300
    13  C    4.987275   0.304509   0.000033   0.000000   0.000010   0.000603
    14  C    0.304509   5.234552  -0.000236  -0.000002  -0.000167   0.002436
    15  H    0.000033  -0.000236   0.561926   0.000039   0.000126   0.000078
    16  H    0.000000  -0.000002   0.000039   0.614937  -0.012130  -0.000015
    17  H    0.000010  -0.000167   0.000126  -0.012130   0.648516   0.003294
    18  H    0.000603   0.002436   0.000078  -0.000015   0.003294   0.670230
    19  H    0.000586  -0.018279   0.000078  -0.000015   0.003287  -0.041687
    20  H   -0.038982   0.031317  -0.000001  -0.000000  -0.000003   0.004427
    21  H   -0.031765   0.005973  -0.000078   0.000000  -0.000006   0.000356
    22  H    0.370065  -0.014808  -0.000001  -0.000000  -0.000000  -0.000112
    23  H    0.378862  -0.024379   0.000000  -0.000000   0.000006   0.000002
    24  H   -0.039015   0.377469  -0.000001  -0.000000  -0.000003  -0.000058
    25  H   -0.031776   0.390599  -0.000078   0.000000  -0.000006  -0.000837
              19         20         21         22         23         24
     1  O   -0.000362   0.000009   0.021377   0.000503  -0.000039   0.000008
     2  C    0.001807   0.001897  -0.017444   0.001313  -0.001535   0.001828
     3  C   -0.001025   0.005582   0.006259   0.000613  -0.000732   0.005610
     4  C    0.001623  -0.000138  -0.001267  -0.000018   0.000004  -0.000139
     5  C   -0.000052  -0.000001  -0.000023   0.000000   0.000000  -0.000001
     6  Br  -0.000001  -0.000000  -0.000000  -0.000000   0.000000  -0.000000
     7  C   -0.000692   0.000028   0.000008   0.000000  -0.000003   0.000028
     8  C    0.003499  -0.000379   0.000032  -0.000003   0.000060  -0.000382
     9  C   -0.008876  -0.004171   0.000733  -0.000170   0.002074  -0.004173
    10  C    0.312271  -0.007646   0.008507  -0.000416  -0.003959  -0.007662
    11  C    0.005246  -0.036885  -0.037807   0.001587   0.014033  -0.036783
    12  C    0.002447   0.377514   0.390537  -0.014773  -0.024385   0.031336
    13  C    0.000586  -0.038982  -0.031765   0.370065   0.378862  -0.039015
    14  C   -0.018279   0.031317   0.005973  -0.014808  -0.024379   0.377469
    15  H    0.000078  -0.000001  -0.000078  -0.000001   0.000000  -0.000001
    16  H   -0.000015  -0.000000   0.000000  -0.000000  -0.000000  -0.000000
    17  H    0.003287  -0.000003  -0.000006  -0.000000   0.000006  -0.000003
    18  H   -0.041687   0.004427   0.000356  -0.000112   0.000002  -0.000058
    19  H    0.670139  -0.000058  -0.000837  -0.000112   0.000002   0.004422
    20  H   -0.000058   0.644126  -0.025716   0.003824  -0.010088  -0.001310
    21  H   -0.000837  -0.025716   0.585955  -0.009034   0.005177  -0.000814
    22  H   -0.000112   0.003824  -0.009034   0.656541  -0.038372   0.003827
    23  H    0.000002  -0.010088   0.005177  -0.038372   0.650300  -0.010088
    24  H    0.004422  -0.001310  -0.000814   0.003827  -0.010088   0.644120
    25  H    0.000354  -0.000814   0.004698  -0.009032   0.005176  -0.025706
              25
     1  O    0.021429
     2  C   -0.017336
     3  C    0.006238
     4  C   -0.001270
     5  C   -0.000023
     6  Br  -0.000000
     7  C    0.000008
     8  C    0.000033
     9  C    0.000739
    10  C    0.008522
    11  C   -0.037971
    12  C    0.005966
    13  C   -0.031776
    14  C    0.390599
    15  H   -0.000078
    16  H    0.000000
    17  H   -0.000006
    18  H   -0.000837
    19  H    0.000354
    20  H   -0.000814
    21  H    0.004698
    22  H   -0.009032
    23  H    0.005176
    24  H   -0.025706
    25  H    0.585862
          Atomic-Atomic Spin Densities.
               1          2          3          4          5          6
     1  O    0.303699  -0.094896  -0.020344   0.007007  -0.000044  -0.000002
     2  C   -0.094896   0.158641   0.112043  -0.022002  -0.000701   0.000016
     3  C   -0.020344   0.112043   0.158910  -0.106868  -0.004605   0.000145
     4  C    0.007007  -0.022002  -0.106868   0.382132   0.020290  -0.001038
     5  C   -0.000044  -0.000701  -0.004605   0.020290  -0.133075   0.008818
     6  Br  -0.000002   0.000016   0.000145  -0.001038   0.008818  -0.007834
     7  C   -0.000142   0.001862   0.034432  -0.055950   0.008088   0.000488
     8  C    0.000207  -0.004723  -0.026772   0.023850   0.000142  -0.000272
     9  C    0.002204  -0.014077  -0.073104   0.015058   0.007935   0.000031
    10  C   -0.000168   0.003246  -0.002390   0.001007  -0.000324  -0.000003
    11  C   -0.013949   0.072393   0.026786  -0.007875   0.000261  -0.000000
    12  C    0.005896  -0.021210  -0.006741   0.001206  -0.000003  -0.000000
    13  C   -0.000323   0.002677   0.000030  -0.000069   0.000002  -0.000000
    14  C    0.005922  -0.019755  -0.007350   0.001192   0.000001  -0.000000
    15  H   -0.000514   0.000294   0.003068  -0.002150   0.003112   0.000257
    16  H    0.000000  -0.000008   0.000338  -0.001054   0.003597   0.000493
    17  H   -0.000001   0.000050  -0.000506  -0.000075  -0.000109  -0.000000
    18  H   -0.000014  -0.000143   0.000981  -0.000103  -0.000009   0.000000
    19  H   -0.000014  -0.000189   0.001012  -0.000101  -0.000010   0.000000
    20  H   -0.000578   0.002023   0.001250  -0.000141  -0.000001   0.000000
    21  H    0.000636  -0.002187  -0.000652   0.000140  -0.000001   0.000000
    22  H   -0.000011  -0.000008   0.000002   0.000001  -0.000000   0.000000
    23  H    0.000002  -0.000044   0.000011  -0.000000  -0.000000  -0.000000
    24  H   -0.000581   0.001924   0.001294  -0.000141  -0.000001   0.000000
    25  H    0.000648  -0.002138  -0.000677   0.000141  -0.000001   0.000000
               7          8          9         10         11         12
     1  O   -0.000142   0.000207   0.002204  -0.000168  -0.013949   0.005896
     2  C    0.001862  -0.004723  -0.014077   0.003246   0.072393  -0.021210
     3  C    0.034432  -0.026772  -0.073104  -0.002390   0.026786  -0.006741
     4  C   -0.055950   0.023850   0.015058   0.001007  -0.007875   0.001206
     5  C    0.008088   0.000142   0.007935  -0.000324   0.000261  -0.000003
     6  Br   0.000488  -0.000272   0.000031  -0.000003  -0.000000  -0.000000
     7  C    0.416132  -0.101950  -0.031360   0.000691   0.000781  -0.000178
     8  C   -0.101950   0.074286   0.070521  -0.000294  -0.002593   0.000940
     9  C   -0.031360   0.070521   0.071312  -0.001040  -0.011270   0.003483
    10  C    0.000691  -0.000294  -0.001040   0.004556  -0.001348   0.000921
    11  C    0.000781  -0.002593  -0.011270  -0.001348  -0.008380  -0.031909
    12  C   -0.000178   0.000940   0.003483   0.000921  -0.031909   0.197718
    13  C    0.000002  -0.000014   0.000051  -0.000554   0.004914  -0.005603
    14  C   -0.000183   0.000980   0.003613   0.001427  -0.033520  -0.117118
    15  H   -0.000944   0.000371  -0.000555   0.000028  -0.000283   0.000011
    16  H   -0.002193   0.002558  -0.001004   0.000017  -0.000003   0.000000
    17  H   -0.000395   0.001183   0.000811   0.000030  -0.000017   0.000003
    18  H    0.000098  -0.000598  -0.000561   0.000243   0.001898  -0.003822
    19  H    0.000100  -0.000616  -0.000559   0.000190   0.001980   0.002031
    20  H    0.000033  -0.000203  -0.000816  -0.000022   0.008167  -0.019845
    21  H   -0.000003   0.000007   0.000072  -0.000128  -0.000458   0.006525
    22  H    0.000000  -0.000000  -0.000006   0.000006  -0.000050   0.000159
    23  H    0.000000  -0.000001  -0.000010   0.000026  -0.000018  -0.000023
    24  H    0.000034  -0.000207  -0.000828  -0.000068   0.008307   0.006970
    25  H   -0.000003   0.000008   0.000077  -0.000118  -0.000538  -0.003623
              13         14         15         16         17         18
     1  O   -0.000323   0.005922  -0.000514   0.000000  -0.000001  -0.000014
     2  C    0.002677  -0.019755   0.000294  -0.000008   0.000050  -0.000143
     3  C    0.000030  -0.007350   0.003068   0.000338  -0.000506   0.000981
     4  C   -0.000069   0.001192  -0.002150  -0.001054  -0.000075  -0.000103
     5  C    0.000002   0.000001   0.003112   0.003597  -0.000109  -0.000009
     6  Br  -0.000000  -0.000000   0.000257   0.000493  -0.000000   0.000000
     7  C    0.000002  -0.000183  -0.000944  -0.002193  -0.000395   0.000098
     8  C   -0.000014   0.000980   0.000371   0.002558   0.001183  -0.000598
     9  C    0.000051   0.003613  -0.000555  -0.001004   0.000811  -0.000561
    10  C   -0.000554   0.001427   0.000028   0.000017   0.000030   0.000243
    11  C    0.004914  -0.033520  -0.000283  -0.000003  -0.000017   0.001898
    12  C   -0.005603  -0.117118   0.000011   0.000000   0.000003  -0.003822
    13  C    0.004072  -0.005576  -0.000002  -0.000000  -0.000001   0.000090
    14  C   -0.005576   0.197836   0.000010   0.000000   0.000003   0.002020
    15  H   -0.000002   0.000010  -0.013929  -0.000008  -0.000003  -0.000003
    16  H   -0.000000   0.000000  -0.000008  -0.017463   0.000402   0.000001
    17  H   -0.000001   0.000003  -0.000003   0.000402  -0.003707  -0.000024
    18  H    0.000090   0.002020  -0.000003   0.000001  -0.000024  -0.000861
    19  H    0.000092  -0.003846  -0.000003   0.000001  -0.000024   0.000014
    20  H    0.002394   0.006949   0.000000  -0.000000   0.000001   0.000531
    21  H   -0.000424  -0.003583   0.000005  -0.000000   0.000000  -0.000021
    22  H    0.000190   0.000134   0.000000   0.000000   0.000000   0.000003
    23  H   -0.000006  -0.000017   0.000000   0.000000   0.000000  -0.000004
    24  H    0.002399  -0.019912   0.000000  -0.000000   0.000001  -0.000118
    25  H   -0.000427   0.006596   0.000005  -0.000000   0.000000   0.000031
              19         20         21         22         23         24
     1  O   -0.000014  -0.000578   0.000636  -0.000011   0.000002  -0.000581
     2  C   -0.000189   0.002023  -0.002187  -0.000008  -0.000044   0.001924
     3  C    0.001012   0.001250  -0.000652   0.000002   0.000011   0.001294
     4  C   -0.000101  -0.000141   0.000140   0.000001  -0.000000  -0.000141
     5  C   -0.000010  -0.000001  -0.000001  -0.000000  -0.000000  -0.000001
     6  Br   0.000000   0.000000   0.000000   0.000000  -0.000000   0.000000
     7  C    0.000100   0.000033  -0.000003   0.000000   0.000000   0.000034
     8  C   -0.000616  -0.000203   0.000007  -0.000000  -0.000001  -0.000207
     9  C   -0.000559  -0.000816   0.000072  -0.000006  -0.000010  -0.000828
    10  C    0.000190  -0.000022  -0.000128   0.000006   0.000026  -0.000068
    11  C    0.001980   0.008167  -0.000458  -0.000050  -0.000018   0.008307
    12  C    0.002031  -0.019845   0.006525   0.000159  -0.000023   0.006970
    13  C    0.000092   0.002394  -0.000424   0.000190  -0.000006   0.002399
    14  C   -0.003846   0.006949  -0.003583   0.000134  -0.000017  -0.019912
    15  H   -0.000003   0.000000   0.000005   0.000000   0.000000   0.000000
    16  H    0.000001  -0.000000  -0.000000   0.000000   0.000000  -0.000000
    17  H   -0.000024   0.000001   0.000000   0.000000   0.000000   0.000001
    18  H    0.000014   0.000531  -0.000021   0.000003  -0.000004  -0.000118
    19  H   -0.000853  -0.000119   0.000031   0.000003  -0.000004   0.000536
    20  H   -0.000119   0.004581  -0.001140  -0.000020   0.000032  -0.000310
    21  H    0.000031  -0.001140  -0.001024  -0.000080   0.000000   0.000173
    22  H    0.000003  -0.000020  -0.000080  -0.000378   0.000029  -0.000017
    23  H   -0.000004   0.000032   0.000000   0.000029   0.000060   0.000031
    24  H    0.000536  -0.000310   0.000173  -0.000017   0.000031   0.004615
    25  H   -0.000022   0.000174  -0.000404  -0.000082   0.000000  -0.001157
              25
     1  O    0.000648
     2  C   -0.002138
     3  C   -0.000677
     4  C    0.000141
     5  C   -0.000001
     6  Br   0.000000
     7  C   -0.000003
     8  C    0.000008
     9  C    0.000077
    10  C   -0.000118
    11  C   -0.000538
    12  C   -0.003623
    13  C   -0.000427
    14  C    0.006596
    15  H    0.000005
    16  H   -0.000000
    17  H    0.000000
    18  H    0.000031
    19  H   -0.000022
    20  H    0.000174
    21  H   -0.000404
    22  H   -0.000082
    23  H    0.000000
    24  H   -0.001157
    25  H   -0.001011
 Mulliken charges and spin densities:
               1          2
     1  O   -0.461032   0.194642
     2  C    0.072888   0.173089
     3  C    0.052975   0.090293
     4  C   -0.452951   0.254456
     5  C    0.216064  -0.086638
     6  Br  -0.174232   0.001101
     7  C   -0.220462   0.269441
     8  C   -0.286843   0.036810
     9  C    0.018548   0.039975
    10  C   -0.181417   0.005932
    11  C    0.292534   0.013276
    12  C   -0.259475   0.015787
    13  C   -0.115765   0.003913
    14  C   -0.259496   0.015823
    15  H    0.097282  -0.011233
    16  H    0.071971  -0.014328
    17  H    0.045156  -0.002383
    18  H    0.066196  -0.000370
    19  H    0.066234  -0.000370
    20  H    0.057470   0.002938
    21  H    0.095178  -0.002516
    22  H    0.048579  -0.000126
    23  H    0.057884   0.000064
    24  H    0.057488   0.002944
    25  H    0.095224  -0.002521
 Sum of Mulliken charges =  -1.00000   1.00000
 Mulliken charges and spin densities with hydrogens summed into heavy atoms:
               1          2
     1  O   -0.461032   0.194642
     2  C    0.072888   0.173089
     3  C    0.052975   0.090293
     4  C   -0.355669   0.243223
     5  C    0.216064  -0.086638
     6  Br  -0.174232   0.001101
     7  C   -0.148491   0.255114
     8  C   -0.241687   0.034427
     9  C    0.018548   0.039975
    10  C   -0.048988   0.005191
    11  C    0.292534   0.013276
    12  C   -0.106826   0.016209
    13  C   -0.009301   0.003852
    14  C   -0.106784   0.016246
 Electronic spatial extent (au):  <R**2>=           4891.5789
 Charge=             -1.0000 electrons
 Dipole moment (field-independent basis, Debye):
    X=              0.1557    Y=              3.4248    Z=              0.0007  Tot=              3.4284
 Quadrupole moment (field-independent basis, Debye-Ang):
   XX=           -130.8689   YY=           -111.7456   ZZ=           -101.8774
   XY=             -7.9719   XZ=             -0.0006   YZ=              0.0006
 Traceless Quadrupole moment (field-independent basis, Debye-Ang):
   XX=            -16.0382   YY=              3.0850   ZZ=             12.9532
   XY=             -7.9719   XZ=             -0.0006   YZ=              0.0006
 Octapole moment (field-independent basis, Debye-Ang**2):
  XXX=            133.8957  YYY=              5.3161  ZZZ=              0.0089  XYY=             57.1228
  XXY=              4.8070  XXZ=             -0.0008  XZZ=             38.3311  YZZ=             -9.1336
  YYZ=              0.0056  XYZ=              0.0021
 Hexadecapole moment (field-independent basis, Debye-Ang**3):
 XXXX=          -5510.2762 YYYY=           -890.6631 ZZZZ=           -258.4510 XXXY=            -39.1363
 XXXZ=              0.0353 YYYX=            -86.6151 YYYZ=             -0.0014 ZZZX=              0.0191
 ZZZY=             -0.0014 XXYY=           -995.5793 XXZZ=           -906.5291 YYZZ=           -186.1750
 XXYZ=              0.0003 YYXZ=              0.0034 ZZXY=            -17.9984
 N-N= 1.115865050761D+03 E-N=-9.657280680863D+03  KE= 3.107469102142D+03
 There are a total of      575672 grid points.
 ElSum from          density=      127.0000162948
 ElSum from atomic densities=      126.0000565225

 Hirshfeld populations at iteration   1 (CX, CA, CB, DipXYZ):
               1          2          3          4          5          6
     1  O    0.000000   4.282369   4.099060   0.017401   0.207228   0.000011
     2  C    0.000000   3.067366   2.885397  -0.037533   0.013226  -0.000077
     3  C    0.000000   3.079509   2.988274   0.030658  -0.021177   0.000057
     4  C    0.000000   3.129831   2.968827  -0.051516  -0.029039  -0.000006
     5  C    0.000000   3.002527   3.019434   0.063600  -0.015910   0.000013
     6  Br   0.000000  17.567781  17.568942  -0.202197   0.047992  -0.000025
     7  C    0.000000   3.155856   2.971266  -0.022920   0.015343   0.000001
     8  C    0.000000   3.076828   3.022855   0.003597   0.033723   0.000016
     9  C    0.000000   3.041495   2.982912  -0.069283   0.015023   0.000015
    10  C    0.000000   3.035007   3.026849   0.005539  -0.018520   0.000002
    11  C    0.000000   3.009236   2.993138   0.004353   0.017435   0.000051
    12  C    0.000000   3.042044   3.025074   0.001107   0.002755  -0.004770
    13  C    0.000000   3.037154   3.034264   0.003660  -0.012728  -0.000002
    14  C    0.000000   3.042039   3.025060   0.001143   0.002760   0.004784
    15  H    0.000000   0.495990   0.482496   0.012556  -0.137342  -0.000034
    16  H    0.000000   0.506114   0.489544   0.089061   0.106066   0.000029
    17  H    0.000000   0.495988   0.491393  -0.022216   0.136718   0.000019
    18  H    0.000000   0.490579   0.489541  -0.031837   0.065893  -0.106187
    19  H    0.000000   0.490576   0.489540  -0.031821   0.065876   0.106205
    20  H    0.000000   0.494314   0.492532   0.009380   0.075659  -0.100396
    21  H    0.000000   0.487887   0.487343  -0.009777  -0.120047  -0.040715
    22  H    0.000000   0.494926   0.494307  -0.096023  -0.085594   0.000022
    23  H    0.000000   0.492395   0.492093  -0.030437   0.128297   0.000042
    24  H    0.000000   0.494309   0.492527   0.009477   0.075610   0.100433
    25  H    0.000000   0.487884   0.487340  -0.009765  -0.120043   0.040688
       Tot   0.000000  64.000006  63.000010  -0.363791   0.449204   0.000176

 Dip from Atomic Chgs              0.425053   0.898184   0.000094
         Total Dipole              0.061262   1.347388   0.000270

 Hirshfeld charges, spin densities, dipoles, and CM5 charges using IRadAn=      5:
              Q-H        S-H        Dx         Dy         Dz        Q-CM5   
     1  O   -0.381430   0.183309   0.017401   0.207228   0.000011  -0.429769
     2  C    0.047237   0.181969  -0.037533   0.013226  -0.000077   0.080664
     3  C   -0.067783   0.091235   0.030658  -0.021177   0.000057  -0.070380
     4  C   -0.098658   0.161004  -0.051516  -0.029039  -0.000006  -0.148620
     5  C   -0.021962  -0.016907   0.063600  -0.015910   0.000013  -0.043193
     6  Br  -0.136724  -0.001161  -0.202197   0.047992  -0.000025  -0.121688
     7  C   -0.127123   0.184590  -0.022920   0.015343   0.000001  -0.180983
     8  C   -0.099683   0.053973   0.003597   0.033723   0.000016  -0.152861
     9  C   -0.024407   0.058583  -0.069283   0.015023   0.000015  -0.035122
    10  C   -0.061856   0.008158   0.005539  -0.018520   0.000002  -0.159279
    11  C   -0.002374   0.016099   0.004353   0.017435   0.000051  -0.019689
    12  C   -0.067118   0.016971   0.001107   0.002755  -0.004770  -0.170556
    13  C   -0.071418   0.002890   0.003660  -0.012728  -0.000002  -0.178815
    14  C   -0.067099   0.016979   0.001143   0.002760   0.004784  -0.170537
    15  H    0.021514   0.013494   0.012556  -0.137342  -0.000034   0.080435
    16  H    0.004342   0.016569   0.089061   0.106066   0.000029   0.061587
    17  H    0.012619   0.004595  -0.022216   0.136718   0.000019   0.069119
    18  H    0.019880   0.001038  -0.031837   0.065893  -0.106187   0.076433
    19  H    0.019884   0.001037  -0.031821   0.065876   0.106205   0.076438
    20  H    0.013154   0.001782   0.009380   0.075659  -0.100396   0.067641
    21  H    0.024770   0.000545  -0.009777  -0.120047  -0.040715   0.083238
    22  H    0.010767   0.000618  -0.096023  -0.085594   0.000022   0.064377
    23  H    0.015512   0.000301  -0.030437   0.128297   0.000042   0.070643
    24  H    0.013164   0.001782   0.009477   0.075610   0.100433   0.067652
    25  H    0.024776   0.000544  -0.009765  -0.120043   0.040688   0.083249
       Tot  -1.000016   0.999996  -0.363791   0.449204   0.000176  -1.000016
 Hirshfeld charges and spin densities with hydrogens summed into heavy atoms:
              Q-H        S-H       Q-CM5   
     1  O   -0.381430   0.183309  -0.429769
     2  C    0.047237   0.181969   0.080664
     3  C   -0.067783   0.091235  -0.070380
     4  C   -0.077144   0.174498  -0.068184
     5  C   -0.021962  -0.016907  -0.043193
     6  Br  -0.136724  -0.001161  -0.121688
     7  C   -0.122781   0.201159  -0.119396
     8  C   -0.087064   0.058568  -0.083742
     9  C   -0.024407   0.058583  -0.035122
    10  C   -0.022093   0.010232  -0.006409
    11  C   -0.002374   0.016099  -0.019689
    12  C   -0.029194   0.019297  -0.019676
    13  C   -0.045139   0.003810  -0.043795
    14  C   -0.029160   0.019306  -0.019636
 
 EQQ= 0.925517042785E-01 EQD=-0.226061851828E-01 EDD=-0.889299882372E-04
 EQQ+QD+DD= 0.698565891075E-01
 
                          Isotropic Fermi Contact Couplings
        Atom                 a.u.       MegaHertz       Gauss      10(-4) cm-1
     1  O(17)              0.02964     -17.97060      -6.41236      -5.99435
     2  C(13)              0.00032       0.35415       0.12637       0.11813
     3  C(13)             -0.01309     -14.71573      -5.25094      -4.90864
     4  C(13)              0.01154      12.97606       4.63018       4.32835
     5  C(13)             -0.02446     -27.50157      -9.81324      -9.17354
     6  Br(79)            -0.00280      -3.14385      -1.12180      -1.04867
     7  C(13)              0.01489      16.73793       5.97251       5.58317
     8  C(13)             -0.00785      -8.82228      -3.14801      -2.94279
     9  C(13)             -0.00254      -2.85790      -1.01977      -0.95329
    10  C(13)             -0.00181      -2.02964      -0.72423      -0.67702
    11  C(13)             -0.01292     -14.52159      -5.18166      -4.84388
    12  C(13)              0.02710      30.46353      10.87014      10.16154
    13  C(13)             -0.00136      -1.53152      -0.54648      -0.51086
    14  C(13)              0.02708      30.43929      10.86150      10.15345
    15  H(1)              -0.00376     -16.79573      -5.99314      -5.60245
    16  H(1)              -0.00429     -19.18254      -6.84481      -6.39861
    17  H(1)              -0.00070      -3.12215      -1.11406      -1.04144
    18  H(1)              -0.00003      -0.14917      -0.05323      -0.04976
    19  H(1)              -0.00003      -0.14706      -0.05248      -0.04906
    20  H(1)              -0.00033      -1.49300      -0.53274      -0.49801
    21  H(1)              -0.00044      -1.98857      -0.70957      -0.66332
    22  H(1)              -0.00007      -0.32481      -0.11590      -0.10834
    23  H(1)               0.00001       0.02621       0.00935       0.00874
    24  H(1)              -0.00033      -1.49273      -0.53264      -0.49792
    25  H(1)              -0.00045      -1.99094      -0.71042      -0.66411
 --------------------------------------------------------
       Center         ----  Spin Dipole Couplings  ----
                      3XX-RR        3YY-RR        3ZZ-RR
 --------------------------------------------------------
     1   Atom       -0.418025     -0.441237      0.859263
     2   Atom       -0.135612     -0.119659      0.255271
     3   Atom       -0.040547     -0.056936      0.097483
     4   Atom       -0.138261     -0.139346      0.277608
     5   Atom        0.050426      0.060492     -0.110917
     6   Atom        0.062531      0.012439     -0.074970
     7   Atom       -0.160468     -0.163898      0.324366
     8   Atom       -0.022605     -0.028912      0.051516
     9   Atom       -0.036230     -0.028303      0.064533
    10   Atom       -0.001881      0.003104     -0.001223
    11   Atom        0.008973     -0.000530     -0.008443
    12   Atom        0.011884     -0.010563     -0.001321
    13   Atom        0.002655     -0.002534     -0.000121
    14   Atom        0.011855     -0.010560     -0.001295
    15   Atom       -0.014481      0.015572     -0.001092
    16   Atom        0.001511     -0.003537      0.002027
    17   Atom       -0.004596      0.007274     -0.002678
    18   Atom        0.001304      0.001626     -0.002930
    19   Atom        0.001305      0.001622     -0.002928
    20   Atom        0.000599     -0.001868      0.001269
    21   Atom        0.003084     -0.001089     -0.001996
    22   Atom        0.002031     -0.001323     -0.000708
    23   Atom        0.001521     -0.000449     -0.001072
    24   Atom        0.000594     -0.001870      0.001276
    25   Atom        0.003078     -0.001085     -0.001993
 --------------------------------------------------------
                        XY            XZ            YZ
 --------------------------------------------------------
     1   Atom       -0.000948      0.000317      0.000801
     2   Atom        0.006376      0.000025     -0.000018
     3   Atom        0.004332     -0.000245     -0.000211
     4   Atom       -0.000133     -0.000082     -0.000035
     5   Atom        0.005265      0.000026      0.000027
     6   Atom       -0.018478      0.000029      0.000001
     7   Atom        0.005459     -0.000079     -0.000038
     8   Atom        0.000430      0.000024      0.000021
     9   Atom        0.006300      0.000000     -0.000031
    10   Atom       -0.002073     -0.000002      0.000008
    11   Atom       -0.002416      0.000012     -0.000004
    12   Atom        0.007173      0.018888      0.005926
    13   Atom       -0.000782     -0.000002      0.000000
    14   Atom        0.007197     -0.018914     -0.005956
    15   Atom       -0.006234     -0.000003      0.000002
    16   Atom        0.022357      0.000002      0.000002
    17   Atom       -0.000229      0.000001      0.000001
    18   Atom       -0.002232      0.001494     -0.001504
    19   Atom       -0.002231     -0.001495      0.001506
    20   Atom       -0.001171      0.003073     -0.002288
    21   Atom        0.000423      0.003999      0.000999
    22   Atom        0.000076     -0.000001     -0.000000
    23   Atom       -0.001399     -0.000001      0.000000
    24   Atom       -0.001165     -0.003073      0.002288
    25   Atom        0.000419     -0.004004     -0.000998
 --------------------------------------------------------


 ---------------------------------------------------------------------------------
              Anisotropic Spin Dipole Couplings in Principal Axis System
 ---------------------------------------------------------------------------------

       Atom             a.u.   MegaHertz   Gauss  10(-4) cm-1        Axes

              Baa    -0.4413    31.930    11.394    10.651  0.0407  0.9992 -0.0006
     1 O(17)  Bbb    -0.4180    30.245    10.792    10.089  0.9992 -0.0407 -0.0002
              Bcc     0.8593   -62.176   -22.186   -20.740  0.0002  0.0006  1.0000
 
              Baa    -0.1378   -18.498    -6.600    -6.170  0.9437 -0.3308 -0.0001
     2 C(13)  Bbb    -0.1174   -15.757    -5.623    -5.256  0.3308  0.9437  0.0000
              Bcc     0.2553    34.255    12.223    11.426  0.0001 -0.0000  1.0000
 
              Baa    -0.0580    -7.785    -2.778    -2.597 -0.2408  0.9706  0.0009
     3 C(13)  Bbb    -0.0395    -5.297    -1.890    -1.767  0.9706  0.2407  0.0021
              Bcc     0.0975    13.081     4.668     4.363 -0.0018 -0.0014  1.0000
 
              Baa    -0.1394   -18.701    -6.673    -6.238  0.1195  0.9928  0.0001
     4 C(13)  Bbb    -0.1382   -18.551    -6.620    -6.188  0.9928 -0.1195  0.0002
              Bcc     0.2776    37.252    13.293    12.426 -0.0002 -0.0001  1.0000
 
              Baa    -0.1109   -14.884    -5.311    -4.965 -0.0002 -0.0002  1.0000
     5 C(13)  Bbb     0.0482     6.465     2.307     2.156  0.9195 -0.3931  0.0001
              Bcc     0.0627     8.419     3.004     2.808  0.3931  0.9195  0.0002
 
              Baa    -0.0750   -10.056    -3.588    -3.354 -0.0002 -0.0001  1.0000
     6 Br(79) Bbb     0.0064     0.853     0.304     0.285  0.3125  0.9499  0.0001
              Bcc     0.0686     9.203     3.284     3.070  0.9499 -0.3125  0.0002
 
              Baa    -0.1679   -22.531    -8.040    -7.516 -0.5917  0.8062 -0.0000
     7 C(13)  Bbb    -0.1565   -20.996    -7.492    -7.003  0.8062  0.5917  0.0002
              Bcc     0.3244    43.527    15.531    14.519 -0.0002 -0.0001  1.0000
 
              Baa    -0.0289    -3.884    -1.386    -1.295 -0.0678  0.9977 -0.0002
     8 C(13)  Bbb    -0.0226    -3.029    -1.081    -1.011  0.9977  0.0678 -0.0003
              Bcc     0.0515     6.913     2.467     2.306  0.0003  0.0003  1.0000
 
              Baa    -0.0397    -5.329    -1.901    -1.777  0.8754 -0.4835 -0.0001
     9 C(13)  Bbb    -0.0248    -3.331    -1.189    -1.111  0.4835  0.8754  0.0003
              Bcc     0.0645     8.660     3.090     2.889 -0.0000 -0.0003  1.0000
 
              Baa    -0.0026    -0.353    -0.126    -0.118  0.9404  0.3400 -0.0008
    10 C(13)  Bbb    -0.0012    -0.164    -0.059    -0.055  0.0013 -0.0013  1.0000
              Bcc     0.0039     0.517     0.185     0.172 -0.3400  0.9404  0.0017
 
              Baa    -0.0084    -1.133    -0.404    -0.378 -0.0006  0.0004  1.0000
    11 C(13)  Bbb    -0.0011    -0.149    -0.053    -0.050  0.2330  0.9725 -0.0002
              Bcc     0.0096     1.282     0.457     0.428  0.9725 -0.2330  0.0007
 
              Baa    -0.0149    -2.004    -0.715    -0.669 -0.4976 -0.2910  0.8171
    12 C(13)  Bbb    -0.0126    -1.693    -0.604    -0.565 -0.3579  0.9270  0.1122
              Bcc     0.0275     3.697     1.319     1.233  0.7901  0.2366  0.5655
 
              Baa    -0.0026    -0.356    -0.127    -0.119  0.1458  0.9893 -0.0000
    13 C(13)  Bbb    -0.0001    -0.016    -0.006    -0.005  0.0009 -0.0001  1.0000
              Bcc     0.0028     0.372     0.133     0.124  0.9893 -0.1458 -0.0009
 
              Baa    -0.0150    -2.007    -0.716    -0.669  0.4980  0.2914  0.8167
    14 C(13)  Bbb    -0.0126    -1.695    -0.605    -0.565 -0.3588  0.9267 -0.1118
              Bcc     0.0276     3.701     1.321     1.235  0.7895  0.2374 -0.5661
 
              Baa    -0.0157    -8.389    -2.993    -2.798  0.9807  0.1954  0.0002
    15 H(1)   Bbb    -0.0011    -0.582    -0.208    -0.194 -0.0002 -0.0002  1.0000
              Bcc     0.0168     8.971     3.201     2.993 -0.1954  0.9807  0.0002
 
              Baa    -0.0235   -12.545    -4.476    -4.185 -0.6663  0.7457 -0.0000
    16 H(1)   Bbb     0.0020     1.081     0.386     0.361 -0.0001 -0.0001  1.0000
              Bcc     0.0215    11.464     4.091     3.824  0.7457  0.6663  0.0001
 
              Baa    -0.0046    -2.455    -0.876    -0.819  0.9998  0.0193 -0.0007
    17 H(1)   Bbb    -0.0027    -1.429    -0.510    -0.477  0.0007 -0.0001  1.0000
              Bcc     0.0073     3.884     1.386     1.295 -0.0193  0.9998  0.0001
 
              Baa    -0.0036    -1.894    -0.676    -0.632 -0.2084  0.1889  0.9596
    18 H(1)   Bbb    -0.0008    -0.412    -0.147    -0.137  0.7248  0.6886  0.0219
              Bcc     0.0043     2.306     0.823     0.769 -0.6567  0.7001 -0.2804
 
              Baa    -0.0035    -1.894    -0.676    -0.632  0.2083 -0.1896  0.9595
    19 H(1)   Bbb    -0.0008    -0.412    -0.147    -0.137  0.7247  0.6888 -0.0212
              Bcc     0.0043     2.306     0.823     0.769 -0.6569  0.6997  0.2808
 
              Baa    -0.0032    -1.685    -0.601    -0.562 -0.2066  0.8033  0.5586
    20 H(1)   Bbb    -0.0018    -0.951    -0.339    -0.317  0.7709  0.4852 -0.4127
              Bcc     0.0049     2.636     0.941     0.879  0.6025 -0.3454  0.7195
 
              Baa    -0.0043    -2.313    -0.825    -0.772 -0.4550 -0.2073  0.8661
    21 H(1)   Bbb    -0.0011    -0.565    -0.202    -0.188 -0.2142  0.9695  0.1195
              Bcc     0.0054     2.878     1.027     0.960  0.8644  0.1312  0.4855
 
              Baa    -0.0013    -0.707    -0.252    -0.236 -0.0227  0.9997  0.0002
    22 H(1)   Bbb    -0.0007    -0.378    -0.135    -0.126  0.0003 -0.0002  1.0000
              Bcc     0.0020     1.085     0.387     0.362  0.9997  0.0227 -0.0003
 
              Baa    -0.0012    -0.627    -0.224    -0.209  0.4606  0.8876  0.0018
    23 H(1)   Bbb    -0.0011    -0.572    -0.204    -0.191 -0.0005 -0.0017  1.0000
              Bcc     0.0022     1.199     0.428     0.400  0.8876 -0.4606 -0.0004
 
              Baa    -0.0032    -1.686    -0.601    -0.562 -0.2078  0.8032 -0.5583
    24 H(1)   Bbb    -0.0018    -0.950    -0.339    -0.317  0.7711  0.4857  0.4117
              Bcc     0.0049     2.636     0.940     0.879 -0.6018  0.3450  0.7203
 
              Baa    -0.0043    -2.315    -0.826    -0.772  0.4556  0.2069  0.8658
    25 H(1)   Bbb    -0.0011    -0.563    -0.201    -0.188 -0.2137  0.9696 -0.1193
              Bcc     0.0054     2.878     1.027     0.960  0.8641  0.1307 -0.4860
 

 ---------------------------------------------------------------------------------

 Running external command "gaunbo6 R"
         input file       "/home/rpaton/arbr500/tzvp/fukui/Gau-2304303.EIn"
         output file      "/home/rpaton/arbr500/tzvp/fukui/Gau-2304303.EOu"
         message file     "/home/rpaton/arbr500/tzvp/fukui/Gau-2304303.EMs"
         fchk file        "/home/rpaton/arbr500/tzvp/fukui/Gau-2304303.EFC"
         mat. el file     "/home/rpaton/arbr500/tzvp/fukui/Gau-2304303.EUF"

 Writing WrtUnf unformatted file "/home/rpaton/arbr500/tzvp/fukui/Gau-2304303.EUF"
 Gaussian matrix elements                                         Version   2 NLab=11 Len12L=8 Len4L=8
 Write SHELL TO ATOM MAP                   from file      0 offset           0 length                 203 to matrix element file.
 Write SHELL TYPES                         from file      0 offset           0 length                 203 to matrix element file.
 Write NUMBER OF PRIMITIVES PER SHELL      from file      0 offset           0 length                 203 to matrix element file.
 Write PRIMITIVE EXPONENTS                 from file      0 offset           0 length                 365 to matrix element file.
 Write CONTRACTION COEFFICIENTS            from file      0 offset           0 length                 365 to matrix element file.
 Write P(S=P) CONTRACTION COEFFICIENTS     from file      0 offset           0 length                 365 to matrix element file.
 Write COORDINATES OF EACH SHELL           from file      0 offset           0 length                 609 to matrix element file.
 Write BONDS PER ATOM                      from file      0 offset           0 length                  25 to matrix element file.
 Write BONDED ATOMS                        from file      0 offset           0 length                  54 to matrix element file.
 Write BOND TYPES                          from file      0 offset           0 length                  54 to matrix element file.
 Write ONIOM CHARGE/MULT                   from file      0 offset           0 length                  32 to matrix element file.
 Write ONIOM ATOM LAYERS                   from file      0 offset           0 length                  25 to matrix element file.
 Write ONIOM ATOM MODIFIERS                from file      0 offset           0 length                  25 to matrix element file.
[...]
  203. RY ( 5) C  5             0.00030     1.70329
  204. RY ( 6) C  5             0.00025     1.99800
  205. RY ( 7) C  5             0.00017     1.93057
  206. RY ( 8) C  5             0.00014     3.35974
  207. RY ( 9) C  5             0.00011     3.65596
  208. RY (10) C  5             0.00005     2.39417
  209. RY (11) C  5             0.00001     2.99084
  210. RY (12) C  5             0.00001     2.69796
  211. RY (13) C  5             0.00000     4.11597
  212. RY (14) C  5             0.00000     2.83251
  213. RY (15) C  5             0.00000     2.58003
  214. RY (16) C  5             0.00000     2.47653
  215. RY (17) C  5             0.00000    12.49091
  216. RY (18) C  5             0.00000     2.41036
  217. RY (19) C  5             0.00000     3.12077
  218. RY (20) C  5             0.00000     7.50966
  219. RY (21) C  5             0.00000     2.64982
  220. RY (22) C  5             0.00000     3.42518
  221. RY (23) C  5             0.00000     6.23264
  222. RY (24) C  5             0.00000     3.50248
  223. RY (25) C  5             0.00000     3.40324
  224. RY (26) C  5             0.00000     4.08232
  225. RY ( 1)Br  6             0.00240     0.84362
  226. RY ( 2)Br  6             0.00081     1.04570
  227. RY ( 3)Br  6             0.00018     0.90156
  228. RY ( 4)Br  6             0.00011     1.07599
  229. RY ( 5)Br  6             0.00007     0.63209
  230. RY ( 6)Br  6             0.00002     1.20901
  231. RY ( 7)Br  6             0.00001     1.25470
  232. RY ( 8)Br  6             0.00001     1.72750
  233. RY ( 9)Br  6             0.00000     1.24077
  234. RY (10)Br  6             0.00000     1.55083
  235. RY (11)Br  6             0.00000     2.37860
  236. RY (12)Br  6             0.00000     1.99605
  237. RY (13)Br  6             0.00000     2.35972
  238. RY (14)Br  6             0.00000     4.14162
  239. RY (15)Br  6             0.00000     2.65032
  240. RY (16)Br  6             0.00000     3.59579
  241. RY (17)Br  6             0.00000     2.79914
  242. RY (18)Br  6             0.00000     1.84077
  243. RY (19)Br  6             0.00000     1.74894
  244. RY (20)Br  6             0.00000     1.71732
  245. RY (21)Br  6             0.00000     2.46596
  246. RY (22)Br  6             0.00000     3.88093
  247. RY (23)Br  6             0.00000     2.51329
  248. RY (24)Br  6             0.00000     4.24420
  249. RY (25)Br  6             0.00000     4.00860
  250. RY (26)Br  6             0.00000     2.94978
  251. RY (27)Br  6             0.00000     2.49046
  252. RY (28)Br  6             0.00000     2.44201
  253. RY (29)Br  6             0.00000     1.71453
  254. RY (30)Br  6             0.00000     3.29735
  255. RY ( 1) C  7             0.00238     1.60132
  256. RY ( 2) C  7             0.00099     1.43823
  257. RY ( 3) C  7             0.00089     0.82619
  258. RY ( 4) C  7             0.00043     1.66755
  259. RY ( 5) C  7             0.00020     1.96664
  260. RY ( 6) C  7             0.00019     2.78888
  261. RY ( 7) C  7             0.00007     2.54205
  262. RY ( 8) C  7             0.00005     3.26325
  263. RY ( 9) C  7             0.00004     2.06873
  264. RY (10) C  7             0.00002     2.90065
  265. RY (11) C  7             0.00001     3.43711
  266. RY (12) C  7             0.00000     3.22706
  267. RY (13) C  7             0.00000     3.77876
  268. RY (14) C  7             0.00000     1.82667
  269. RY (15) C  7             0.00000     4.10839
  270. RY (16) C  7             0.00000     6.31472
  271. RY (17) C  7             0.00000     3.38597
  272. RY (18) C  7             0.00000     1.69763
  273. RY (19) C  7             0.00000     4.30934
  274. RY (20) C  7             0.00000     2.85915
  275. RY (21) C  7             0.00000     3.38985
  276. RY (22) C  7             0.00000     3.62214
  277. RY (23) C  7             0.00000     4.52949
  278. RY (24) C  7             0.00000     3.39141
  279. RY (25) C  7             0.00000     3.20547
  280. RY (26) C  7             0.00000    14.54247
  281. RY ( 1) C  8             0.00202     1.84019
  282. RY ( 2) C  8             0.00080     1.55106
  283. RY ( 3) C  8             0.00071     0.73696
  284. RY ( 4) C  8             0.00035     1.88009
  285. RY ( 5) C  8             0.00013     3.32435
  286. RY ( 6) C  8             0.00012     3.44158
  287. RY ( 7) C  8             0.00007     2.56641
  288. RY ( 8) C  8             0.00002     2.29978
  289. RY ( 9) C  8             0.00002     1.82667
  290. RY (10) C  8             0.00002     3.28912
  291. RY (11) C  8             0.00001     2.71435
  292. RY (12) C  8             0.00001     2.69924
  293. RY (13) C  8             0.00000     1.48950
  294. RY (14) C  8             0.00000     2.80198
  295. RY (15) C  8             0.00000    12.08616
  296. RY (16) C  8             0.00000     2.45932
  297. RY (17) C  8             0.00000     5.51988
  298. RY (18) C  8             0.00000     3.39231
  299. RY (19) C  8             0.00000     3.79115
  300. RY (20) C  8             0.00000     3.44360
  301. RY (21) C  8             0.00000     4.06415
  302. RY (22) C  8             0.00000     4.91368
  303. RY (23) C  8             0.00000     3.06194
  304. RY (24) C  8             0.00000     3.42889
  305. RY (25) C  8             0.00000     3.25194
  306. RY (26) C  8             0.00000     7.81959
  307. RY ( 1) C  9             0.00245     1.83279
  308. RY ( 2) C  9             0.00102     1.76501
  309. RY ( 3) C  9             0.00092     1.03886
  310. RY ( 4) C  9             0.00025     1.91355
  311. RY ( 5) C  9             0.00023     3.19024
  312. RY ( 6) C  9             0.00021     3.84722
  313. RY ( 7) C  9             0.00011     2.80731
  314. RY ( 8) C  9             0.00010     3.23775
  315. RY ( 9) C  9             0.00006     3.04390
  316. RY (10) C  9             0.00004     3.73001
  317. RY (11) C  9             0.00004     2.11602
  318. RY (12) C  9             0.00003     3.72385
  319. RY (13) C  9             0.00002     2.74815
  320. RY (14) C  9             0.00001     3.24578
  321. RY (15) C  9             0.00001     2.38752
  322. RY (16) C  9             0.00001     3.15967
  323. RY (17) C  9             0.00000     2.59711
  324. RY (18) C  9             0.00000     2.16417
  325. RY (19) C  9             0.00000     3.53091
  326. RY (20) C  9             0.00000     3.87828
  327. RY (21) C  9             0.00000    17.64301
  328. RY (22) C  9             0.00000     3.51097
  329. RY (23) C  9             0.00000     6.04231
  330. RY (24) C  9             0.00000     4.31531
  331. RY (25) C  9             0.00000     3.51981
  332. RY (26) C  9             0.00000     3.42127
  333. RY ( 1) C 10             0.00121     1.37606
  334. RY ( 2) C 10             0.00051     1.35273
  335. RY ( 3) C 10             0.00042     1.45430
  336. RY ( 4) C 10             0.00022     2.08265
  337. RY ( 5) C 10             0.00019     2.47657
  338. RY ( 6) C 10             0.00011     2.18613
  339. RY ( 7) C 10             0.00007     2.52995
  340. RY ( 8) C 10             0.00007     1.83741
  341. RY ( 9) C 10             0.00004     3.31822
  342. RY (10) C 10             0.00003     1.95914
  343. RY (11) C 10             0.00002     3.00928
  344. RY (12) C 10             0.00001     3.00029
  345. RY (13) C 10             0.00001     3.06601
  346. RY (14) C 10             0.00001     4.00562
  347. RY (15) C 10             0.00001     3.62299
  348. RY (16) C 10             0.00001     2.69558
  349. RY (17) C 10             0.00000     3.26772
  350. RY (18) C 10             0.00000     2.89239
  351. RY (19) C 10             0.00000     2.94169
  352. RY (20) C 10             0.00000     3.28631
  353. RY (21) C 10             0.00000    15.87516
  354. RY (22) C 10             0.00000     7.61580
  355. RY (23) C 10             0.00000     3.32377
  356. RY (24) C 10             0.00000     4.61224
  357. RY (25) C 10             0.00000     3.47748
  358. RY (26) C 10             0.00000     3.63722
  359. RY ( 1) C 11             0.00267     1.47877
  360. RY ( 2) C 11             0.00175     1.62304
  361. RY ( 3) C 11             0.00088     1.60043
  362. RY ( 4) C 11             0.00058     2.25402
  363. RY ( 5) C 11             0.00024     3.24881
  364. RY ( 6) C 11             0.00019     3.18830
  365. RY ( 7) C 11             0.00014     2.42053
  366. RY ( 8) C 11             0.00012     1.69645
  367. RY ( 9) C 11             0.00011     4.26642
  368. RY (10) C 11             0.00007     2.18421
  369. RY (11) C 11             0.00003     2.86705
  370. RY (12) C 11             0.00004     4.16830
  371. RY (13) C 11             0.00003     3.82014
  372. RY (14) C 11             0.00003     2.89307
  373. RY (15) C 11             0.00001     3.93302
  374. RY (16) C 11             0.00001     3.86573
  375. RY (17) C 11             0.00001     3.76094
  376. RY (18) C 11             0.00000     3.52905
  377. RY (19) C 11             0.00000     3.03926
  378. RY (20) C 11             0.00000     3.86720
  379. RY (21) C 11             0.00000     4.50380
  380. RY (22) C 11             0.00000    16.84684
  381. RY (23) C 11             0.00000     3.02793
  382. RY (24) C 11             0.00000     3.67079
  383. RY (25) C 11             0.00000     3.61213
  384. RY (26) C 11             0.00000     3.59013
  385. RY ( 1) C 12             0.00107     1.44521
  386. RY ( 2) C 12             0.00058     1.60733
  387. RY ( 3) C 12             0.00020     1.52008
  388. RY ( 4) C 12             0.00015     1.84162
  389. RY ( 5) C 12             0.00010     2.71679
  390. RY ( 6) C 12             0.00008     2.36110
  391. RY ( 7) C 12             0.00007     2.94861
  392. RY ( 8) C 12             0.00005     2.37966
  393. RY ( 9) C 12             0.00003     2.80621
  394. RY (10) C 12             0.00002     1.89982
  395. RY (11) C 12             0.00001     2.56942
  396. RY (12) C 12             0.00001     1.97000
  397. RY (13) C 12             0.00001     2.46002
  398. RY (14) C 12             0.00000     2.80696
  399. RY (15) C 12             0.00000     3.37804
  400. RY (16) C 12             0.00000     3.51778
  401. RY (17) C 12             0.00000     6.66570
  402. RY (18) C 12             0.00000    10.37209
  403. RY (19) C 12             0.00000     4.35908
  404. RY (20) C 12             0.00000     3.29267
  405. RY (21) C 12             0.00000     6.20240
  406. RY (22) C 12             0.00000     3.66870
  407. RY (23) C 12             0.00000     3.40745
  408. RY (24) C 12             0.00000     3.84463
  409. RY (25) C 12             0.00000     3.01747
  410. RY (26) C 12             0.00000     5.69819
  411. RY ( 1) C 13             0.00073     1.60031
  412. RY ( 2) C 13             0.00053     1.71188
  413. RY ( 3) C 13             0.00014     2.79592
  414. RY ( 4) C 13             0.00008     2.74970
  415. RY ( 5) C 13             0.00005     1.98225
  416. RY ( 6) C 13             0.00005     2.23994
  417. RY ( 7) C 13             0.00004     3.01279
  418. RY ( 8) C 13             0.00003     0.86714
  419. RY ( 9) C 13             0.00002     2.34027
  420. RY (10) C 13             0.00001     3.40434
  421. RY (11) C 13             0.00001     1.81664
  422. RY (12) C 13             0.00000     3.52923
  423. RY (13) C 13             0.00000     3.50796
  424. RY (14) C 13             0.00000     5.31858
  425. RY (15) C 13             0.00000     3.40012
  426. RY (16) C 13             0.00000     2.92478
  427. RY (17) C 13             0.00000     8.05469
  428. RY (18) C 13             0.00000     3.43152
  429. RY (19) C 13             0.00000     4.66050
  430. RY (20) C 13             0.00000     3.56683
  431. RY (21) C 13             0.00000     2.73725
  432. RY (22) C 13             0.00000     4.02377
  433. RY (23) C 13             0.00000     3.16977
  434. RY (24) C 13             0.00000     3.75499
  435. RY (25) C 13             0.00000     3.51523
  436. RY (26) C 13             0.00000     7.00043
  437. RY ( 1) C 14             0.00107     1.44521
  438. RY ( 2) C 14             0.00058     1.60727
  439. RY ( 3) C 14             0.00020     1.51919
  440. RY ( 4) C 14             0.00015     1.84060
  441. RY ( 5) C 14             0.00010     2.71726
  442. RY ( 6) C 14             0.00008     2.35734
  443. RY ( 7) C 14             0.00007     2.95292
  444. RY ( 8) C 14             0.00005     2.37943
  445. RY ( 9) C 14             0.00003     2.80551
  446. RY (10) C 14             0.00002     1.89896
  447. RY (11) C 14             0.00001     2.57058
  448. RY (12) C 14             0.00001     1.97047
  449. RY (13) C 14             0.00001     2.46045
  450. RY (14) C 14             0.00000     2.80704
  451. RY (15) C 14             0.00000     3.37654
  452. RY (16) C 14             0.00000     3.51647
  453. RY (17) C 14             0.00000     6.63954
  454. RY (18) C 14             0.00000    10.38842
  455. RY (19) C 14             0.00000     4.37831
  456. RY (20) C 14             0.00000     3.28814
  457. RY (21) C 14             0.00000     6.21565
  458. RY (22) C 14             0.00000     3.66862
  459. RY (23) C 14             0.00000     3.40485
  460. RY (24) C 14             0.00000     3.84297
  461. RY (25) C 14             0.00000     3.02118
  462. RY (26) C 14             0.00000     5.68410
  463. RY ( 1) H 15             0.00069     0.79834
  464. RY ( 2) H 15             0.00006     2.25767
  465. RY ( 3) H 15             0.00005     2.39373
  466. RY ( 4) H 15             0.00004     2.74812
  467. RY ( 5) H 15             0.00001     3.22857
  468. RY ( 1) H 16             0.00044     0.66506
  469. RY ( 2) H 16             0.00006     2.36283
  470. RY ( 3) H 16             0.00005     2.34552
  471. RY ( 4) H 16             0.00004     2.70691
  472. RY ( 5) H 16             0.00000     3.17918
  473. RY ( 1) H 17             0.00037     0.74835
  474. RY ( 2) H 17             0.00008     2.36999
  475. RY ( 3) H 17             0.00005     2.26418
  476. RY ( 4) H 17             0.00003     2.75050
  477. RY ( 5) H 17             0.00000     3.19654
  478. RY ( 1) H 18             0.00050     0.93532
  479. RY ( 2) H 18             0.00007     2.59599
  480. RY ( 3) H 18             0.00003     2.62510
  481. RY ( 4) H 18             0.00001     2.58641
  482. RY ( 5) H 18             0.00000     2.58945
  483. RY ( 1) H 19             0.00050     0.93532
  484. RY ( 2) H 19             0.00007     2.59604
  485. RY ( 3) H 19             0.00003     2.62502
  486. RY ( 4) H 19             0.00001     2.58646
  487. RY ( 5) H 19             0.00000     2.58952
  488. RY ( 1) H 20             0.00034     0.83221
  489. RY ( 2) H 20             0.00006     2.49299
  490. RY ( 3) H 20             0.00003     2.52501
  491. RY ( 4) H 20             0.00002     2.53884
  492. RY ( 5) H 20             0.00000     2.67584
  493. RY ( 1) H 21             0.00074     0.84396
  494. RY ( 2) H 21             0.00006     2.48809
  495. RY ( 3) H 21             0.00003     2.35565
  496. RY ( 4) H 21             0.00001     2.57883
  497. RY ( 5) H 21             0.00000     2.91558
  498. RY ( 1) H 22             0.00042     0.76640
  499. RY ( 2) H 22             0.00006     2.45168
  500. RY ( 3) H 22             0.00003     2.54513
  501. RY ( 4) H 22             0.00001     2.43063
  502. RY ( 5) H 22             0.00000     2.76020
  503. RY ( 1) H 23             0.00034     0.88352
  504. RY ( 2) H 23             0.00007     2.45399
  505. RY ( 3) H 23             0.00002     2.32052
  506. RY ( 4) H 23             0.00001     2.49455
  507. RY ( 5) H 23             0.00000     2.86039
  508. RY ( 1) H 24             0.00034     0.83235
  509. RY ( 2) H 24             0.00006     2.49300
  510. RY ( 3) H 24             0.00003     2.52506
  511. RY ( 4) H 24             0.00002     2.53874
  512. RY ( 5) H 24             0.00000     2.67579
  513. RY ( 1) H 25             0.00074     0.84425
  514. RY ( 2) H 25             0.00006     2.48806
  515. RY ( 3) H 25             0.00003     2.35570
  516. RY ( 4) H 25             0.00001     2.57858
  517. RY ( 5) H 25             0.00000     2.91558
          -------------------------------
                 Total Lewis   62.10214  ( 98.5748%)
           Valence non-Lewis    0.82236  (  1.3053%)
           Rydberg non-Lewis    0.07550  (  0.1198%)
          -------------------------------
               Total unit  1   63.00000  (100.0000%)
              Charge unit  1    0.00000

 $CHOOSE
  ALPHA
   LONE 1 3 6 3 7 1 END
   BOND S 1 2 D 2 3 S 2 11 S 3 4 S 3 9 D 4 5 S 4 15 S 5 6 S 5 7 S 7 8 S 7 16
        D 8 9 S 8 17 S 9 10 S 10 11 S 10 18 S 10 19 S 11 12 S 11 14 S 12 13
        S 12 20 S 12 21 S 13 14 S 13 22 S 13 23 S 14 24 S 14 25 END
  END
  BETA
   LONE 1 2 6 3 END
   BOND D 1 2 S 2 3 S 2 11 S 3 4 D 3 9 D 4 5 S 4 15 S 5 6 S 5 7 D 7 8 S 7 16
        S 8 9 S 8 17 S 9 10 S 10 11 S 10 18 S 10 19 S 11 12 S 11 14 S 12 13
        S 12 20 S 12 21 S 13 14 S 13 22 S 13 23 S 14 24 S 14 25 END
  END
 $END

 NBO analysis completed in 13.85 CPU seconds (14 wall seconds)
 Maximum scratch memory used by NBO was 2924329 words (22.31 MB)
 Maximum scratch memory used by G16NBO was 545907 words (4.16 MB)

 Opening RunExU unformatted file "/home/rpaton/arbr500/tzvp/fukui/Gau-2304303.EUF"
 Read unf file /home/rpaton/arbr500/tzvp/fukui/Gau-2304303.EUF:
 Label Gaussian matrix elements                                         IVers= 2 NLab= 2 Version=ES64L-G16RevC.01
 Title arbr39_wb97xd_redcreated by GaussianPrep                        
 NAtoms=    25 NBasis=   517 NBsUse=   517 ICharg=    -1 Multip=     2 NE=   127 Len12L=8 Len4L=8 IOpCl= 1 ICGU=112
 GAUSSIAN SCALARS                    NI= 1 NR= 1 NTot=       1 LenBuf=    2 NRI=1 N=    1000
 NPA CHARGES                         NI= 0 NR= 1 NTot=      25 LenBuf= 2048 NRI=1 N=      25
 Recovered energy= -3113.35361376     dipole=      0.061251774718      1.347430816362      0.000268948237
 Unable to Open any file for archive entry.
 1\1\GINC-DYNAMO\SP\UwB97XD\def2TZVP\C12H11Br1O1(1-,2)\RPATON\28-Sep-20
 24\0\\# pop=(nbo6,hirshfeld) wb97xd/def2tzvp\\arbr39_wb97xd_redcreated
  by GaussianPrep\\-1,2\O,0,1.720941,-2.192944,0.000132\C,0,1.611331,-0
 .993249,0.001006\C,0,0.351364,-0.218033,0.000468\C,0,-0.948663,-0.7040
 47,0.000275\C,0,-1.971272,0.222022,0.000026\Br,0,-3.772177,-0.366488,-
 0.000154\C,0,-1.707982,1.591534,-0.000054\C,0,-0.402866,2.053964,0.000
 067\C,0,0.638049,1.136408,0.000292\C,0,2.122149,1.39311,0.000193\C,0,2
 .76888,-0.003648,0.00018\C,0,3.867979,-0.2447,1.070207\C,0,4.940841,0.
 028426,-0.000781\C,0,3.867042,-0.24516,-1.070709\H,0,-1.137236,-1.7693
 94,0.000418\H,0,-2.53261,2.291633,-0.000259\H,0,-0.209725,3.119816,-0.
 000093\H,0,2.412607,1.976191,0.877301\H,0,2.412443,1.976061,-0.877057\
 H,0,3.840998,0.396383,1.951219\H,0,3.865614,-1.29024,1.379328\H,0,5.82
 5074,-0.6067,-0.001027\H,0,5.25669,1.072396,-0.001147\H,0,3.8393,0.395
 537,-1.951978\H,0,3.864416,-1.290836,-1.379372\\Version=ES64L-G16RevC.
 01\State=2-A\HF=-3113.3536138\S2=0.769019\S2-1=0.\S2A=0.750218\RMSD=8.
 227e-09\Dipole=-0.0612518,1.3474308,-0.0002689\Quadrupole=-11.9240448,
 2.2936318,9.630413,5.9268789,-0.0004093,-0.0004262\PG=C01 [X(C12H11Br1
 O1)]\\@
 The archive entry for this job was punched.


 I FIND THAT THE THREE TRULY GREAT TIMES FOR THINKING THOUGHTS
 ARE WHEN I AM STANDING IN THE SHOWER, SITTING ON THE JOHN, OR WALKING.

                                    -- COLIN FLETCHER
 Job cpu time:       0 days  2 hours  7 minutes 56.2 seconds.
 Elapsed time:       0 days  0 hours  5 minutes 21.9 seconds.
 File lengths (MBytes):  RWF=    258 Int=      0 D2E=      0 Chk=     20 Scr=      1
 Normal termination of Gaussian 16 at Sat Sep 28 23:45:17 2024.
