 Entering Gaussian System, Link 0=/usr/local/Gaussian/G16C/g16/g16
 Input=arbr43_wb97xd_oxd.com
 Output=arbr43_wb97xd_oxd.log
 Initial command:
 /usr/local/Gaussian/G16C/g16/l1.exe "/home/rpaton/opt/tzvp/fukui/Gau-3363418.inp" -scrdir="/home/rpaton/opt/tzvp/fukui/"
 Entering Link 1 = /usr/local/Gaussian/G16C/g16/l1.exe PID=   3363419.
  
 Copyright (c) 1988-2019, Gaussian, Inc.  All Rights Reserved.
  
 This is part of the Gaussian(R) 16 program.  It is based on
 the Gaussian(R) 09 system (copyright 2009, Gaussian, Inc.),
 the Gaussian(R) 03 system (copyright 2003, Gaussian, Inc.),
 the Gaussian(R) 98 system (copyright 1998, Gaussian, Inc.),
 the Gaussian(R) 94 system (copyright 1995, Gaussian, Inc.),
 the Gaussian 92(TM) system (copyright 1992, Gaussian, Inc.),
 the Gaussian 90(TM) system (copyright 1990, Gaussian, Inc.),
 the Gaussian 88(TM) system (copyright 1988, Gaussian, Inc.),
 the Gaussian 86(TM) system (copyright 1986, Carnegie Mellon
 University), and the Gaussian 82(TM) system (copyright 1983,
 Carnegie Mellon University). Gaussian is a federally registered
 trademark of Gaussian, Inc.
  
 This software contains proprietary and confidential information,
 including trade secrets, belonging to Gaussian, Inc.
  
 This software is provided under written license and may be
 used, copied, transmitted, or stored only in accord with that
 written license.
  
 The following legend is applicable only to US Government
 contracts under FAR:
  
                    RESTRICTED RIGHTS LEGEND
  
 Use, reproduction and disclosure by the US Government is
 subject to restrictions as set forth in subparagraphs (a)
 and (c) of the Commercial Computer Software - Restricted
 Rights clause in FAR 52.227-19.
  
 Gaussian, Inc.
 340 Quinnipiac St., Bldg. 40, Wallingford CT 06492
  
  
 ---------------------------------------------------------------
 Warning -- This program may not be used in any manner that
 competes with the business of Gaussian, Inc. or will provide
 assistance to any competitor of Gaussian, Inc.  The licensee
 of this program is prohibited from giving any competitor of
 Gaussian, Inc. access to this program.  By using this program,
 the user acknowledges that Gaussian, Inc. is engaged in the
 business of creating and licensing software in the field of
 computational chemistry and represents and warrants to the
 licensee that it is not a competitor of Gaussian, Inc. and that
 it will not use this program in any manner prohibited above.
 ---------------------------------------------------------------
  

 Cite this work as:
 Gaussian 16, Revision C.01,
 M. J. Frisch, G. W. Trucks, H. B. Schlegel, G. E. Scuseria, 
 M. A. Robb, J. R. Cheeseman, G. Scalmani, V. Barone, 
 G. A. Petersson, H. Nakatsuji, X. Li, M. Caricato, A. V. Marenich, 
 J. Bloino, B. G. Janesko, R. Gomperts, B. Mennucci, H. P. Hratchian, 
 J. V. Ortiz, A. F. Izmaylov, J. L. Sonnenberg, D. Williams-Young, 
 F. Ding, F. Lipparini, F. Egidi, J. Goings, B. Peng, A. Petrone, 
 T. Henderson, D. Ranasinghe, V. G. Zakrzewski, J. Gao, N. Rega, 
 G. Zheng, W. Liang, M. Hada, M. Ehara, K. Toyota, R. Fukuda, 
 J. Hasegawa, M. Ishida, T. Nakajima, Y. Honda, O. Kitao, H. Nakai, 
 T. Vreven, K. Throssell, J. A. Montgomery, Jr., J. E. Peralta, 
 F. Ogliaro, M. J. Bearpark, J. J. Heyd, E. N. Brothers, K. N. Kudin, 
 V. N. Staroverov, T. A. Keith, R. Kobayashi, J. Normand, 
 K. Raghavachari, A. P. Rendell, J. C. Burant, S. S. Iyengar, 
 J. Tomasi, M. Cossi, J. M. Millam, M. Klene, C. Adamo, R. Cammi, 
 J. W. Ochterski, R. L. Martin, K. Morokuma, O. Farkas, 
 J. B. Foresman, and D. J. Fox, Gaussian, Inc., Wallingford CT, 2019.
 
 ******************************************
 Gaussian 16:  ES64L-G16RevC.01  3-Jul-2019
                25-Sep-2024 
 ******************************************
 %chk=arbr43_wb97xd_oxd.chk
 %mem=48GB
 %nprocshared=24
 Will use up to   24 processors via shared memory.
 --------------------------------------
 # pop=(nbo6,hirshfeld) wb97xd/def2tzvp
 --------------------------------------
 1/38=1,172=1/1;
 2/12=2,17=6,18=5,40=1/2;
 3/5=44,7=101,11=2,25=1,30=1,74=-58/1,2,3;
 4//1;
 5/5=2,38=5/2;
 6/7=2,8=2,9=2,10=2,28=1,40=1,79=1,113=1,114=1,124=3103,126=1/1,12;
 99/5=1,9=1/99;
 ----------------------------------------
 arbr43_wb97xd_oxdcreated by GaussianPrep
 ----------------------------------------
 Symbolic Z-matrix:
 Charge =  1 Multiplicity = 2
 Br                    3.00116  -0.25444  -0.02732 
 C                     1.1586    0.19133   0.01031 
 C                     0.78099   1.52451   0.05866 
 C                    -0.56914   1.82257   0.07863 
 C                    -1.54753   0.83566   0.05894 
 C                    -1.13099  -0.4953    0.02069 
 C                     0.22255  -0.82039  -0.00952 
 O                    -1.99169  -1.54149  -0.01325 
 C                    -3.35283  -1.26464   0.28223 
 C                    -3.83766  -0.01327  -0.42085 
 C                    -3.01579   1.1767    0.05757 
 H                     1.52379   2.30906   0.07343 
 H                    -0.8792    2.86137   0.10231 
 H                     0.51195  -1.86117  -0.04546 
 H                    -3.90261  -2.1491   -0.03532 
 H                    -3.466    -1.15818   1.36812 
 H                    -3.72434  -0.14542  -1.49969 
 H                    -4.89907   0.13368  -0.21546 
 H                    -3.32925   1.4549    1.06881 
 H                    -3.19146   2.04911  -0.57436 
 
                          Input orientation:                          
 ---------------------------------------------------------------------
 Center     Atomic      Atomic             Coordinates (Angstroms)
 Number     Number       Type             X           Y           Z
 ---------------------------------------------------------------------
      1         35           0        3.001159   -0.254439   -0.027323
      2          6           0        1.158595    0.191327    0.010306
      3          6           0        0.780986    1.524508    0.058661
      4          6           0       -0.569136    1.822566    0.078626
      5          6           0       -1.547533    0.835660    0.058941
      6          6           0       -1.130991   -0.495298    0.020687
      7          6           0        0.222553   -0.820393   -0.009521
      8          8           0       -1.991688   -1.541486   -0.013253
      9          6           0       -3.352834   -1.264637    0.282233
     10          6           0       -3.837664   -0.013268   -0.420850
     11          6           0       -3.015786    1.176702    0.057574
     12          1           0        1.523788    2.309056    0.073429
     13          1           0       -0.879203    2.861374    0.102313
     14          1           0        0.511954   -1.861170   -0.045460
     15          1           0       -3.902605   -2.149099   -0.035318
     16          1           0       -3.466004   -1.158178    1.368123
     17          1           0       -3.724340   -0.145424   -1.499687
     18          1           0       -4.899073    0.133675   -0.215463
     19          1           0       -3.329252    1.454899    1.068814
     20          1           0       -3.191457    2.049106   -0.574362
 ---------------------------------------------------------------------
                    Distance matrix (angstroms):
                    1          2          3          4          5
     1  Br   0.000000
     2  C    1.896092   0.000000
     3  C    2.846263   1.386470   0.000000
     4  C    4.131850   2.377112   1.382775   0.000000
     5  C    4.678286   2.782204   2.428274   1.389832   0.000000
     6  C    4.139442   2.390348   2.781495   2.385693   1.395141
     7  C    2.835714   1.378458   2.411443   2.760394   2.424954
     8  O    5.156085   3.595480   4.134394   3.653620   2.419361
     9  C    6.441238   4.748344   4.991771   4.161881   2.778528
    10  C    6.854380   5.019000   4.891484   3.781936   2.489092
    11  C    6.185386   4.289365   3.812669   2.530549   1.507341
    12  H    2.960453   2.149913   1.080504   2.148728   3.406482
    13  H    4.978183   3.360095   2.131981   1.084354   2.133556
    14  H    2.962778   2.152672   3.397946   3.841102   3.394890
    15  H    7.159033   5.576327   5.953171   5.186436   3.803161
    16  H    6.677440   5.005172   5.191187   4.351951   3.061026
    17  H    6.885643   5.122161   5.051246   4.039724   2.851374
    18  H    7.911997   6.062148   5.854283   4.656951   3.435244
    19  H    6.648117   4.780986   4.233121   2.955316   2.139585
    20  H    6.629786   4.766144   4.056627   2.711878   2.139161
                    6          7          8          9         10
     6  C    0.000000
     7  C    1.392365   0.000000
     8  O    1.355161   2.328702   0.000000
     9  C    2.365772   3.614674   1.420097   0.000000
    10  C    2.784490   4.160049   2.430887   1.515028   0.000000
    11  C    2.519801   3.805224   2.905570   2.474714   1.523286
    12  H    3.861999   3.390213   5.214668   6.049489   5.863674
    13  H    3.367092   3.844708   4.542703   4.814062   4.158095
    14  H    2.137580   1.080861   2.524175   3.924261   4.740763
    15  H    3.228008   4.333942   2.005314   1.088742   2.171319
    16  H    2.776199   3.951893   2.056388   1.096949   2.156241
    17  H    3.026451   4.272487   2.675922   2.136795   1.092793
    18  H    3.827508   5.213800   3.361538   2.143323   1.091039
    19  H    3.119966   4.353743   3.455180   2.831103   2.152463
    20  H    3.327701   4.495390   3.827093   3.426469   2.166688
                   11         12         13         14         15
    11  C    0.000000
    12  H    4.678697   0.000000
    13  H    2.721233   2.465817   0.000000
    14  H    4.656633   4.292869   4.925401   0.000000
    15  H    3.443259   7.023725   5.853609   4.423950   0.000000
    16  H    2.715124   6.212565   4.944756   4.279786   1.772623
    17  H    2.162204   6.003500   4.438698   4.796326   2.488146
    18  H    2.170075   6.787406   4.868334   5.769534   2.497290
    19  H    1.094651   5.027163   2.985806   5.195458   3.812695
    20  H    1.091463   4.766628   2.542477   5.411585   4.291995
                   16         17         18         19         20
    16  H    0.000000
    17  H    3.052334   0.000000
    18  H    2.496060   1.762704   0.000000
    19  H    2.633716   3.051938   2.420607   0.000000
    20  H    3.759693   2.440523   2.591069   1.752740   0.000000
 Stoichiometry    C9H9BrO(1+,2)
 Framework group  C1[X(C9H9BrO)]
 Deg. of freedom    54
 Full point group                 C1      NOp   1
 Largest Abelian subgroup         C1      NOp   1
 Largest concise Abelian subgroup C1      NOp   1
                         Standard orientation:                         
 ---------------------------------------------------------------------
 Center     Atomic      Atomic             Coordinates (Angstroms)
 Number     Number       Type             X           Y           Z
 ---------------------------------------------------------------------
      1         35           0       -3.001159   -0.254439    0.027323
      2          6           0       -1.158595    0.191327   -0.010306
      3          6           0       -0.780986    1.524508   -0.058661
      4          6           0        0.569136    1.822566   -0.078626
      5          6           0        1.547533    0.835660   -0.058941
      6          6           0        1.130991   -0.495298   -0.020687
      7          6           0       -0.222553   -0.820393    0.009521
      8          8           0        1.991688   -1.541486    0.013253
      9          6           0        3.352834   -1.264637   -0.282233
     10          6           0        3.837664   -0.013268    0.420850
     11          6           0        3.015786    1.176702   -0.057574
     12          1           0       -1.523788    2.309056   -0.073429
     13          1           0        0.879203    2.861374   -0.102313
     14          1           0       -0.511954   -1.861170    0.045460
     15          1           0        3.902605   -2.149099    0.035318
     16          1           0        3.466004   -1.158178   -1.368123
     17          1           0        3.724340   -0.145424    1.499687
     18          1           0        4.899073    0.133675    0.215463
     19          1           0        3.329252    1.454899   -1.068814
     20          1           0        3.191457    2.049106    0.574362
 ---------------------------------------------------------------------
 Rotational constants (GHZ):           2.4664712           0.3727795           0.3276344
 Standard basis: def2TZVP (5D, 7F)
 There are   469 symmetry adapted cartesian basis functions of A   symmetry.
 There are   412 symmetry adapted basis functions of A   symmetry.
   412 basis functions,   696 primitive gaussians,   469 cartesian basis functions
    53 alpha electrons       52 beta electrons
       nuclear repulsion energy       827.7125251696 Hartrees.
 NAtoms=   20 NActive=   20 NUniq=   20 SFac= 1.00D+00 NAtFMM=   60 NAOKFM=F Big=F
 Integral buffers will be    131072 words long.
 Raffenetti 2 integral format.
 Two-electron integral symmetry is turned on.
 Nuclear repulsion after empirical dispersion term =      827.7003016908 Hartrees.
 One-electron integrals computed using PRISM.
   1 Symmetry operations used in ECPInt.
 ECPInt:  NShTT=   13203 NPrTT=   43384 LenC2=   12549 LenP2D=   31166.
 LDataN:  DoStor=T MaxTD1= 6 Len=  172
 NBasis=   412 RedAO= T EigKep=  6.90D-06  NBF=   412
 NBsUse=   412 1.00D-06 EigRej= -1.00D+00 NBFU=   412
 ExpMin= 9.52D-02 ExpMax= 5.65D+05 ExpMxC= 5.46D+03 IAcc=3 IRadAn=         5 AccDes= 0.00D+00
 Harris functional with IExCor= 4639 and IRadAn=       5 diagonalized for initial guess.
 HarFok:  IExCor= 4639 AccDes= 0.00D+00 IRadAn=         5 IDoV= 1 UseB2=F ITyADJ=14
 ICtDFT=  3500011 ScaDFX=  1.000000  1.000000  1.000000  1.000000
 FoFCou: FMM=F IPFlag=           0 FMFlag=      100000 FMFlg1=           0
         NFxFlg=           0 DoJE=T BraDBF=F KetDBF=T FulRan=T
         wScrn=  0.000000 ICntrl=       500 IOpCl=  0 I1Cent=   200000004 NGrid=           0
         NMat0=    1 NMatS0=      1 NMatT0=    0 NMatD0=    1 NMtDS0=    0 NMtDT0=    0
 Petite list used in FoFCou.
 Initial guess <Sx>= 0.0000 <Sy>= 0.0000 <Sz>= 0.5000 <S**2>= 0.7500 S= 0.5000
 Requested convergence on RMS density matrix=1.00D-08 within 128 cycles.
 Requested convergence on MAX density matrix=1.00D-06.
 Requested convergence on             energy=1.00D-06.
 No special actions if energy rises.
 Integral accuracy reduced to 1.0D-05 until final iterations.
 Problem detected with inexpensive integrals.
 Switching to full accuracy and repeating last cycle.
 SCF Done:  E(UwB97XD) =  -2997.53248055     A.U. after   27 cycles
            NFock= 27  Conv=0.82D-08     -V/T= 2.0019
 <Sx>= 0.0000 <Sy>= 0.0000 <Sz>= 0.5000 <S**2>= 0.7725 S= 0.5112
 <L.S>= 0.000000000000E+00
 Annihilation of the first spin contaminant:
 S**2 before annihilation     0.7725,   after     0.7503

 **********************************************************************

            Population analysis using the SCF Density.

 **********************************************************************

 Orbital symmetries:
 Alpha Orbitals:
       Occupied  (A) (A) (A) (A) (A) (A) (A) (A) (A) (A) (A) (A)
                 (A) (A) (A) (A) (A) (A) (A) (A) (A) (A) (A) (A)
                 (A) (A) (A) (A) (A) (A) (A) (A) (A) (A) (A) (A)
                 (A) (A) (A) (A) (A) (A) (A) (A) (A) (A) (A) (A)
                 (A) (A) (A) (A) (A)
       Virtual   (A) (A) (A) (A) (A) (A) (A) (A) (A) (A) (A) (A)
                 (A) (A) (A) (A) (A) (A) (A) (A) (A) (A) (A) (A)
                 (A) (A) (A) (A) (A) (A) (A) (A) (A) (A) (A) (A)
                 (A) (A) (A) (A) (A) (A) (A) (A) (A) (A) (A) (A)
                 (A) (A) (A) (A) (A) (A) (A) (A) (A) (A) (A) (A)
                 (A) (A) (A) (A) (A) (A) (A) (A) (A) (A) (A) (A)
                 (A) (A) (A) (A) (A) (A) (A) (A) (A) (A) (A) (A)
                 (A) (A) (A) (A) (A) (A) (A) (A) (A) (A) (A) (A)
                 (A) (A) (A) (A) (A) (A) (A) (A) (A) (A) (A) (A)
                 (A) (A) (A) (A) (A) (A) (A) (A) (A) (A) (A) (A)
                 (A) (A) (A) (A) (A) (A) (A) (A) (A) (A) (A) (A)
                 (A) (A) (A) (A) (A) (A) (A) (A) (A) (A) (A) (A)
                 (A) (A) (A) (A) (A) (A) (A) (A) (A) (A) (A) (A)
                 (A) (A) (A) (A) (A) (A) (A) (A) (A) (A) (A) (A)
                 (A) (A) (A) (A) (A) (A) (A) (A) (A) (A) (A) (A)
                 (A) (A) (A) (A) (A) (A) (A) (A) (A) (A) (A) (A)
                 (A) (A) (A) (A) (A) (A) (A) (A) (A) (A) (A) (A)
                 (A) (A) (A) (A) (A) (A) (A) (A) (A) (A) (A) (A)
                 (A) (A) (A) (A) (A) (A) (A) (A) (A) (A) (A) (A)
                 (A) (A) (A) (A) (A) (A) (A) (A) (A) (A) (A) (A)
                 (A) (A) (A) (A) (A) (A) (A) (A) (A) (A) (A) (A)
                 (A) (A) (A) (A) (A) (A) (A) (A) (A) (A) (A) (A)
                 (A) (A) (A) (A) (A) (A) (A) (A) (A) (A) (A) (A)
                 (A) (A) (A) (A) (A) (A) (A) (A) (A) (A) (A) (A)
                 (A) (A) (A) (A) (A) (A) (A) (A) (A) (A) (A) (A)
                 (A) (A) (A) (A) (A) (A) (A) (A) (A) (A) (A) (A)
                 (A) (A) (A) (A) (A) (A) (A) (A) (A) (A) (A) (A)
                 (A) (A) (A) (A) (A) (A) (A) (A) (A) (A) (A) (A)
                 (A) (A) (A) (A) (A) (A) (A) (A) (A) (A) (A) (A)
                 (A) (A) (A) (A) (A) (A) (A) (A) (A) (A) (A)
 Beta  Orbitals:
       Occupied  (A) (A) (A) (A) (A) (A) (A) (A) (A) (A) (A) (A)
                 (A) (A) (A) (A) (A) (A) (A) (A) (A) (A) (A) (A)
                 (A) (A) (A) (A) (A) (A) (A) (A) (A) (A) (A) (A)
                 (A) (A) (A) (A) (A) (A) (A) (A) (A) (A) (A) (A)
                 (A) (A) (A) (A)
       Virtual   (A) (A) (A) (A) (A) (A) (A) (A) (A) (A) (A) (A)
                 (A) (A) (A) (A) (A) (A) (A) (A) (A) (A) (A) (A)
                 (A) (A) (A) (A) (A) (A) (A) (A) (A) (A) (A) (A)
                 (A) (A) (A) (A) (A) (A) (A) (A) (A) (A) (A) (A)
                 (A) (A) (A) (A) (A) (A) (A) (A) (A) (A) (A) (A)
                 (A) (A) (A) (A) (A) (A) (A) (A) (A) (A) (A) (A)
                 (A) (A) (A) (A) (A) (A) (A) (A) (A) (A) (A) (A)
                 (A) (A) (A) (A) (A) (A) (A) (A) (A) (A) (A) (A)
                 (A) (A) (A) (A) (A) (A) (A) (A) (A) (A) (A) (A)
                 (A) (A) (A) (A) (A) (A) (A) (A) (A) (A) (A) (A)
                 (A) (A) (A) (A) (A) (A) (A) (A) (A) (A) (A) (A)
                 (A) (A) (A) (A) (A) (A) (A) (A) (A) (A) (A) (A)
                 (A) (A) (A) (A) (A) (A) (A) (A) (A) (A) (A) (A)
                 (A) (A) (A) (A) (A) (A) (A) (A) (A) (A) (A) (A)
                 (A) (A) (A) (A) (A) (A) (A) (A) (A) (A) (A) (A)
                 (A) (A) (A) (A) (A) (A) (A) (A) (A) (A) (A) (A)
                 (A) (A) (A) (A) (A) (A) (A) (A) (A) (A) (A) (A)
                 (A) (A) (A) (A) (A) (A) (A) (A) (A) (A) (A) (A)
                 (A) (A) (A) (A) (A) (A) (A) (A) (A) (A) (A) (A)
                 (A) (A) (A) (A) (A) (A) (A) (A) (A) (A) (A) (A)
                 (A) (A) (A) (A) (A) (A) (A) (A) (A) (A) (A) (A)
                 (A) (A) (A) (A) (A) (A) (A) (A) (A) (A) (A) (A)
                 (A) (A) (A) (A) (A) (A) (A) (A) (A) (A) (A) (A)
                 (A) (A) (A) (A) (A) (A) (A) (A) (A) (A) (A) (A)
                 (A) (A) (A) (A) (A) (A) (A) (A) (A) (A) (A) (A)
                 (A) (A) (A) (A) (A) (A) (A) (A) (A) (A) (A) (A)
                 (A) (A) (A) (A) (A) (A) (A) (A) (A) (A) (A) (A)
                 (A) (A) (A) (A) (A) (A) (A) (A) (A) (A) (A) (A)
                 (A) (A) (A) (A) (A) (A) (A) (A) (A) (A) (A) (A)
                 (A) (A) (A) (A) (A) (A) (A) (A) (A) (A) (A) (A)
 The electronic state is 2-A.
 Alpha  occ. eigenvalues -- -483.28901 -62.83683 -56.62823 -56.62481 -56.62405
 Alpha  occ. eigenvalues --  -19.50616 -10.57128 -10.53714 -10.51613 -10.50650
 Alpha  occ. eigenvalues --  -10.50407 -10.48046 -10.47830 -10.46284 -10.44721
 Alpha  occ. eigenvalues --   -8.97757  -6.79962  -6.78838  -6.78624  -2.90350
 Alpha  occ. eigenvalues --   -2.90052  -2.89897  -2.88975  -2.88969  -1.38861
 Alpha  occ. eigenvalues --   -1.18053  -1.10654  -1.07801  -1.04962  -1.00842
 Alpha  occ. eigenvalues --   -0.95516  -0.91645  -0.90517  -0.83211  -0.79603
 Alpha  occ. eigenvalues --   -0.78755  -0.77289  -0.73661  -0.71112  -0.70693
 Alpha  occ. eigenvalues --   -0.70145  -0.68620  -0.67357  -0.65459  -0.63994
 Alpha  occ. eigenvalues --   -0.62807  -0.59542  -0.58983  -0.57859  -0.56051
 Alpha  occ. eigenvalues --   -0.52583  -0.51624  -0.49591
 Alpha virt. eigenvalues --   -0.14202  -0.13697  -0.08445  -0.02873   0.00032
 Alpha virt. eigenvalues --    0.00423   0.01150   0.01466   0.02771   0.03343
 Alpha virt. eigenvalues --    0.04006   0.04150   0.05961   0.06654   0.07258
 Alpha virt. eigenvalues --    0.07669   0.09106   0.09992   0.12161   0.12563
 Alpha virt. eigenvalues --    0.13091   0.13436   0.14047   0.14151   0.15871
 Alpha virt. eigenvalues --    0.16149   0.16357   0.16728   0.18004   0.19320
 Alpha virt. eigenvalues --    0.20807   0.21270   0.21697   0.21901   0.23382
 Alpha virt. eigenvalues --    0.24080   0.24580   0.25401   0.26308   0.27050
 Alpha virt. eigenvalues --    0.27706   0.28321   0.30172   0.31187   0.32775
 Alpha virt. eigenvalues --    0.33372   0.33656   0.34699   0.34780   0.35505
 Alpha virt. eigenvalues --    0.36440   0.36573   0.37392   0.37589   0.38020
 Alpha virt. eigenvalues --    0.38760   0.39697   0.40514   0.40926   0.43670
 Alpha virt. eigenvalues --    0.44065   0.45237   0.46243   0.47173   0.48345
 Alpha virt. eigenvalues --    0.49377   0.50169   0.52099   0.54758   0.56368
 Alpha virt. eigenvalues --    0.57015   0.58993   0.59410   0.59718   0.62875
 Alpha virt. eigenvalues --    0.63336   0.64038   0.64874   0.65487   0.67487
 Alpha virt. eigenvalues --    0.69839   0.70230   0.71184   0.73114   0.73539
 Alpha virt. eigenvalues --    0.75263   0.76109   0.78521   0.78887   0.79240
 Alpha virt. eigenvalues --    0.80928   0.81596   0.83957   0.85083   0.86794
 Alpha virt. eigenvalues --    0.87890   0.90375   0.92411   0.94034   0.95235
 Alpha virt. eigenvalues --    0.98141   0.98658   1.00722   1.01775   1.03352
 Alpha virt. eigenvalues --    1.04911   1.06018   1.06518   1.08044   1.10343
 Alpha virt. eigenvalues --    1.10779   1.13253   1.13883   1.14731   1.16257
 Alpha virt. eigenvalues --    1.18471   1.19185   1.21803   1.23837   1.25727
 Alpha virt. eigenvalues --    1.26799   1.27225   1.28285   1.29270   1.31880
 Alpha virt. eigenvalues --    1.33634   1.33984   1.36580   1.37031   1.37778
 Alpha virt. eigenvalues --    1.40655   1.42590   1.43661   1.45603   1.46621
 Alpha virt. eigenvalues --    1.47381   1.47478   1.47940   1.49952   1.50850
 Alpha virt. eigenvalues --    1.51958   1.52667   1.53440   1.55134   1.55458
 Alpha virt. eigenvalues --    1.56248   1.56709   1.57209   1.60920   1.62399
 Alpha virt. eigenvalues --    1.63209   1.63864   1.65837   1.66732   1.67770
 Alpha virt. eigenvalues --    1.70825   1.71033   1.73412   1.74195   1.76569
 Alpha virt. eigenvalues --    1.78088   1.78916   1.81002   1.82081   1.83459
 Alpha virt. eigenvalues --    1.83783   1.86757   1.87091   1.88711   1.92354
 Alpha virt. eigenvalues --    1.93264   1.94800   1.96752   1.98063   2.00768
 Alpha virt. eigenvalues --    2.03061   2.05423   2.07620   2.08092   2.09387
 Alpha virt. eigenvalues --    2.11882   2.13195   2.16464   2.18116   2.21921
 Alpha virt. eigenvalues --    2.22819   2.25339   2.26374   2.28697   2.32542
 Alpha virt. eigenvalues --    2.33645   2.37015   2.38307   2.40727   2.41744
 Alpha virt. eigenvalues --    2.43067   2.44287   2.47064   2.48867   2.50336
 Alpha virt. eigenvalues --    2.51157   2.51482   2.52788   2.54895   2.55356
 Alpha virt. eigenvalues --    2.55885   2.57966   2.60445   2.60980   2.62283
 Alpha virt. eigenvalues --    2.63313   2.64458   2.65309   2.65864   2.68279
 Alpha virt. eigenvalues --    2.68773   2.69390   2.71366   2.74193   2.74934
 Alpha virt. eigenvalues --    2.75840   2.77651   2.79167   2.81131   2.82755
 Alpha virt. eigenvalues --    2.84170   2.86100   2.86515   2.88067   2.90042
 Alpha virt. eigenvalues --    2.92151   2.93025   2.95072   2.96583   2.96963
 Alpha virt. eigenvalues --    2.99787   3.00989   3.03490   3.04978   3.06498
 Alpha virt. eigenvalues --    3.07785   3.09077   3.09797   3.10975   3.12516
 Alpha virt. eigenvalues --    3.13906   3.14128   3.16110   3.17255   3.18364
 Alpha virt. eigenvalues --    3.20327   3.22270   3.23766   3.24426   3.25905
 Alpha virt. eigenvalues --    3.27477   3.27986   3.29126   3.29562   3.31119
 Alpha virt. eigenvalues --    3.32068   3.34344   3.34531   3.36336   3.36517
 Alpha virt. eigenvalues --    3.37545   3.39410   3.40777   3.43343   3.45373
 Alpha virt. eigenvalues --    3.45545   3.48210   3.51091   3.51521   3.53652
 Alpha virt. eigenvalues --    3.55085   3.57078   3.60799   3.65473   3.66381
 Alpha virt. eigenvalues --    3.66843   3.70039   3.72573   3.74046   3.77040
 Alpha virt. eigenvalues --    3.81329   3.84963   3.86895   3.87887   3.92578
 Alpha virt. eigenvalues --    3.94397   3.95463   3.95917   4.01283   4.01969
 Alpha virt. eigenvalues --    4.02385   4.03266   4.05364   4.09038   4.10536
 Alpha virt. eigenvalues --    4.12070   4.12989   4.13941   4.15763   4.16606
 Alpha virt. eigenvalues --    4.21544   4.22987   4.23299   4.26467   4.30080
 Alpha virt. eigenvalues --    4.30819   4.34948   4.37020   4.44671   4.45022
 Alpha virt. eigenvalues --    4.47529   4.50479   4.51240   4.56557   4.58488
 Alpha virt. eigenvalues --    4.61034   4.62708   4.66950   4.71139   4.76702
 Alpha virt. eigenvalues --    4.79580   4.81535   4.82756   4.91941   4.97171
 Alpha virt. eigenvalues --    5.08014   5.11947   5.21362   5.25631   5.32608
 Alpha virt. eigenvalues --    5.34251   5.43429   5.54426   5.69637   5.81638
 Alpha virt. eigenvalues --    5.91747   6.25950   6.42012   6.55190   6.69679
 Alpha virt. eigenvalues --    6.78331   7.09770   7.33344   7.69719  21.98781
 Alpha virt. eigenvalues --   22.41757  22.45978  22.54020  22.61215  22.70571
 Alpha virt. eigenvalues --   22.80276  22.84555  23.34214  44.20083
  Beta  occ. eigenvalues -- -483.28883 -62.83670 -56.62815 -56.62435 -56.62396
  Beta  occ. eigenvalues --  -19.50035 -10.56940 -10.53671 -10.51264 -10.50420
  Beta  occ. eigenvalues --  -10.50245 -10.48216 -10.47841 -10.46295 -10.44704
  Beta  occ. eigenvalues --   -8.97734  -6.79954  -6.78769  -6.78615  -2.90336
  Beta  occ. eigenvalues --   -2.90021  -2.89893  -2.88944  -2.88940  -1.37614
  Beta  occ. eigenvalues --   -1.17193  -1.10059  -1.07269  -1.04385  -1.00532
  Beta  occ. eigenvalues --   -0.94847  -0.91195  -0.90151  -0.82732  -0.79294
  Beta  occ. eigenvalues --   -0.78271  -0.76612  -0.72226  -0.70903  -0.70321
  Beta  occ. eigenvalues --   -0.69194  -0.67455  -0.66782  -0.65242  -0.63208
  Beta  occ. eigenvalues --   -0.61334  -0.59323  -0.58049  -0.57422  -0.54465
  Beta  occ. eigenvalues --   -0.52464  -0.48999
  Beta virt. eigenvalues --   -0.29845  -0.12384  -0.10711  -0.08291  -0.02832
  Beta virt. eigenvalues --    0.00135   0.00816   0.01285   0.01577   0.02844
  Beta virt. eigenvalues --    0.03659   0.04118   0.04748   0.06034   0.06764
  Beta virt. eigenvalues --    0.07365   0.07990   0.09260   0.10102   0.12291
  Beta virt. eigenvalues --    0.12803   0.13342   0.13534   0.14175   0.14267
  Beta virt. eigenvalues --    0.15973   0.16331   0.16608   0.16807   0.18113
  Beta virt. eigenvalues --    0.19429   0.21031   0.21401   0.21889   0.22116
  Beta virt. eigenvalues --    0.23566   0.24226   0.24718   0.25709   0.26486
  Beta virt. eigenvalues --    0.27347   0.27980   0.28613   0.30427   0.31353
  Beta virt. eigenvalues --    0.32930   0.33475   0.33784   0.34768   0.34846
  Beta virt. eigenvalues --    0.35649   0.36542   0.36691   0.37511   0.37763
  Beta virt. eigenvalues --    0.38175   0.38826   0.39861   0.40643   0.41096
  Beta virt. eigenvalues --    0.43786   0.44198   0.45306   0.46389   0.47397
  Beta virt. eigenvalues --    0.48732   0.49545   0.50479   0.52154   0.54852
  Beta virt. eigenvalues --    0.56642   0.57119   0.59283   0.59614   0.59938
  Beta virt. eigenvalues --    0.62972   0.63560   0.64338   0.64988   0.65756
  Beta virt. eigenvalues --    0.67707   0.70063   0.70373   0.71501   0.73190
  Beta virt. eigenvalues --    0.73709   0.75592   0.76333   0.78675   0.79019
  Beta virt. eigenvalues --    0.79566   0.81091   0.81801   0.84330   0.85156
  Beta virt. eigenvalues --    0.87015   0.88130   0.90566   0.92680   0.94150
  Beta virt. eigenvalues --    0.95514   0.98519   0.98949   1.00988   1.01969
  Beta virt. eigenvalues --    1.03494   1.05065   1.06151   1.06687   1.08222
  Beta virt. eigenvalues --    1.10777   1.11113   1.13496   1.14122   1.14922
  Beta virt. eigenvalues --    1.16457   1.18632   1.19379   1.22013   1.24162
  Beta virt. eigenvalues --    1.25905   1.26965   1.27506   1.28812   1.29725
  Beta virt. eigenvalues --    1.32043   1.34182   1.34319   1.36801   1.37387
  Beta virt. eigenvalues --    1.38289   1.40933   1.42715   1.43839   1.45786
  Beta virt. eigenvalues --    1.46972   1.47610   1.47862   1.48057   1.50135
  Beta virt. eigenvalues --    1.51006   1.52128   1.52843   1.53681   1.55728
  Beta virt. eigenvalues --    1.55832   1.56583   1.56824   1.57623   1.61073
  Beta virt. eigenvalues --    1.62638   1.63370   1.64193   1.66139   1.67062
  Beta virt. eigenvalues --    1.67977   1.71025   1.71476   1.73570   1.74587
  Beta virt. eigenvalues --    1.76843   1.78279   1.79373   1.81258   1.82421
  Beta virt. eigenvalues --    1.83807   1.84025   1.87048   1.87462   1.89065
  Beta virt. eigenvalues --    1.92820   1.93699   1.95059   1.97179   1.98319
  Beta virt. eigenvalues --    2.01054   2.03550   2.05876   2.08092   2.08426
  Beta virt. eigenvalues --    2.09930   2.12216   2.13550   2.16934   2.18448
  Beta virt. eigenvalues --    2.22258   2.23228   2.25562   2.26840   2.29017
  Beta virt. eigenvalues --    2.32832   2.33836   2.37247   2.38560   2.41056
  Beta virt. eigenvalues --    2.41958   2.43258   2.44553   2.47386   2.49209
  Beta virt. eigenvalues --    2.50551   2.51516   2.51654   2.53222   2.55089
  Beta virt. eigenvalues --    2.55602   2.56165   2.58310   2.60831   2.61420
  Beta virt. eigenvalues --    2.62444   2.63651   2.64737   2.65640   2.66195
  Beta virt. eigenvalues --    2.68595   2.69173   2.69887   2.71924   2.74623
  Beta virt. eigenvalues --    2.75417   2.76316   2.78115   2.79504   2.81454
  Beta virt. eigenvalues --    2.83321   2.84586   2.86388   2.87018   2.88738
  Beta virt. eigenvalues --    2.90419   2.92644   2.93445   2.95410   2.96932
  Beta virt. eigenvalues --    2.97510   3.00096   3.01495   3.04030   3.05419
  Beta virt. eigenvalues --    3.06971   3.08055   3.09468   3.10344   3.11344
  Beta virt. eigenvalues --    3.12765   3.14230   3.14477   3.16585   3.17497
  Beta virt. eigenvalues --    3.18617   3.20568   3.22627   3.23979   3.24936
  Beta virt. eigenvalues --    3.26252   3.27799   3.28339   3.29497   3.29837
  Beta virt. eigenvalues --    3.31506   3.32564   3.34675   3.34835   3.36537
  Beta virt. eigenvalues --    3.36883   3.37946   3.39862   3.41262   3.43637
  Beta virt. eigenvalues --    3.45703   3.46007   3.48418   3.51439   3.51899
  Beta virt. eigenvalues --    3.53955   3.55438   3.57206   3.61198   3.65660
  Beta virt. eigenvalues --    3.66858   3.67103   3.70502   3.72910   3.74562
  Beta virt. eigenvalues --    3.77400   3.81425   3.85207   3.87141   3.88170
  Beta virt. eigenvalues --    3.92911   3.94455   3.95586   3.96193   4.01595
  Beta virt. eigenvalues --    4.02320   4.02646   4.03493   4.05938   4.09573
  Beta virt. eigenvalues --    4.11020   4.12373   4.13634   4.14414   4.16106
  Beta virt. eigenvalues --    4.17054   4.21877   4.23259   4.23481   4.26700
  Beta virt. eigenvalues --    4.30345   4.31051   4.35150   4.37249   4.44814
  Beta virt. eigenvalues --    4.45403   4.47898   4.50886   4.51653   4.57058
  Beta virt. eigenvalues --    4.58732   4.61502   4.63236   4.67447   4.71425
  Beta virt. eigenvalues --    4.77140   4.79804   4.81763   4.83072   4.92132
  Beta virt. eigenvalues --    4.97684   5.08314   5.12225   5.21954   5.26829
  Beta virt. eigenvalues --    5.33206   5.34857   5.43878   5.54989   5.70743
  Beta virt. eigenvalues --    5.82909   5.92662   6.26638   6.42386   6.57062
  Beta virt. eigenvalues --    6.71435   6.80148   7.10332   7.34023   7.69807
  Beta virt. eigenvalues --   21.99009  22.41762  22.45990  22.54052  22.61671
  Beta virt. eigenvalues --   22.70576  22.80566  22.84663  23.34576  44.20626
          Condensed to atoms (all electrons):
               1          2          3          4          5          6
     1  Br  34.610414   0.446106  -0.087548   0.018369  -0.004212   0.025684
     2  C    0.446106   4.847119   0.309541   0.085386  -0.088392   0.121759
     3  C   -0.087548   0.309541   5.063289   0.347172   0.043549  -0.062408
     4  C    0.018369   0.085386   0.347172   5.131667   0.358418   0.027459
     5  C   -0.004212  -0.088392   0.043549   0.358418   5.214331   0.272004
     6  C    0.025684   0.121759  -0.062408   0.027459   0.272004   4.953721
     7  C   -0.103306   0.293822  -0.003893  -0.104256   0.036541   0.155625
     8  O   -0.000166  -0.000921   0.000168   0.003178  -0.040582   0.345390
     9  C    0.000027  -0.001691   0.001512  -0.004785  -0.023246  -0.031484
    10  C    0.000002   0.000199  -0.000080   0.007971  -0.013960  -0.022779
    11  C   -0.000058  -0.005396   0.004761  -0.049469   0.275063  -0.057949
    12  H   -0.004164  -0.055557   0.438846  -0.048149   0.012389  -0.005379
    13  H   -0.000142   0.005566  -0.033877   0.423775  -0.040257   0.008638
    14  H   -0.009023  -0.048893   0.013456  -0.005606   0.013946  -0.057825
    15  H    0.000000   0.000098  -0.000037   0.000268  -0.000353   0.002609
    16  H   -0.000003  -0.000200   0.000036  -0.000233  -0.008879   0.001447
    17  H    0.000000  -0.000113   0.000017   0.000367  -0.006843   0.001373
    18  H    0.000000   0.000005  -0.000003  -0.000439   0.008186   0.001238
    19  H   -0.000000   0.000198  -0.000432   0.001079  -0.021250  -0.009560
    20  H    0.000000  -0.000287   0.001621  -0.005572  -0.039903   0.003215
               7          8          9         10         11         12
     1  Br  -0.103306  -0.000166   0.000027   0.000002  -0.000058  -0.004164
     2  C    0.293822  -0.000921  -0.001691   0.000199  -0.005396  -0.055557
     3  C   -0.003893   0.000168   0.001512  -0.000080   0.004761   0.438846
     4  C   -0.104256   0.003178  -0.004785   0.007971  -0.049469  -0.048149
     5  C    0.036541  -0.040582  -0.023246  -0.013960   0.275063   0.012389
     6  C    0.155625   0.345390  -0.031484  -0.022779  -0.057949  -0.005379
     7  C    5.535966  -0.029920   0.009076  -0.000202   0.016335   0.015725
     8  O   -0.029920   7.767271   0.205319  -0.023332  -0.007452   0.000014
     9  C    0.009076   0.205319   4.839553   0.301935  -0.002102  -0.000001
    10  C   -0.000202  -0.023332   0.301935   4.981946   0.298724   0.000000
    11  C    0.016335  -0.007452  -0.002102   0.298724   4.969159   0.000208
    12  H    0.015725   0.000014  -0.000001   0.000000   0.000208   0.443363
    13  H   -0.001027  -0.000053  -0.000148   0.000236   0.000657  -0.004246
    14  H    0.443596   0.005925   0.000063   0.000193   0.000166   0.000178
    15  H   -0.001573  -0.025577   0.413364  -0.028167   0.004947  -0.000000
    16  H    0.004070  -0.034620   0.418666  -0.048733   0.007122  -0.000000
    17  H    0.000981  -0.000449  -0.033994   0.414879  -0.028932  -0.000000
    18  H   -0.000076   0.002827  -0.023882   0.417144  -0.036810  -0.000000
    19  H   -0.000730   0.000177  -0.002972  -0.021075   0.400902  -0.000009
    20  H    0.000569  -0.000459   0.006192  -0.030179   0.427723  -0.000005
              13         14         15         16         17         18
     1  Br  -0.000142  -0.009023   0.000000  -0.000003   0.000000   0.000000
     2  C    0.005566  -0.048893   0.000098  -0.000200  -0.000113   0.000005
     3  C   -0.033877   0.013456  -0.000037   0.000036   0.000017  -0.000003
     4  C    0.423775  -0.005606   0.000268  -0.000233   0.000367  -0.000439
     5  C   -0.040257   0.013946  -0.000353  -0.008879  -0.006843   0.008186
     6  C    0.008638  -0.057825   0.002609   0.001447   0.001373   0.001238
     7  C   -0.001027   0.443596  -0.001573   0.004070   0.000981  -0.000076
     8  O   -0.000053   0.005925  -0.025577  -0.034620  -0.000449   0.002827
     9  C   -0.000148   0.000063   0.413364   0.418666  -0.033994  -0.023882
    10  C    0.000236   0.000193  -0.028167  -0.048733   0.414879   0.417144
    11  C    0.000657   0.000166   0.004947   0.007122  -0.028932  -0.036810
    12  H   -0.004246   0.000178  -0.000000  -0.000000  -0.000000  -0.000000
    13  H    0.457520   0.000007   0.000001   0.000003   0.000001  -0.000011
    14  H    0.000007   0.441804  -0.000131   0.000073   0.000021  -0.000004
    15  H    0.000001  -0.000131   0.482115  -0.019364  -0.004737  -0.002449
    16  H    0.000003   0.000073  -0.019364   0.521212   0.005507  -0.000345
    17  H    0.000001   0.000021  -0.004737   0.005507   0.505994  -0.007831
    18  H   -0.000011  -0.000004  -0.002449  -0.000345  -0.007831   0.478518
    19  H   -0.000202   0.000005   0.000049   0.001376   0.003472  -0.003395
    20  H    0.000438   0.000012  -0.000137   0.000069  -0.003151  -0.002743
              19         20
     1  Br  -0.000000   0.000000
     2  C    0.000198  -0.000287
     3  C   -0.000432   0.001621
     4  C    0.001079  -0.005572
     5  C   -0.021250  -0.039903
     6  C   -0.009560   0.003215
     7  C   -0.000730   0.000569
     8  O    0.000177  -0.000459
     9  C   -0.002972   0.006192
    10  C   -0.021075  -0.030179
    11  C    0.400902   0.427723
    12  H   -0.000009  -0.000005
    13  H   -0.000202   0.000438
    14  H    0.000005   0.000012
    15  H    0.000049  -0.000137
    16  H    0.001376   0.000069
    17  H    0.003472  -0.003151
    18  H   -0.003395  -0.002743
    19  H    0.487474  -0.011767
    20  H   -0.011767   0.478616
          Atomic-Atomic Spin Densities.
               1          2          3          4          5          6
     1  Br   0.076154  -0.013214  -0.006700  -0.000020   0.000430  -0.000012
     2  C   -0.013214   0.027962   0.050000   0.004690  -0.002507  -0.005193
     3  C   -0.006700   0.050000   0.298680   0.014977  -0.023493  -0.003187
     4  C   -0.000020   0.004690   0.014977  -0.121220  -0.005978  -0.000495
     5  C    0.000430  -0.002507  -0.023493  -0.005978   0.262010   0.075081
     6  C   -0.000012  -0.005193  -0.003187  -0.000495   0.075081   0.134294
     7  C    0.004270  -0.016411  -0.007513  -0.002352  -0.001890   0.029428
     8  O   -0.000034   0.000601   0.000283   0.000334  -0.010763  -0.053557
     9  C   -0.000000  -0.000088   0.000032   0.000033   0.000109   0.002650
    10  C    0.000001   0.000106  -0.000132  -0.000158   0.003542   0.000845
    11  C   -0.000005  -0.000026   0.000977   0.001546  -0.021414  -0.002429
    12  H    0.000212   0.001538  -0.003500   0.001645  -0.000591   0.000174
    13  H    0.000001  -0.000257   0.000878  -0.001140   0.001310  -0.000187
    14  H   -0.000004   0.000819  -0.000306   0.000096  -0.000280   0.000932
    15  H    0.000000   0.000001  -0.000001  -0.000002   0.000064  -0.000010
    16  H    0.000001  -0.000039  -0.000024  -0.000011   0.000886   0.002710
    17  H   -0.000000   0.000001   0.000025   0.000033  -0.001460  -0.000349
    18  H   -0.000000  -0.000000   0.000000   0.000006   0.000029  -0.000055
    19  H   -0.000001   0.000058   0.000065   0.000515  -0.005413  -0.001202
    20  H   -0.000000  -0.000018   0.000150   0.000069  -0.003546  -0.000062
               7          8          9         10         11         12
     1  Br   0.004270  -0.000034  -0.000000   0.000001  -0.000005   0.000212
     2  C   -0.016411   0.000601  -0.000088   0.000106  -0.000026   0.001538
     3  C   -0.007513   0.000283   0.000032  -0.000132   0.000977  -0.003500
     4  C   -0.002352   0.000334   0.000033  -0.000158   0.001546   0.001645
     5  C   -0.001890  -0.010763   0.000109   0.003542  -0.021414  -0.000591
     6  C    0.029428  -0.053557   0.002650   0.000845  -0.002429   0.000174
     7  C   -0.004940  -0.006390   0.000933  -0.000937   0.000436  -0.000469
     8  O   -0.006390   0.289540  -0.002460  -0.006092   0.002121   0.000000
     9  C    0.000933  -0.002460  -0.014373  -0.001077   0.001015  -0.000000
    10  C   -0.000937  -0.006092  -0.001077   0.021270   0.000398  -0.000000
    11  C    0.000436   0.002121   0.001015   0.000398  -0.008790   0.000001
    12  H   -0.000469   0.000000  -0.000000  -0.000000   0.000001  -0.010044
    13  H    0.000151   0.000002  -0.000000   0.000005   0.000041   0.000152
    14  H   -0.000891  -0.000143   0.000002  -0.000004   0.000006  -0.000003
    15  H    0.000006  -0.000071  -0.000934   0.001815  -0.000172  -0.000000
    16  H    0.000289  -0.004190   0.008103  -0.006243   0.000579  -0.000000
    17  H    0.000072   0.001015   0.000378  -0.001838   0.001427  -0.000000
    18  H    0.000008  -0.000014   0.000935  -0.001338   0.000511  -0.000000
    19  H   -0.000218   0.000219  -0.001714   0.002202   0.006071   0.000000
    20  H    0.000102   0.000053   0.000380  -0.000344   0.004667   0.000000
              13         14         15         16         17         18
     1  Br   0.000001  -0.000004   0.000000   0.000001  -0.000000  -0.000000
     2  C   -0.000257   0.000819   0.000001  -0.000039   0.000001  -0.000000
     3  C    0.000878  -0.000306  -0.000001  -0.000024   0.000025   0.000000
     4  C   -0.001140   0.000096  -0.000002  -0.000011   0.000033   0.000006
     5  C    0.001310  -0.000280   0.000064   0.000886  -0.001460   0.000029
     6  C   -0.000187   0.000932  -0.000010   0.002710  -0.000349  -0.000055
     7  C    0.000151  -0.000891   0.000006   0.000289   0.000072   0.000008
     8  O    0.000002  -0.000143  -0.000071  -0.004190   0.001015  -0.000014
     9  C   -0.000000   0.000002  -0.000934   0.008103   0.000378   0.000935
    10  C    0.000005  -0.000004   0.001815  -0.006243  -0.001838  -0.001338
    11  C    0.000041   0.000006  -0.000172   0.000579   0.001427   0.000511
    12  H    0.000152  -0.000003  -0.000000  -0.000000  -0.000000  -0.000000
    13  H    0.002179  -0.000000   0.000000  -0.000001  -0.000001   0.000000
    14  H   -0.000000  -0.001506   0.000002  -0.000002  -0.000001   0.000000
    15  H    0.000000   0.000002   0.000574  -0.000615  -0.000083  -0.000014
    16  H   -0.000001  -0.000002  -0.000615   0.013282   0.000200   0.000043
    17  H   -0.000001  -0.000001  -0.000083   0.000200  -0.000311   0.000237
    18  H    0.000000   0.000000  -0.000014   0.000043   0.000237  -0.001110
    19  H    0.000012   0.000000   0.000046  -0.001063  -0.000220  -0.000281
    20  H   -0.000080  -0.000000  -0.000008   0.000071   0.000198   0.000116
              19         20
     1  Br  -0.000001  -0.000000
     2  C    0.000058  -0.000018
     3  C    0.000065   0.000150
     4  C    0.000515   0.000069
     5  C   -0.005413  -0.003546
     6  C   -0.001202  -0.000062
     7  C   -0.000218   0.000102
     8  O    0.000219   0.000053
     9  C   -0.001714   0.000380
    10  C    0.002202  -0.000344
    11  C    0.006071   0.004667
    12  H    0.000000   0.000000
    13  H    0.000012  -0.000080
    14  H    0.000000  -0.000000
    15  H    0.000046  -0.000008
    16  H   -0.001063   0.000071
    17  H   -0.000220   0.000198
    18  H   -0.000281   0.000116
    19  H    0.027204  -0.003031
    20  H   -0.003031   0.008733
 Mulliken charges and spin densities:
               1          2
     1  Br   0.108018   0.061078
     2  C    0.091649   0.048023
     3  C   -0.035691   0.321213
     4  C   -0.186599  -0.107433
     5  C    0.053451   0.266127
     6  C    0.327222   0.179377
     7  C   -0.267326  -0.006315
     8  O   -0.166737   0.210455
     9  C   -0.071399  -0.006079
    10  C   -0.234723   0.012022
    11  C   -0.217598  -0.013038
    12  H    0.206787  -0.010884
    13  H    0.183121   0.003066
    14  H    0.202038  -0.001284
    15  H    0.179072   0.000598
    16  H    0.152798   0.013976
    17  H    0.153438  -0.000678
    18  H    0.170071  -0.000926
    19  H    0.176659   0.023252
    20  H    0.175748   0.007450
 Sum of Mulliken charges =   1.00000   1.00000
 Mulliken charges and spin densities with hydrogens summed into heavy atoms:
               1          2
     1  Br   0.108018   0.061078
     2  C    0.091649   0.048023
     3  C    0.171096   0.310329
     4  C   -0.003477  -0.104367
     5  C    0.053451   0.266127
     6  C    0.327222   0.179377
     7  C   -0.065289  -0.007599
     8  O   -0.166737   0.210455
     9  C    0.260471   0.008495
    10  C    0.088786   0.010418
    11  C    0.134809   0.017664
 Electronic spatial extent (au):  <R**2>=           2991.3262
 Charge=              1.0000 electrons
 Dipole moment (field-independent basis, Debye):
    X=              6.0691    Y=              2.0208    Z=             -0.4205  Tot=              6.4105
 Quadrupole moment (field-independent basis, Debye-Ang):
   XX=            -34.3049   YY=            -60.2377   ZZ=            -73.3404
   XY=             -1.1447   XZ=             -1.1687   YZ=              0.1405
 Traceless Quadrupole moment (field-independent basis, Debye-Ang):
   XX=             21.6561   YY=             -4.2767   ZZ=            -17.3794
   XY=             -1.1447   XZ=             -1.1687   YZ=              0.1405
 Octapole moment (field-independent basis, Debye-Ang**2):
  XXX=              8.5175  YYY=              4.8178  ZZZ=              0.2169  XYY=            -15.7378
  XXY=            -13.5879  XXZ=             -2.6165  XZZ=            -19.4156  YZZ=             -5.7550
  YYZ=             -0.3842  XYZ=              1.6055
 Hexadecapole moment (field-independent basis, Debye-Ang**3):
 XXXX=          -2100.4412 YYYY=           -490.6071 ZZZZ=           -104.5011 XXXY=            -13.8279
 XXXZ=            -14.6671 YYYX=              4.0820 YYYZ=             -1.0436 ZZZX=             -5.5559
 ZZZY=              0.4538 XXYY=           -475.8099 XXZZ=           -452.5046 YYZZ=           -115.5922
 XXYZ=              2.8612 YYXZ=             -0.7992 ZZXY=              3.1146
 N-N= 8.277003016908D+02 E-N=-8.774494768115D+03  KE= 2.991938726811D+03
 There are a total of      461210 grid points.
 ElSum from          density=      105.0000393613
 ElSum from atomic densities=      106.0001203532

 Hirshfeld populations at iteration   1 (CX, CA, CB, DipXYZ):
               1          2          3          4          5          6
     1  Br   0.000000  17.475744  17.414329  -0.118974  -0.046195   0.004197
     2  C    0.000000   3.004615   2.945370  -0.050787   0.025526  -0.000126
     3  C    0.000000   3.100092   2.846747  -0.053608   0.067096  -0.001843
     4  C    0.000000   2.980660   3.023363   0.012738   0.073818  -0.003682
     5  C    0.000000   3.076020   2.857247   0.049728  -0.015386   0.000857
     6  C    0.000000   3.003016   2.844404   0.081886  -0.055696  -0.002234
     7  C    0.000000   3.021524   3.004572   0.022288  -0.071216   0.004175
     8  O    0.000000   4.115092   3.918967   0.053855   0.062829  -0.013514
     9  C    0.000000   2.978481   2.970349  -0.038551  -0.039653   0.010669
    10  C    0.000000   3.025151   3.015228   0.038971   0.011276  -0.000837
    11  C    0.000000   3.025209   3.007140   0.015100   0.017203   0.005384
    12  H    0.000000   0.460396   0.448609  -0.104961   0.145549  -0.003310
    13  H    0.000000   0.458613   0.461860   0.042173   0.172909  -0.004471
    14  H    0.000000   0.458851   0.459208  -0.038625  -0.175493   0.006459
    15  H    0.000000   0.462650   0.462107   0.095347  -0.137617   0.046779
    16  H    0.000000   0.473042   0.463079   0.034908   0.005573  -0.159570
    17  H    0.000000   0.473237   0.472707  -0.000574  -0.016678   0.160799
    18  H    0.000000   0.464838   0.464935   0.166405   0.023436  -0.027965
    19  H    0.000000   0.473984   0.456967   0.062082   0.050769  -0.148240
    20  H    0.000000   0.468800   0.462834   0.041529   0.132473   0.096823
       Tot   0.000000  53.000018  52.000022   0.310933   0.230523  -0.029650

 Dip from Atomic Chgs              2.076782   0.564506  -0.135760
         Total Dipole              2.387715   0.795030  -0.165410

 Hirshfeld charges, spin densities, dipoles, and CM5 charges using IRadAn=      5:
              Q-H        S-H        Dx         Dy         Dz        Q-CM5   
     1  Br   0.109927   0.061416  -0.118974  -0.046195   0.004197   0.124958
     2  C    0.050015   0.059246  -0.050787   0.025526  -0.000126   0.028897
     3  C    0.053160   0.253345  -0.053608   0.067096  -0.001843  -0.000913
     4  C   -0.004022  -0.042703   0.012738   0.073818  -0.003682  -0.057368
     5  C    0.066733   0.218774   0.049728  -0.015386   0.000857   0.056321
     6  C    0.152581   0.158612   0.081886  -0.055696  -0.002234   0.172300
     7  C   -0.026096   0.016953   0.022288  -0.071216   0.004175  -0.074366
     8  O   -0.034059   0.196124   0.053855   0.062829  -0.013514  -0.118483
     9  C    0.051170   0.008132  -0.038551  -0.039653   0.010669  -0.029949
    10  C   -0.040379   0.009924   0.038971   0.011276  -0.000837  -0.147215
    11  C   -0.032350   0.018069   0.015100   0.017203   0.005384  -0.135158
    12  H    0.090995   0.011786  -0.104961   0.145549  -0.003310   0.148207
    13  H    0.079526  -0.003247   0.042173   0.172909  -0.004471   0.136517
    14  H    0.081941  -0.000357  -0.038625  -0.175493   0.006459   0.142713
    15  H    0.075242   0.000543   0.095347  -0.137617   0.046779   0.139503
    16  H    0.063878   0.009963   0.034908   0.005573  -0.159570   0.127367
    17  H    0.054056   0.000530  -0.000574  -0.016678   0.160799   0.111915
    18  H    0.070227  -0.000097   0.166405   0.023436  -0.027965   0.125357
    19  H    0.069049   0.017018   0.062082   0.050769  -0.148240   0.125109
    20  H    0.068366   0.005966   0.041529   0.132473   0.096823   0.124249
       Tot   0.999961   0.999996   0.310933   0.230523  -0.029650   0.999961
 Hirshfeld charges and spin densities with hydrogens summed into heavy atoms:
              Q-H        S-H       Q-CM5   
     1  Br   0.109927   0.061416   0.124958
     2  C    0.050015   0.059246   0.028897
     3  C    0.144155   0.265131   0.147295
     4  C    0.075504  -0.045950   0.079150
     5  C    0.066733   0.218774   0.056321
     6  C    0.152581   0.158612   0.172300
     7  C    0.055845   0.016595   0.068347
     8  O   -0.034059   0.196124  -0.118483
     9  C    0.190290   0.018638   0.236921
    10  C    0.083904   0.010357   0.090057
    11  C    0.105065   0.041053   0.114199
 
 EQQ= 0.874018512469E-01 EQD=-0.528218436115E-01 EDD= 0.757744647622E-02
 EQQ+QD+DD= 0.421574541116E-01
 
                          Isotropic Fermi Contact Couplings
        Atom                 a.u.       MegaHertz       Gauss      10(-4) cm-1
     1  Br(79)            -0.01030     -11.57719      -4.13103      -3.86174
     2  C(13)             -0.00928     -10.43406      -3.72313      -3.48043
     3  C(13)              0.01774      19.94015       7.11514       6.65132
     4  C(13)             -0.02221     -24.96691      -8.90881      -8.32807
     5  C(13)              0.01178      13.24220       4.72515       4.41712
     6  C(13)             -0.00913     -10.26144      -3.66154      -3.42285
     7  C(13)             -0.00693      -7.79500      -2.78145      -2.60013
     8  O(17)              0.04286     -25.98404      -9.27175      -8.66734
     9  C(13)             -0.00561      -6.30248      -2.24888      -2.10228
    10  C(13)              0.00058       0.65238       0.23279       0.21761
    11  C(13)             -0.00918     -10.31870      -3.68197      -3.44195
    12  H(1)              -0.00530     -23.70426      -8.45827      -7.90689
    13  H(1)               0.00150       6.68840       2.38659       2.23101
    14  H(1)              -0.00035      -1.57592      -0.56233      -0.52567
    15  H(1)               0.00016       0.71740       0.25598       0.23930
    16  H(1)               0.00666      29.78466      10.62791       9.93509
    17  H(1)              -0.00035      -1.57842      -0.56322      -0.52650
    18  H(1)              -0.00049      -2.18588      -0.77998      -0.72913
    19  H(1)               0.01241      55.46284      19.79052      18.50041
    20  H(1)               0.00391      17.46148       6.23069       5.82452
 --------------------------------------------------------
       Center         ----  Spin Dipole Couplings  ----
                      3XX-RR        3YY-RR        3ZZ-RR
 --------------------------------------------------------
     1   Atom       -0.393001     -0.377974      0.770974
     2   Atom       -0.034297     -0.028514      0.062812
     3   Atom       -0.212252     -0.207524      0.419776
     4   Atom        0.074567      0.064382     -0.138950
     5   Atom       -0.183091     -0.181055      0.364146
     6   Atom       -0.121953     -0.106438      0.228391
     7   Atom        0.004291     -0.001858     -0.002433
     8   Atom       -0.479150     -0.505774      0.984924
     9   Atom        0.007406     -0.007314     -0.000091
    10   Atom       -0.002042      0.014012     -0.011970
    11   Atom       -0.007630     -0.009278      0.016908
    12   Atom       -0.002973      0.006419     -0.003446
    13   Atom        0.007029     -0.001226     -0.005804
    14   Atom        0.003929      0.001349     -0.005278
    15   Atom        0.006497     -0.001885     -0.004613
    16   Atom        0.003088     -0.003360      0.000272
    17   Atom        0.002419     -0.002290     -0.000130
    18   Atom        0.004646     -0.001760     -0.002886
    19   Atom        0.001754     -0.002243      0.000490
    20   Atom        0.000497      0.003613     -0.004111
 --------------------------------------------------------
                        XY            XZ            YZ
 --------------------------------------------------------
     1   Atom       -0.015076     -0.034735      0.044399
     2   Atom        0.005080     -0.002727      0.005269
     3   Atom       -0.004141      0.013698      0.021962
     4   Atom       -0.004132     -0.002125     -0.005228
     5   Atom        0.006178     -0.019124     -0.005632
     6   Atom       -0.001747      0.021140      0.015533
     7   Atom        0.003257     -0.006731     -0.000099
     8   Atom        0.014058      0.180172      0.116881
     9   Atom        0.000049     -0.004833     -0.000999
    10   Atom        0.002175      0.002080      0.005914
    11   Atom        0.005301     -0.002484     -0.002405
    12   Atom       -0.028276      0.000927      0.000178
    13   Atom       -0.001795     -0.000004      0.000013
    14   Atom        0.005076     -0.000441     -0.000372
    15   Atom       -0.004987      0.000042      0.000159
    16   Atom       -0.001775     -0.006081      0.000322
    17   Atom        0.000516      0.004462      0.000206
    18   Atom        0.000439      0.000129      0.000168
    19   Atom        0.004468     -0.004527     -0.003755
    20   Atom        0.004928      0.001835      0.002001
 --------------------------------------------------------


 ---------------------------------------------------------------------------------
              Anisotropic Spin Dipole Couplings in Principal Axis System
 ---------------------------------------------------------------------------------

       Atom             a.u.   MegaHertz   Gauss  10(-4) cm-1        Axes

              Baa    -0.4024   -53.972   -19.259   -18.003  0.8553  0.5182  0.0057
     1 Br(79) Bbb    -0.3714   -49.817   -17.776   -16.617 -0.5173  0.8544 -0.0489
              Bcc     0.7738   103.789    37.035    34.620 -0.0302  0.0389  0.9988
 
              Baa    -0.0375    -5.033    -1.796    -1.679  0.8566 -0.5136  0.0503
     2 C(13)  Bbb    -0.0257    -3.445    -1.229    -1.149  0.5154  0.8562 -0.0351
              Bcc     0.0632     8.478     3.025     2.828 -0.0250  0.0560  0.9981
 
              Baa    -0.2155   -28.918   -10.319    -9.646  0.8419  0.5384 -0.0368
     3 C(13)  Bbb    -0.2053   -27.554    -9.832    -9.191 -0.5392  0.8420 -0.0178
              Bcc     0.4208    56.472    20.151    18.837  0.0214  0.0348  0.9992
 
              Baa    -0.1391   -18.667    -6.661    -6.227  0.0104  0.0259  0.9996
     4 C(13)  Bbb     0.0631     8.464     3.020     2.823  0.3336  0.9423 -0.0279
              Bcc     0.0760    10.203     3.641     3.403  0.9426 -0.3338 -0.0012
 
              Baa    -0.1886   -25.303    -9.029    -8.440  0.7794 -0.6262  0.0206
     5 C(13)  Bbb    -0.1763   -23.660    -8.442    -7.892  0.6255  0.7796  0.0303
              Bcc     0.3649    48.963    17.471    16.332 -0.0350 -0.0107  0.9993
 
              Baa    -0.1237   -16.594    -5.921    -5.535  0.9850  0.1597 -0.0662
     6 C(13)  Bbb    -0.1067   -14.319    -5.109    -4.776 -0.1622  0.9861 -0.0355
              Bcc     0.2304    30.913    11.030    10.311  0.0596  0.0457  0.9972
 
              Baa    -0.0071    -0.959    -0.342    -0.320  0.5465 -0.3219  0.7731
     7 C(13)  Bbb    -0.0020    -0.273    -0.097    -0.091 -0.0374  0.9129  0.4065
              Bcc     0.0092     1.233     0.440     0.411  0.8366  0.2511 -0.4869
 
              Baa    -0.5149    37.257    13.294    12.427 -0.0012  0.9970 -0.0775
     8 O(17)  Bbb    -0.5010    36.252    12.935    12.092  0.9928 -0.0081 -0.1197
              Bcc     1.0159   -73.508   -26.230   -24.520  0.1200  0.0771  0.9898
 
              Baa    -0.0075    -1.004    -0.358    -0.335  0.0508  0.9847  0.1664
     9 C(13)  Bbb    -0.0023    -0.310    -0.110    -0.103  0.4396 -0.1717  0.8816
              Bcc     0.0098     1.313     0.469     0.438  0.8968  0.0284 -0.4416
 
              Baa    -0.0135    -1.808    -0.645    -0.603 -0.1389 -0.1978  0.9703
    10 C(13)  Bbb    -0.0022    -0.295    -0.105    -0.098  0.9798 -0.1700  0.1056
              Bcc     0.0157     2.103     0.750     0.701  0.1441  0.9654  0.2174
 
              Baa    -0.0138    -1.855    -0.662    -0.619 -0.6488  0.7609  0.0071
    11 C(13)  Bbb    -0.0037    -0.492    -0.176    -0.164  0.7512  0.6390  0.1654
              Bcc     0.0175     2.347     0.837     0.783 -0.1213 -0.1127  0.9862
 
              Baa    -0.0270   -14.389    -5.134    -4.800  0.7626  0.6460 -0.0349
    12 H(1)   Bbb    -0.0034    -1.826    -0.652    -0.609  0.0178  0.0330  0.9993
              Bcc     0.0304    16.216     5.786     5.409 -0.6467  0.7626 -0.0137
 
              Baa    -0.0058    -3.097    -1.105    -1.033 -0.0000 -0.0028  1.0000
    13 H(1)   Bbb    -0.0016    -0.853    -0.304    -0.285  0.2036  0.9790  0.0027
              Bcc     0.0074     3.950     1.409     1.317  0.9790 -0.2036 -0.0005
 
              Baa    -0.0053    -2.830    -1.010    -0.944  0.0292  0.0336  0.9990
    14 H(1)   Bbb    -0.0026    -1.386    -0.495    -0.462 -0.6142  0.7891 -0.0086
              Bcc     0.0079     4.216     1.504     1.406  0.7886  0.6134 -0.0437
 
              Baa    -0.0047    -2.492    -0.889    -0.831 -0.1380 -0.3011  0.9435
    15 H(1)   Bbb    -0.0042    -2.215    -0.790    -0.739  0.3991  0.8550  0.3313
              Bcc     0.0088     4.706     1.679     1.570  0.9065 -0.4223 -0.0022
 
              Baa    -0.0050    -2.694    -0.961    -0.899  0.5870  0.4946  0.6409
    16 H(1)   Bbb    -0.0031    -1.651    -0.589    -0.551 -0.2131  0.8581 -0.4671
              Bcc     0.0081     4.345     1.550     1.449  0.7811 -0.1376 -0.6091
 
              Baa    -0.0035    -1.875    -0.669    -0.625 -0.6033  0.1218  0.7881
    17 H(1)   Bbb    -0.0023    -1.231    -0.439    -0.411  0.0211  0.9904 -0.1369
              Bcc     0.0058     3.106     1.108     1.036  0.7972  0.0659  0.6001
 
              Baa    -0.0029    -1.553    -0.554    -0.518 -0.0087 -0.1411  0.9900
    18 H(1)   Bbb    -0.0018    -0.943    -0.336    -0.314 -0.0704  0.9876  0.1401
              Bcc     0.0047     2.496     0.891     0.833  0.9975  0.0685  0.0185
 
              Baa    -0.0053    -2.847    -1.016    -0.950 -0.3831  0.8829  0.2714
    19 H(1)   Bbb    -0.0034    -1.838    -0.656    -0.613  0.6367  0.0395  0.7701
              Bcc     0.0088     4.686     1.672     1.563  0.6693  0.4678 -0.5772
 
              Baa    -0.0048    -2.546    -0.908    -0.849 -0.2667 -0.0726  0.9610
    20 H(1)   Bbb    -0.0031    -1.634    -0.583    -0.545  0.7688 -0.6174  0.1667
              Bcc     0.0078     4.180     1.491     1.394  0.5813  0.7833  0.2205
 

 ---------------------------------------------------------------------------------

 Running external command "gaunbo6 R"
         input file       "/home/rpaton/opt/tzvp/fukui/Gau-3363419.EIn"
         output file      "/home/rpaton/opt/tzvp/fukui/Gau-3363419.EOu"
         message file     "/home/rpaton/opt/tzvp/fukui/Gau-3363419.EMs"
         fchk file        "/home/rpaton/opt/tzvp/fukui/Gau-3363419.EFC"
         mat. el file     "/home/rpaton/opt/tzvp/fukui/Gau-3363419.EUF"

 Writing WrtUnf unformatted file "/home/rpaton/opt/tzvp/fukui/Gau-3363419.EUF"
 Gaussian matrix elements                                         Version   2 NLab=11 Len12L=8 Len4L=8
 Write SHELL TO ATOM MAP                   from file      0 offset           0 length                 162 to matrix element file.
 Write SHELL TYPES                         from file      0 offset           0 length                 162 to matrix element file.
 Write NUMBER OF PRIMITIVES PER SHELL      from file      0 offset           0 length                 162 to matrix element file.
 Write PRIMITIVE EXPONENTS                 from file      0 offset           0 length                 293 to matrix element file.
 Write CONTRACTION COEFFICIENTS            from file      0 offset           0 length                 293 to matrix element file.
 Write P(S=P) CONTRACTION COEFFICIENTS     from file      0 offset           0 length                 293 to matrix element file.
 Write COORDINATES OF EACH SHELL           from file      0 offset           0 length                 486 to matrix element file.
 Write BONDS PER ATOM                      from file      0 offset           0 length                  20 to matrix element file.
 Write BONDED ATOMS                        from file      0 offset           0 length                  42 to matrix element file.
 Write BOND TYPES                          from file      0 offset           0 length                  42 to matrix element file.
 Write ONIOM CHARGE/MULT                   from file      0 offset           0 length                  32 to matrix element file.
 Write ONIOM ATOM LAYERS                   from file      0 offset           0 length                  20 to matrix element file.
 Write ONIOM ATOM MODIFIERS                from file      0 offset           0 length                  20 to matrix element file.
 Write ONIOM ATOM TYPES                    from file      0 offset           0 length                  20 to matrix element file.
 Write ONIOM LINK ATOMS                    from file      0 offset           0 length                  20 to matrix element file.
 Write ONIOM LINK CHARGES                  from file      0 offset           0 length                  20 to matrix element file.
 Write ONIOM LINK DISTANCES                from file      0 offset           0 length                  80 to matrix element file.
 Write SYMINF INTS                         from file      0 offset           0 length                  26 to matrix element file.
 Write ROTTR TO SO                         from file      0 offset           0 length                  12 to matrix element file.
 Write GAUSSIAN SCALARS                    from file    501 offset           0 to matrix element file.
 Write OPTIMIZATION FLAGS                  from file      0 offset           0 length                  20 to matrix element file.
 Write INTEGER ISO                         from file      0 offset           0 length                  20 to matrix element file.
 Write INTEGER SPIN                        from file      0 offset           0 length                  20 to matrix element file.
 Write REAL ZEFFECTIVE                     from file      0 offset           0 length                  20 to matrix element file.
 Write REAL QUADRUPOLEMOMENT               from file      0 offset           0 length                  20 to matrix element file.
 Write REAL GFACTOR                        from file      0 offset           0 length                  20 to matrix element file.
 Write REAL ZNUCLEAR                       from file      0 offset           0 length                  20 to matrix element file.
 Write MULLIKEN CHARGES                    from file      0 offset           0 length                  20 to matrix element file.
 Write TYPE 6 CHARGES                      from file      0 offset           0 length                  20 to matrix element file.
 Write TYPE 7 CHARGES                      from file      0 offset           0 length                  20 to matrix element file.
 Write NUCLEAR GRADIENT                    from file  10584 offset           0 length                  60 to matrix element file.
 Array NUCLEAR FORCE CONSTANTS              on  file  10585 does not exist.
 Write ELECTRIC DIPOLE MOMENT              from file      0 offset           0 length                   3 to matrix element file.
 Write NON-ADIABATIC COUPLING              from file  10810 offset           0 length                  60 to matrix element file.
 Write FINITE EM FIELD                     from file  10521 offset           0 length                  35 to matrix element file.
 Write OVERLAP                             from file  10514 offset           0 length               85078 to matrix element file.
 Write CORE HAMILTONIAN ALPHA              from file  10515 offset           0 length               85078 to matrix element file.
 Write CORE HAMILTONIAN BETA               from file  10515 offset       85078 length               85078 to matrix element file.
 Write KINETIC ENERGY                      from file  10516 offset           0 length               85078 to matrix element file.
 Write ORTHOGONAL BASIS                    from file  10685 offset           0 length              169744 to matrix element file.
 Write DIPOLE INTEGRALS                    from file  10518 offset           0 length              255234 to matrix element file.
 Array DIP VEL INTEGRALS                    on  file  10572 does not exist.
 Array R X DEL INTEGRALS                    on  file  10572 does not exist.
 Write ALPHA ORBITAL ENERGIES              from file      0 offset           0 length                 412 to matrix element file.
 Write BETA ORBITAL ENERGIES               from file      0 offset           0 length                 412 to matrix element file.
 Write ALPHA MO COEFFICIENTS               from file  10524 offset           0 length              169744 to matrix element file.
 Write BETA MO COEFFICIENTS                from file  10526 offset           0 length              169744 to matrix element file.
 Write ALPHA DENSITY MATRIX                from file      0 offset           0 length               85078 to matrix element file.
 Write BETA DENSITY MATRIX                 from file      0 offset           0 length               85078 to matrix element file.
 Write ALPHA FOCK MATRIX                   from file  10536 offset           0 length               85078 to matrix element file.
 Write BETA FOCK MATRIX                    from file  10538 offset           0 length               85078 to matrix element file.
 Write ENERGY-WEIGHTED DENSITY             from file  10571 offset           0 length               85078 to matrix element file.
 Write ALPHA SCF DENSITY MATRIX            from file      0 offset           0 length               85078 to matrix element file.
 Write BETA SCF DENSITY MATRIX             from file      0 offset           0 length               85078 to matrix element file.
 No 2e integrals to process.
 Perform NBO analysis...

 *********************************** NBO 7.0 ***********************************
             N A T U R A L   A T O M I C   O R B I T A L   A N D
          N A T U R A L   B O N D   O R B I T A L   A N A L Y S I S
 **************************** Robert Paton (I101709) ***************************
  (c) Copyright 1996-2019 Board of Regents of the University of Wisconsin System
      on behalf of the Theoretical Chemistry Institute.  All rights reserved.

          Cite this program [NBO 7.0.5 (4-Jun-2019)] as:

          NBO 7.0.  E. D. Glendening, J. K. Badenhoop, A. E. Reed,
          J. E. Carpenter, J. A. Bohmann, C. M. Morales, P. Karafiloglou,
          C. R. Landis, and F. Weinhold, Theoretical Chemistry Institute,
          University of Wisconsin, Madison, WI (2018)

 Filename set to /home/rpaton/opt/tzvp/fukui/Gau-3363419

 Job title:  arbr43_wb97xd_oxdcreated by GaussianPrep


 NATURAL POPULATIONS:  Natural atomic orbital occupancies

  NAO Atom No lang   Type(AO)    Occupancy     Spin
 -----------------------------------------------------
   1   Br  1  s      Cor( 1s)     2.00000     0.00000
   2   Br  1  s      Cor( 2s)     2.00000     0.00000
   3   Br  1  s      Cor( 3s)     1.99999     0.00000
   4   Br  1  s      Val( 4s)     1.86859     0.00048
   5   Br  1  s      Ryd( 5s)     0.00126     0.00000
   6   Br  1  s      Ryd( 6s)     0.00000     0.00000
   7   Br  1  px     Cor( 2p)     2.00000     0.00000
   8   Br  1  px     Cor( 3p)     2.00000     0.00000
   9   Br  1  px     Val( 4p)     1.13675    -0.00108
  10   Br  1  px     Ryd( 5p)     0.00212     0.00002
  11   Br  1  px     Ryd( 6p)     0.00002     0.00000
  12   Br  1  py     Cor( 2p)     2.00000     0.00000
  13   Br  1  py     Cor( 3p)     2.00000     0.00000
  14   Br  1  py     Val( 4p)     1.91859    -0.00036
  15   Br  1  py     Ryd( 5p)     0.00075    -0.00002
  16   Br  1  py     Ryd( 6p)     0.00001     0.00000
  17   Br  1  pz     Cor( 2p)     2.00000     0.00000
  18   Br  1  pz     Cor( 3p)     2.00000     0.00000
  19   Br  1  pz     Val( 4p)     1.85410     0.06439
  20   Br  1  pz     Ryd( 5p)     0.00107    -0.00004
  21   Br  1  pz     Ryd( 6p)     0.00004     0.00000
  22   Br  1  dxy    Cor( 3d)     1.99999     0.00000
  23   Br  1  dxy    Ryd( 4d)     0.00123    -0.00001
  24   Br  1  dxy    Ryd( 5d)     0.00004     0.00000
  25   Br  1  dxy    Ryd( 6d)     0.00000     0.00000
  26   Br  1  dxz    Cor( 3d)     1.99999     0.00000
  27   Br  1  dxz    Ryd( 4d)     0.00213    -0.00015
  28   Br  1  dxz    Ryd( 5d)     0.00003     0.00000
  29   Br  1  dxz    Ryd( 6d)     0.00000     0.00000
  30   Br  1  dyz    Cor( 3d)     2.00000     0.00000
  31   Br  1  dyz    Ryd( 4d)     0.00020    -0.00001
  32   Br  1  dyz    Ryd( 5d)     0.00003     0.00000
  33   Br  1  dyz    Ryd( 6d)     0.00000     0.00000
  34   Br  1  dx2y2  Cor( 3d)     1.99999     0.00000
  35   Br  1  dx2y2  Ryd( 5d)     0.00195    -0.00001
  36   Br  1  dx2y2  Ryd( 4d)     0.00004     0.00000
  37   Br  1  dx2y2  Ryd( 6d)     0.00001     0.00000
  38   Br  1  dz2    Cor( 3d)     1.99999     0.00000
  39   Br  1  dz2    Ryd( 4d)     0.00067     0.00003
  40   Br  1  dz2    Ryd( 5d)     0.00002     0.00000
  41   Br  1  dz2    Ryd( 6d)     0.00000     0.00000
  42   Br  1  f(0)   Ryd( 4f)     0.00008    -0.00001
  43   Br  1  f(c1)  Ryd( 4f)     0.00006    -0.00001
  44   Br  1  f(s1)  Ryd( 4f)     0.00001     0.00000
  45   Br  1  f(c2)  Ryd( 4f)     0.00010     0.00000
  46   Br  1  f(s2)  Ryd( 4f)     0.00003     0.00000
  47   Br  1  f(c3)  Ryd( 4f)     0.00013     0.00000
  48   Br  1  f(s3)  Ryd( 4f)     0.00013     0.00000

  49    C  2  s      Cor( 1s)     1.99999     0.00000
  50    C  2  s      Val( 2s)     0.99705    -0.00027
  51    C  2  s      Ryd( 3s)     0.00105    -0.00003
  52    C  2  s      Ryd( 4s)     0.00033     0.00000
  53    C  2  s      Ryd( 5s)     0.00000     0.00000
  54    C  2  px     Val( 2p)     0.99294     0.00047
  55    C  2  px     Ryd( 3p)     0.00517     0.00003
  56    C  2  px     Ryd( 4p)     0.00074     0.00000
  57    C  2  py     Val( 2p)     1.04498    -0.00465
  58    C  2  py     Ryd( 3p)     0.00581    -0.00004
  59    C  2  py     Ryd( 4p)     0.00016     0.00000
  60    C  2  pz     Val( 2p)     0.98259     0.03895
  61    C  2  pz     Ryd( 3p)     0.00155    -0.00002
  62    C  2  pz     Ryd( 4p)     0.00025    -0.00004
  63    C  2  dxy    Ryd( 3d)     0.00200    -0.00002
  64    C  2  dxy    Ryd( 4d)     0.00033     0.00000
  65    C  2  dxz    Ryd( 3d)     0.00247    -0.00035
  66    C  2  dxz    Ryd( 4d)     0.00012    -0.00001
  67    C  2  dyz    Ryd( 3d)     0.00031     0.00012
  68    C  2  dyz    Ryd( 4d)     0.00013     0.00005
  69    C  2  dx2y2  Ryd( 3d)     0.00207     0.00000
  70    C  2  dx2y2  Ryd( 4d)     0.00041     0.00000
  71    C  2  dz2    Ryd( 3d)     0.00204    -0.00006
  72    C  2  dz2    Ryd( 4d)     0.00010     0.00000
  73    C  2  f(0)   Ryd( 4f)     0.00061    -0.00001
  74    C  2  f(c1)  Ryd( 4f)     0.00060    -0.00001
  75    C  2  f(s1)  Ryd( 4f)     0.00046    -0.00003
  76    C  2  f(c2)  Ryd( 4f)     0.00004     0.00000
  77    C  2  f(s2)  Ryd( 4f)     0.00001     0.00000
  78    C  2  f(c3)  Ryd( 4f)     0.00052     0.00000
  79    C  2  f(s3)  Ryd( 4f)     0.00046     0.00000

  80    C  3  s      Cor( 1s)     1.99999     0.00000
  81    C  3  s      Val( 2s)     1.00316     0.01480
  82    C  3  s      Ryd( 3s)     0.00077    -0.00002
  83    C  3  s      Ryd( 4s)     0.00006     0.00000
  84    C  3  s      Ryd( 5s)     0.00000     0.00000
  85    C  3  px     Val( 2p)     1.11000     0.00835
  86    C  3  px     Ryd( 3p)     0.00528    -0.00002
  87    C  3  px     Ryd( 4p)     0.00020     0.00001
  88    C  3  py     Val( 2p)     1.12309     0.00577
  89    C  3  py     Ryd( 3p)     0.00284    -0.00005
  90    C  3  py     Ryd( 4p)     0.00010     0.00000
  91    C  3  pz     Val( 2p)     0.81203     0.31095
  92    C  3  pz     Ryd( 3p)     0.00101     0.00023
  93    C  3  pz     Ryd( 4p)     0.00008     0.00002
  94    C  3  dxy    Ryd( 3d)     0.00082     0.00000
  95    C  3  dxy    Ryd( 4d)     0.00045    -0.00001
  96    C  3  dxz    Ryd( 3d)     0.00063    -0.00010
  97    C  3  dxz    Ryd( 4d)     0.00010    -0.00002
  98    C  3  dyz    Ryd( 3d)     0.00059     0.00012
  99    C  3  dyz    Ryd( 4d)     0.00008    -0.00001
 100    C  3  dx2y2  Ryd( 3d)     0.00310     0.00006
 101    C  3  dx2y2  Ryd( 4d)     0.00008     0.00000
 102    C  3  dz2    Ryd( 3d)     0.00138    -0.00035
 103    C  3  dz2    Ryd( 4d)     0.00002     0.00000
 104    C  3  f(0)   Ryd( 4f)     0.00035     0.00009
 105    C  3  f(c1)  Ryd( 4f)     0.00047    -0.00007
 106    C  3  f(s1)  Ryd( 4f)     0.00051    -0.00009
 107    C  3  f(c2)  Ryd( 4f)     0.00001     0.00000
 108    C  3  f(s2)  Ryd( 4f)     0.00003     0.00001
 109    C  3  f(c3)  Ryd( 4f)     0.00045     0.00001
 110    C  3  f(s3)  Ryd( 4f)     0.00035     0.00001

 111    C  4  s      Cor( 1s)     1.99999     0.00000
 112    C  4  s      Val( 2s)     0.98371    -0.00807
 113    C  4  s      Ryd( 3s)     0.00088     0.00000
 114    C  4  s      Ryd( 4s)     0.00003     0.00000
 115    C  4  s      Ryd( 5s)     0.00000     0.00000
 116    C  4  px     Val( 2p)     1.05013    -0.01015
 117    C  4  px     Ryd( 3p)     0.00327     0.00000
 118    C  4  px     Ryd( 4p)     0.00010    -0.00001
 119    C  4  py     Val( 2p)     1.17807    -0.00564
 120    C  4  py     Ryd( 3p)     0.00461     0.00010
 121    C  4  py     Ryd( 4p)     0.00008    -0.00001
 122    C  4  pz     Val( 2p)     0.98240    -0.10377
 123    C  4  pz     Ryd( 3p)     0.00069     0.00006
 124    C  4  pz     Ryd( 4p)     0.00014    -0.00001
 125    C  4  dxy    Ryd( 3d)     0.00160    -0.00005
 126    C  4  dxy    Ryd( 4d)     0.00032     0.00000
 127    C  4  dxz    Ryd( 3d)     0.00019     0.00006
 128    C  4  dxz    Ryd( 4d)     0.00010     0.00008
 129    C  4  dyz    Ryd( 3d)     0.00067    -0.00009
 130    C  4  dyz    Ryd( 4d)     0.00005    -0.00001
 131    C  4  dx2y2  Ryd( 3d)     0.00081    -0.00001
 132    C  4  dx2y2  Ryd( 4d)     0.00044     0.00001
 133    C  4  dz2    Ryd( 3d)     0.00106     0.00004
 134    C  4  dz2    Ryd( 4d)     0.00001     0.00000
 135    C  4  f(0)   Ryd( 4f)     0.00041    -0.00003
 136    C  4  f(c1)  Ryd( 4f)     0.00036    -0.00001
 137    C  4  f(s1)  Ryd( 4f)     0.00047     0.00001
 138    C  4  f(c2)  Ryd( 4f)     0.00002     0.00000
 139    C  4  f(s2)  Ryd( 4f)     0.00002     0.00000
 140    C  4  f(c3)  Ryd( 4f)     0.00039     0.00000
 141    C  4  f(s3)  Ryd( 4f)     0.00031     0.00000

 142    C  5  s      Cor( 1s)     1.99999     0.00000
 143    C  5  s      Val( 2s)     0.94418     0.01193
 144    C  5  s      Ryd( 3s)     0.00084     0.00001
 145    C  5  s      Ryd( 4s)     0.00014     0.00000
 146    C  5  s      Ryd( 5s)     0.00000     0.00000
 147    C  5  px     Val( 2p)     1.05847     0.00753
 148    C  5  px     Ryd( 3p)     0.00311    -0.00001
 149    C  5  px     Ryd( 4p)     0.00018     0.00000
 150    C  5  py     Val( 2p)     1.04017     0.00254
 151    C  5  py     Ryd( 3p)     0.00251     0.00003
 152    C  5  py     Ryd( 4p)     0.00019     0.00000
 153    C  5  pz     Val( 2p)     0.86670     0.26749
 154    C  5  pz     Ryd( 3p)     0.00112     0.00035
 155    C  5  pz     Ryd( 4p)     0.00005     0.00000
 156    C  5  dxy    Ryd( 3d)     0.00117     0.00001
 157    C  5  dxy    Ryd( 4d)     0.00031     0.00000
 158    C  5  dxz    Ryd( 3d)     0.00072     0.00001
 159    C  5  dxz    Ryd( 4d)     0.00020    -0.00001
 160    C  5  dyz    Ryd( 3d)     0.00036     0.00023
 161    C  5  dyz    Ryd( 4d)     0.00012     0.00000
 162    C  5  dx2y2  Ryd( 3d)     0.00112     0.00002
 163    C  5  dx2y2  Ryd( 4d)     0.00052    -0.00001
 164    C  5  dz2    Ryd( 3d)     0.00110    -0.00024
 165    C  5  dz2    Ryd( 4d)     0.00006     0.00000
 166    C  5  f(0)   Ryd( 4f)     0.00040     0.00011
 167    C  5  f(c1)  Ryd( 4f)     0.00054    -0.00006
 168    C  5  f(s1)  Ryd( 4f)     0.00039    -0.00007
 169    C  5  f(c2)  Ryd( 4f)     0.00004     0.00000
 170    C  5  f(s2)  Ryd( 4f)     0.00003     0.00000
 171    C  5  f(c3)  Ryd( 4f)     0.00043     0.00001
 172    C  5  f(s3)  Ryd( 4f)     0.00032     0.00001

 173    C  6  s      Cor( 1s)     1.99999     0.00000
 174    C  6  s      Val( 2s)     0.88309     0.00360
 175    C  6  s      Ryd( 4s)     0.00173     0.00007
 176    C  6  s      Ryd( 3s)     0.00029     0.00000
 177    C  6  s      Ryd( 5s)     0.00000     0.00000
 178    C  6  px     Val( 2p)     0.94878    -0.00037
 179    C  6  px     Ryd( 3p)     0.00259     0.00004
 180    C  6  px     Ryd( 4p)     0.00031    -0.00001
 181    C  6  py     Val( 2p)     0.90690    -0.00400
 182    C  6  py     Ryd( 3p)     0.00478     0.00000
 183    C  6  py     Ryd( 4p)     0.00033     0.00000
 184    C  6  pz     Val( 2p)     0.84879     0.16145
 185    C  6  pz     Ryd( 3p)     0.00108     0.00034
 186    C  6  pz     Ryd( 4p)     0.00018     0.00005
 187    C  6  dxy    Ryd( 3d)     0.00047    -0.00001
 188    C  6  dxy    Ryd( 4d)     0.00086     0.00000
 189    C  6  dxz    Ryd( 3d)     0.00142    -0.00007
 190    C  6  dxz    Ryd( 4d)     0.00009    -0.00003
[...]
   92. RY (15)Br  1             0.00000     1.94312
   93. RY (16)Br  1             0.00000     2.32315
   94. RY (17)Br  1             0.00000     2.36198
   95. RY (18)Br  1             0.00000     2.70045
   96. RY (19)Br  1             0.00000     2.34692
   97. RY (20)Br  1             0.00000     2.99482
   98. RY (21)Br  1             0.00000     1.40525
   99. RY (22)Br  1             0.00000     1.58859
  100. RY (23)Br  1             0.00000     3.60514
  101. RY (24)Br  1             0.00000     2.79544
  102. RY (25)Br  1             0.00000     2.81036
  103. RY (26)Br  1             0.00000     1.93375
  104. RY (27)Br  1             0.00000     3.20225
  105. RY (28)Br  1             0.00000     1.47662
  106. RY (29)Br  1             0.00000     2.08952
  107. RY (30)Br  1             0.00000     2.85630
  108. RY ( 1) C  2             0.00315     0.91272
  109. RY ( 2) C  2             0.00236     1.25006
  110. RY ( 3) C  2             0.00225     0.85747
  111. RY ( 4) C  2             0.00031     1.19322
  112. RY ( 5) C  2             0.00026     1.50306
  113. RY ( 6) C  2             0.00014     3.32581
  114. RY ( 7) C  2             0.00013     2.11645
  115. RY ( 8) C  2             0.00013     2.92622
  116. RY ( 9) C  2             0.00003     1.47649
  117. RY (10) C  2             0.00003     2.03002
  118. RY (11) C  2             0.00001     2.71419
  119. RY (12) C  2             0.00001     2.50520
  120. RY (13) C  2             0.00000     2.71223
  121. RY (14) C  2             0.00000     2.70482
  122. RY (15) C  2             0.00000     3.50731
  123. RY (16) C  2             0.00000     1.95625
  124. RY (17) C  2             0.00000     3.07935
  125. RY (18) C  2             0.00000     2.78101
  126. RY (19) C  2             0.00000    10.44893
  127. RY (20) C  2             0.00000     5.14641
  128. RY (21) C  2             0.00000     5.11828
  129. RY (22) C  2             0.00000     4.88660
  130. RY (23) C  2             0.00000     3.74239
  131. RY (24) C  2             0.00000     3.59656
  132. RY (25) C  2             0.00000     3.23428
  133. RY (26) C  2             0.00000     2.62696
  134. RY ( 1) C  3             0.00237     1.21740
  135. RY ( 2) C  3             0.00094     1.08249
  136. RY ( 3) C  3             0.00054     0.90376
  137. RY ( 4) C  3             0.00035     1.65741
  138. RY ( 5) C  3             0.00019     1.15718
  139. RY ( 6) C  3             0.00015     1.81568
  140. RY ( 7) C  3             0.00009     2.31286
  141. RY ( 8) C  3             0.00004     2.17878
  142. RY ( 9) C  3             0.00002     2.85986
  143. RY (10) C  3             0.00001     2.66689
  144. RY (11) C  3             0.00001     2.76255
  145. RY (12) C  3             0.00000     3.10304
  146. RY (13) C  3             0.00000     2.76975
  147. RY (14) C  3             0.00000     3.33635
  148. RY (15) C  3             0.00000     2.44888
  149. RY (16) C  3             0.00000     9.26453
  150. RY (17) C  3             0.00000     3.50639
  151. RY (18) C  3             0.00000     1.28155
  152. RY (19) C  3             0.00000     3.85435
  153. RY (20) C  3             0.00000     4.84106
  154. RY (21) C  3             0.00000     2.98353
  155. RY (22) C  3             0.00000     6.40634
  156. RY (23) C  3             0.00000     7.10318
  157. RY (24) C  3             0.00000     3.01259
  158. RY (25) C  3             0.00000     3.11671
  159. RY (26) C  3             0.00000     3.12263
  160. RY ( 1) C  4             0.00239     1.48397
  161. RY ( 2) C  4             0.00090     1.17518
  162. RY ( 3) C  4             0.00033     0.60105
  163. RY ( 4) C  4             0.00029     1.96843
  164. RY ( 5) C  4             0.00016     2.89763
  165. RY ( 6) C  4             0.00009     1.06737
  166. RY ( 7) C  4             0.00005     2.42163
  167. RY ( 8) C  4             0.00003     2.16616
  168. RY ( 9) C  4             0.00002     2.23181
  169. RY (10) C  4             0.00001     2.62824
  170. RY (11) C  4             0.00001     2.39896
  171. RY (12) C  4             0.00001     2.65830
  172. RY (13) C  4             0.00001     2.05558
  173. RY (14) C  4             0.00000     2.45450
  174. RY (15) C  4             0.00000     2.87634
  175. RY (16) C  4             0.00000     5.53700
  176. RY (17) C  4             0.00000     3.28663
  177. RY (18) C  4             0.00000    13.21860
  178. RY (19) C  4             0.00000     3.15089
  179. RY (20) C  4             0.00000     3.06552
  180. RY (21) C  4             0.00000     3.46905
  181. RY (22) C  4             0.00000     3.01775
  182. RY (23) C  4             0.00000     3.18285
  183. RY (24) C  4             0.00000     2.89516
  184. RY (25) C  4             0.00000     4.90049
  185. RY (26) C  4             0.00000     3.37945
  186. RY ( 1) C  5             0.00162     1.56245
  187. RY ( 2) C  5             0.00131     1.13956
  188. RY ( 3) C  5             0.00058     1.22280
  189. RY ( 4) C  5             0.00031     1.06647
  190. RY ( 5) C  5             0.00020     1.65825
  191. RY ( 6) C  5             0.00020     2.21556
  192. RY ( 7) C  5             0.00014     3.41535
  193. RY ( 8) C  5             0.00010     3.10694
  194. RY ( 9) C  5             0.00009     2.93114
  195. RY (10) C  5             0.00005     2.52371
  196. RY (11) C  5             0.00003     3.37630
  197. RY (12) C  5             0.00002     2.87079
  198. RY (13) C  5             0.00002     2.86841
  199. RY (14) C  5             0.00001     2.43922
  200. RY (15) C  5             0.00001     2.82183
  201. RY (16) C  5             0.00001     2.23984
  202. RY (17) C  5             0.00000     2.84208
  203. RY (18) C  5             0.00000     3.85117
  204. RY (19) C  5             0.00000     2.85950
  205. RY (20) C  5             0.00000    16.81813
  206. RY (21) C  5             0.00000     4.51579
  207. RY (22) C  5             0.00000     3.30284
  208. RY (23) C  5             0.00000     3.29088
  209. RY (24) C  5             0.00000     3.36907
  210. RY (25) C  5             0.00000     3.14664
  211. RY (26) C  5             0.00000     3.51185
  212. RY ( 1) C  6             0.00225     1.38797
  213. RY ( 2) C  6             0.00138     1.43983
  214. RY ( 3) C  6             0.00131     1.44330
  215. RY ( 4) C  6             0.00084     1.99881
  216. RY ( 5) C  6             0.00047     0.83891
  217. RY ( 6) C  6             0.00021     2.08524
  218. RY ( 7) C  6             0.00017     2.03683
  219. RY ( 8) C  6             0.00013     2.62944
  220. RY ( 9) C  6             0.00009     2.81135
  221. RY (10) C  6             0.00005     2.13693
  222. RY (11) C  6             0.00004     2.40811
  223. RY (12) C  6             0.00004     2.91154
  224. RY (13) C  6             0.00002     3.03216
  225. RY (14) C  6             0.00001     3.08002
  226. RY (15) C  6             0.00001     2.45282
  227. RY (16) C  6             0.00001     2.73648
  228. RY (17) C  6             0.00001     3.12640
  229. RY (18) C  6             0.00000     3.33262
  230. RY (19) C  6             0.00000    11.54994
  231. RY (20) C  6             0.00000     4.43329
  232. RY (21) C  6             0.00000     7.75987
  233. RY (22) C  6             0.00000     3.64381
  234. RY (23) C  6             0.00000     3.76935
  235. RY (24) C  6             0.00000     4.87042
  236. RY (25) C  6             0.00000     3.22199
  237. RY (26) C  6             0.00000     3.29844
  238. RY ( 1) C  7             0.00211     1.24600
  239. RY ( 2) C  7             0.00163     1.02334
  240. RY ( 3) C  7             0.00081     0.50021
  241. RY ( 4) C  7             0.00040     2.03132
  242. RY ( 5) C  7             0.00028     1.07759
  243. RY ( 6) C  7             0.00020     1.60675
  244. RY ( 7) C  7             0.00017     2.36062
  245. RY ( 8) C  7             0.00009     1.86297
  246. RY ( 9) C  7             0.00007     2.90583
  247. RY (10) C  7             0.00003     3.71474
  248. RY (11) C  7             0.00002     3.15952
  249. RY (12) C  7             0.00001     2.23918
  250. RY (13) C  7             0.00001     2.76974
  251. RY (14) C  7             0.00000     2.68859
  252. RY (15) C  7             0.00000     2.14558
  253. RY (16) C  7             0.00000     3.13702
  254. RY (17) C  7             0.00000     3.43909
  255. RY (18) C  7             0.00000     3.55087
  256. RY (19) C  7             0.00000     3.05415
  257. RY (20) C  7             0.00000     2.72176
  258. RY (21) C  7             0.00000     9.40438
  259. RY (22) C  7             0.00000     2.90646
  260. RY (23) C  7             0.00000     7.87988
  261. RY (24) C  7             0.00000     6.50271
  262. RY (25) C  7             0.00000     3.00862
  263. RY (26) C  7             0.00000     3.05999
  264. RY ( 1) O  8             0.00141     0.83767
  265. RY ( 2) O  8             0.00096     0.80412
  266. RY ( 3) O  8             0.00023     1.97240
  267. RY ( 4) O  8             0.00014     2.28135
  268. RY ( 5) O  8             0.00006     3.04491
  269. RY ( 6) O  8             0.00004     2.44657
  270. RY ( 7) O  8             0.00003     2.36169
  271. RY ( 8) O  8             0.00003     2.62067
  272. RY ( 9) O  8             0.00001     4.96010
  273. RY (10) O  8             0.00001     6.11682
  274. RY (11) O  8             0.00000     3.50724
  275. RY (12) O  8             0.00000     4.01910
  276. RY (13) O  8             0.00000     5.13391
  277. RY (14) O  8             0.00000    12.93203
  278. RY (15) O  8             0.00000     4.45648
  279. RY (16) O  8             0.00000     3.96708
  280. RY (17) O  8             0.00000     8.64707
  281. RY (18) O  8             0.00000     4.91108
  282. RY (19) O  8             0.00000    10.25472
  283. RY (20) O  8             0.00000     5.27088
  284. RY (21) O  8             0.00000     5.37151
  285. RY (22) O  8             0.00000    11.72467
  286. RY (23) O  8             0.00000     6.48748
  287. RY (24) O  8             0.00000    10.88354
  288. RY (25) O  8             0.00000     6.82827
  289. RY (26) O  8             0.00000    10.64667
  290. RY ( 1) C  9             0.00145     1.08726
  291. RY ( 2) C  9             0.00094     1.25449
  292. RY ( 3) C  9             0.00060     1.46391
  293. RY ( 4) C  9             0.00031     2.29941
  294. RY ( 5) C  9             0.00010     2.43494
  295. RY ( 6) C  9             0.00010     2.12423
  296. RY ( 7) C  9             0.00004     2.36642
  297. RY ( 8) C  9             0.00003     1.37922
  298. RY ( 9) C  9             0.00002     2.42771
  299. RY (10) C  9             0.00001     2.15643
  300. RY (11) C  9             0.00001     2.28547
  301. RY (12) C  9             0.00000     1.74200
  302. RY (13) C  9             0.00000     2.85045
  303. RY (14) C  9             0.00000     2.58402
  304. RY (15) C  9             0.00000     2.27353
  305. RY (16) C  9             0.00000     3.89269
  306. RY (17) C  9             0.00000     5.18118
  307. RY (18) C  9             0.00000     2.82502
  308. RY (19) C  9             0.00000     4.56662
  309. RY (20) C  9             0.00000     4.77501
  310. RY (21) C  9             0.00000     5.23419
  311. RY (22) C  9             0.00000     8.31589
  312. RY (23) C  9             0.00000     2.92518
  313. RY (24) C  9             0.00000     4.28580
  314. RY (25) C  9             0.00000     4.31751
  315. RY (26) C  9             0.00000     3.10019
  316. RY ( 1) C 10             0.00079     1.25068
  317. RY ( 2) C 10             0.00051     1.68365
  318. RY ( 3) C 10             0.00023     1.07557
  319. RY ( 4) C 10             0.00019     1.67499
  320. RY ( 5) C 10             0.00010     2.00411
  321. RY ( 6) C 10             0.00007     1.99024
  322. RY ( 7) C 10             0.00005     2.65935
  323. RY ( 8) C 10             0.00004     3.67549
  324. RY ( 9) C 10             0.00001     2.07741
  325. RY (10) C 10             0.00001     2.00839
  326. RY (11) C 10             0.00001     1.73065
  327. RY (12) C 10             0.00000     2.08700
  328. RY (13) C 10             0.00000     2.48854
  329. RY (14) C 10             0.00000     2.75205
  330. RY (15) C 10             0.00000     4.59801
  331. RY (16) C 10             0.00000     3.65796
  332. RY (17) C 10             0.00000    12.15170
  333. RY (18) C 10             0.00000     3.04278
  334. RY (19) C 10             0.00000     2.75231
  335. RY (20) C 10             0.00000     3.35172
  336. RY (21) C 10             0.00000     5.00127
  337. RY (22) C 10             0.00000     3.74530
  338. RY (23) C 10             0.00000     2.57153
  339. RY (24) C 10             0.00000     3.88135
  340. RY (25) C 10             0.00000     3.97243
  341. RY (26) C 10             0.00000     2.73546
  342. RY ( 1) C 11             0.00129     1.20894
  343. RY ( 2) C 11             0.00073     1.28999
  344. RY ( 3) C 11             0.00034     1.79089
  345. RY ( 4) C 11             0.00015     1.47527
  346. RY ( 5) C 11             0.00010     2.45336
  347. RY ( 6) C 11             0.00009     2.16108
  348. RY ( 7) C 11             0.00004     2.32936
  349. RY ( 8) C 11             0.00003     3.07249
  350. RY ( 9) C 11             0.00003     1.75222
  351. RY (10) C 11             0.00002     2.15901
  352. RY (11) C 11             0.00002     1.71730
  353. RY (12) C 11             0.00001     1.57773
  354. RY (13) C 11             0.00001     2.87235
  355. RY (14) C 11             0.00000     2.40619
  356. RY (15) C 11             0.00000     3.34983
  357. RY (16) C 11             0.00000     3.92102
  358. RY (17) C 11             0.00000     8.87271
  359. RY (18) C 11             0.00000     3.70868
  360. RY (19) C 11             0.00000     3.18921
  361. RY (20) C 11             0.00000     2.86151
  362. RY (21) C 11             0.00000     2.85506
  363. RY (22) C 11             0.00000     3.56289
  364. RY (23) C 11             0.00000    10.09247
  365. RY (24) C 11             0.00000     3.48870
  366. RY (25) C 11             0.00000     4.40081
  367. RY (26) C 11             0.00000     2.93400
  368. RY ( 1) H 12             0.00018     0.68964
  369. RY ( 2) H 12             0.00005     1.85947
  370. RY ( 3) H 12             0.00003     2.33751
  371. RY ( 4) H 12             0.00002     2.03144
  372. RY ( 5) H 12             0.00000     2.79984
  373. RY ( 1) H 13             0.00016     0.70320
  374. RY ( 2) H 13             0.00005     2.02529
  375. RY ( 3) H 13             0.00005     1.83062
  376. RY ( 4) H 13             0.00002     2.43107
  377. RY ( 5) H 13             0.00000     2.85425
  378. RY ( 1) H 14             0.00027     0.59181
  379. RY ( 2) H 14             0.00005     1.95513
  380. RY ( 3) H 14             0.00005     2.04477
  381. RY ( 4) H 14             0.00003     2.35260
  382. RY ( 5) H 14             0.00001     2.89016
  383. RY ( 1) H 15             0.00014     0.97679
  384. RY ( 2) H 15             0.00004     2.23377
  385. RY ( 3) H 15             0.00003     2.12166
  386. RY ( 4) H 15             0.00001     2.10359
  387. RY ( 5) H 15             0.00000     2.21883
  388. RY ( 1) H 16             0.00036     0.59899
  389. RY ( 2) H 16             0.00006     2.22049
  390. RY ( 3) H 16             0.00002     2.16262
  391. RY ( 4) H 16             0.00001     2.23008
  392. RY ( 5) H 16             0.00000     2.43846
  393. RY ( 1) H 17             0.00029     0.70980
  394. RY ( 2) H 17             0.00004     2.29597
  395. RY ( 3) H 17             0.00002     2.29258
  396. RY ( 4) H 17             0.00001     2.52210
  397. RY ( 5) H 17             0.00000     1.98917
  398. RY ( 1) H 18             0.00010     1.08162
  399. RY ( 2) H 18             0.00004     2.28622
  400. RY ( 3) H 18             0.00003     2.23103
  401. RY ( 4) H 18             0.00001     2.22698
  402. RY ( 5) H 18             0.00000     1.96422
  403. RY ( 1) H 19             0.00031     0.91646
  404. RY ( 2) H 19             0.00005     2.30271
  405. RY ( 3) H 19             0.00003     2.20388
  406. RY ( 4) H 19             0.00001     2.42882
  407. RY ( 5) H 19             0.00000     1.89411
  408. RY ( 1) H 20             0.00022     0.90906
  409. RY ( 2) H 20             0.00005     2.33051
  410. RY ( 3) H 20             0.00002     2.17287
  411. RY ( 4) H 20             0.00001     2.35966
  412. RY ( 5) H 20             0.00000     2.04148
          -------------------------------
                 Total Lewis   51.22906  ( 98.5174%)
           Valence non-Lewis    0.71938  (  1.3834%)
           Rydberg non-Lewis    0.05156  (  0.0992%)
          -------------------------------
               Total unit  1   52.00000  (100.0000%)
              Charge unit  1    1.00000

 $CHOOSE
  ALPHA
   LONE 1 3 8 2 END
   BOND S 1 2 S 2 3 D 2 7 D 3 4 S 3 12 S 4 5 S 4 13 D 5 6 S 5 11 S 6 7 S 6 8
        S 7 14 S 8 9 S 9 10 S 9 15 S 9 16 S 10 11 S 10 17 S 10 18 S 11 19
        S 11 20 END
  END
  BETA
   LONE 1 3 8 1 END
   BOND S 1 2 S 2 3 D 2 7 S 3 4 S 3 12 D 4 5 S 4 13 S 5 6 S 5 11 S 6 7 D 6 8
        S 7 14 S 8 9 S 9 10 S 9 15 S 9 16 S 10 11 S 10 17 S 10 18 S 11 19
        S 11 20 END
  END
 $END

 NBO analysis completed in 7.58 CPU seconds (7 wall seconds)
 Maximum scratch memory used by NBO was 2110326 words (16.10 MB)
 Maximum scratch memory used by G16NBO was 350146 words (2.67 MB)

 Opening RunExU unformatted file "/home/rpaton/opt/tzvp/fukui/Gau-3363419.EUF"
 Read unf file /home/rpaton/opt/tzvp/fukui/Gau-3363419.EUF:
 Label Gaussian matrix elements                                         IVers= 2 NLab= 2 Version=ES64L-G16RevC.01
 Title arbr43_wb97xd_oxdcreated by GaussianPrep                        
 NAtoms=    20 NBasis=   412 NBsUse=   412 ICharg=     1 Multip=     2 NE=   105 Len12L=8 Len4L=8 IOpCl= 1 ICGU=112
 GAUSSIAN SCALARS                    NI= 1 NR= 1 NTot=       1 LenBuf=    2 NRI=1 N=    1000
 NPA CHARGES                         NI= 0 NR= 1 NTot=      20 LenBuf= 2048 NRI=1 N=      20
 Recovered energy= -2997.53248055     dipole=      2.387757715493      0.795045827329     -0.165436830957
 Unable to Open any file for archive entry.
 1\1\GINC-DYNAMO\SP\UwB97XD\def2TZVP\C9H9Br1O1(1+,2)\RPATON\25-Sep-2024
 \0\\# pop=(nbo6,hirshfeld) wb97xd/def2tzvp\\arbr43_wb97xd_oxdcreated b
 y GaussianPrep\\1,2\Br,0,3.001159,-0.254439,-0.027323\C,0,1.158595,0.1
 91327,0.010306\C,0,0.780986,1.524508,0.058661\C,0,-0.569136,1.822566,0
 .078626\C,0,-1.547533,0.83566,0.058941\C,0,-1.130991,-0.495298,0.02068
 7\C,0,0.222553,-0.820393,-0.009521\O,0,-1.991688,-1.541486,-0.013253\C
 ,0,-3.352834,-1.264637,0.282233\C,0,-3.837664,-0.013268,-0.42085\C,0,-
 3.015786,1.176702,0.057574\H,0,1.523788,2.309056,0.073429\H,0,-0.87920
 3,2.861374,0.102313\H,0,0.511954,-1.86117,-0.04546\H,0,-3.902605,-2.14
 9099,-0.035318\H,0,-3.466004,-1.158178,1.368123\H,0,-3.72434,-0.145424
 ,-1.499687\H,0,-4.899073,0.133675,-0.215463\H,0,-3.329252,1.454899,1.0
 68814\H,0,-3.191457,2.049106,-0.574362\\Version=ES64L-G16RevC.01\State
 =2-A\HF=-2997.5324805\S2=0.772529\S2-1=0.\S2A=0.750269\RMSD=8.186e-09\
 Dipole=-2.3877577,0.795046,0.1654368\Quadrupole=16.1008114,-3.1796208,
 -12.9211906,0.8510211,-0.8689355,-0.1044665\PG=C01 [X(C9H9Br1O1)]\\@
 The archive entry for this job was punched.


 A great many people think they are thinking when they
 are merely rearranging their prejudices.
                               -- William James
 Job cpu time:       0 days  0 hours 59 minutes 38.3 seconds.
 Elapsed time:       0 days  0 hours  2 minutes 30.3 seconds.
 File lengths (MBytes):  RWF=    166 Int=      0 D2E=      0 Chk=     13 Scr=      1
 Normal termination of Gaussian 16 at Wed Sep 25 00:55:13 2024.
