 Entering Gaussian System, Link 0=/usr/local/Gaussian/G16C/g16/g16
 Input=arbr32_wb97xd_popn.com
 Output=arbr32_wb97xd_popn.log
 Initial command:
 /usr/local/Gaussian/G16C/g16/l1.exe "/home/rpaton/opt/tzvp/popn/Gau-2141184.inp" -scrdir="/home/rpaton/opt/tzvp/popn/"
 Entering Link 1 = /usr/local/Gaussian/G16C/g16/l1.exe PID=   2141185.
  
 Copyright (c) 1988-2019, Gaussian, Inc.  All Rights Reserved.
  
 This is part of the Gaussian(R) 16 program.  It is based on
 the Gaussian(R) 09 system (copyright 2009, Gaussian, Inc.),
 the Gaussian(R) 03 system (copyright 2003, Gaussian, Inc.),
 the Gaussian(R) 98 system (copyright 1998, Gaussian, Inc.),
 the Gaussian(R) 94 system (copyright 1995, Gaussian, Inc.),
 the Gaussian 92(TM) system (copyright 1992, Gaussian, Inc.),
 the Gaussian 90(TM) system (copyright 1990, Gaussian, Inc.),
 the Gaussian 88(TM) system (copyright 1988, Gaussian, Inc.),
 the Gaussian 86(TM) system (copyright 1986, Carnegie Mellon
 University), and the Gaussian 82(TM) system (copyright 1983,
 Carnegie Mellon University). Gaussian is a federally registered
 trademark of Gaussian, Inc.
  
 This software contains proprietary and confidential information,
 including trade secrets, belonging to Gaussian, Inc.
  
 This software is provided under written license and may be
 used, copied, transmitted, or stored only in accord with that
 written license.
  
 The following legend is applicable only to US Government
 contracts under FAR:
  
                    RESTRICTED RIGHTS LEGEND
  
 Use, reproduction and disclosure by the US Government is
 subject to restrictions as set forth in subparagraphs (a)
 and (c) of the Commercial Computer Software - Restricted
 Rights clause in FAR 52.227-19.
  
 Gaussian, Inc.
 340 Quinnipiac St., Bldg. 40, Wallingford CT 06492
  
  
 ---------------------------------------------------------------
 Warning -- This program may not be used in any manner that
 competes with the business of Gaussian, Inc. or will provide
 assistance to any competitor of Gaussian, Inc.  The licensee
 of this program is prohibited from giving any competitor of
 Gaussian, Inc. access to this program.  By using this program,
 the user acknowledges that Gaussian, Inc. is engaged in the
 business of creating and licensing software in the field of
 computational chemistry and represents and warrants to the
 licensee that it is not a competitor of Gaussian, Inc. and that
 it will not use this program in any manner prohibited above.
 ---------------------------------------------------------------
  

 Cite this work as:
 Gaussian 16, Revision C.01,
 M. J. Frisch, G. W. Trucks, H. B. Schlegel, G. E. Scuseria, 
 M. A. Robb, J. R. Cheeseman, G. Scalmani, V. Barone, 
 G. A. Petersson, H. Nakatsuji, X. Li, M. Caricato, A. V. Marenich, 
 J. Bloino, B. G. Janesko, R. Gomperts, B. Mennucci, H. P. Hratchian, 
 J. V. Ortiz, A. F. Izmaylov, J. L. Sonnenberg, D. Williams-Young, 
 F. Ding, F. Lipparini, F. Egidi, J. Goings, B. Peng, A. Petrone, 
 T. Henderson, D. Ranasinghe, V. G. Zakrzewski, J. Gao, N. Rega, 
 G. Zheng, W. Liang, M. Hada, M. Ehara, K. Toyota, R. Fukuda, 
 J. Hasegawa, M. Ishida, T. Nakajima, Y. Honda, O. Kitao, H. Nakai, 
 T. Vreven, K. Throssell, J. A. Montgomery, Jr., J. E. Peralta, 
 F. Ogliaro, M. J. Bearpark, J. J. Heyd, E. N. Brothers, K. N. Kudin, 
 V. N. Staroverov, T. A. Keith, R. Kobayashi, J. Normand, 
 K. Raghavachari, A. P. Rendell, J. C. Burant, S. S. Iyengar, 
 J. Tomasi, M. Cossi, J. M. Millam, M. Klene, C. Adamo, R. Cammi, 
 J. W. Ochterski, R. L. Martin, K. Morokuma, O. Farkas, 
 J. B. Foresman, and D. J. Fox, Gaussian, Inc., Wallingford CT, 2019.
 
 ******************************************
 Gaussian 16:  ES64L-G16RevC.01  3-Jul-2019
                23-Sep-2024 
 ******************************************
 %chk=arbr32_wb97xd_popn.chk
 %mem=48GB
 %nprocshared=24
 Will use up to   24 processors via shared memory.
 ---------------------------------------------------
 # pop=(nbo6read,savenbos,hirshfeld) wb97xd/def2tzvp
 ---------------------------------------------------
 1/38=1,163=2,172=1/1;
 2/12=2,17=6,18=5,40=1/2;
 3/5=44,7=101,11=2,25=1,30=1,74=-58/1,2,3;
 4//1;
 5/5=2,38=5/2;
 6/7=2,8=2,9=2,10=2,28=1,40=2,73=1,79=1,113=1,114=1,124=2103,126=1/1,12;
 99/5=1,9=1/99;
 -----------------------------------------
 arbr32_wb97xd_popncreated by GaussianPrep
 -----------------------------------------
 Symbolic Z-matrix:
 Charge =  0 Multiplicity = 1
 O                    -3.3319    1.88523  -0.22502 
 C                    -2.85478   0.79794  -0.06833 
 O                    -3.663    -0.274     0.02862 
 C                    -3.12014  -1.52172   0.4598 
 C                    -1.85205  -1.8707   -0.28889 
 C                    -0.87494  -0.74172  -0.14178 
 C                     0.49865  -0.93639  -0.1395 
 C                     1.34076   0.1532   -0.00105 
 Br                    3.21181  -0.12343   0.01224 
 C                     0.8428    1.44165   0.13128 
 C                    -0.52536   1.63198   0.12018 
 C                    -1.38492   0.54799  -0.01156 
 H                    -3.90753  -2.25197   0.2854 
 H                    -2.92654  -1.46937   1.5357 
 H                    -1.43798  -2.80148   0.10167 
 H                    -2.08039  -2.03197  -1.34672 
 H                     0.90848  -1.93292  -0.23986 
 H                     1.51669   2.27996   0.23794 
 H                    -0.94701   2.62447   0.20777 
 
                          Input orientation:                          
 ---------------------------------------------------------------------
 Center     Atomic      Atomic             Coordinates (Angstroms)
 Number     Number       Type             X           Y           Z
 ---------------------------------------------------------------------
      1          8           0       -3.331901    1.885234   -0.225017
      2          6           0       -2.854776    0.797941   -0.068330
      3          8           0       -3.662999   -0.273997    0.028617
      4          6           0       -3.120143   -1.521715    0.459800
      5          6           0       -1.852047   -1.870697   -0.288894
      6          6           0       -0.874939   -0.741721   -0.141779
      7          6           0        0.498647   -0.936394   -0.139498
      8          6           0        1.340758    0.153195   -0.001053
      9         35           0        3.211811   -0.123427    0.012241
     10          6           0        0.842795    1.441648    0.131283
     11          6           0       -0.525361    1.631977    0.120176
     12          6           0       -1.384917    0.547987   -0.011561
     13          1           0       -3.907533   -2.251965    0.285399
     14          1           0       -2.926537   -1.469372    1.535704
     15          1           0       -1.437976   -2.801481    0.101666
     16          1           0       -2.080394   -2.031969   -1.346719
     17          1           0        0.908478   -1.932916   -0.239860
     18          1           0        1.516693    2.279957    0.237939
     19          1           0       -0.947006    2.624467    0.207773
 ---------------------------------------------------------------------
                    Distance matrix (angstroms):
                    1          2          3          4          5
     1  O    0.000000
     2  C    1.197667   0.000000
     3  O    2.199144   1.345984   0.000000
     4  C    3.481539   2.393772   1.427379   0.000000
     5  C    4.037458   2.859326   2.435120   1.513406   0.000000
     6  C    3.597844   2.509125   2.832151   2.451781   1.500323
     7  C    4.758361   3.776033   4.217384   3.714485   2.533970
     8  C    4.988373   4.245318   5.022047   4.787207   3.791173
     9  Br   6.849173   6.136684   6.876478   6.499935   5.365286
    10  C    4.213289   3.758488   4.822464   4.959266   4.290729
    11  C    2.839008   2.481396   3.672314   4.098050   3.767779
    12  C    2.371611   1.492041   2.422175   2.741689   2.478943
    13  H    4.208122   3.245820   2.009500   1.087963   2.167995
    14  H    3.810228   2.778270   2.059759   1.094437   2.155168
    15  H    5.065469   3.871958   3.368121   2.143769   1.091032
    16  H    4.262507   3.200365   2.736175   2.145914   1.094141
    17  H    5.706076   4.652858   4.870574   4.109550   2.761661
    18  H    4.886614   4.626004   5.778902   6.000182   5.371582
    19  H    2.534067   2.655563   3.976155   4.687949   4.612188
                    6          7          8          9         10
     6  C    0.000000
     7  C    1.387314   0.000000
     8  C    2.393740   1.384024   0.000000
     9  Br   4.136126   2.836406   1.891437   0.000000
    10  C    2.791464   2.418025   1.387657   2.841807   0.000000
    11  C    2.413559   2.777148   2.384092   4.130321   1.381376
    12  C    1.392976   2.401576   2.754138   4.645565   2.404524
    13  H    3.414666   4.617974   5.780260   7.435748   6.019314
    14  H    2.748177   3.849968   4.817069   6.466206   4.965310
    15  H    2.149160   2.699485   4.057342   5.366609   4.817358
    16  H    2.137696   3.051085   4.276686   5.787637   4.774467
    17  H    2.146891   1.082169   2.143771   2.939923   3.395548
    18  H    3.872290   3.394671   2.147367   2.949681   1.080868
    19  H    3.385056   3.858787   3.374116   4.988478   2.146695
                   11         12         13         14         15
    11  C    0.000000
    12  C    1.389685   0.000000
    13  H    5.152804   3.780411   0.000000
    14  H    4.169860   2.973274   1.771459   0.000000
    15  H    4.526451   3.351801   2.536619   2.459023   0.000000
    16  H    4.241982   2.987057   2.459806   3.056278   1.761439
    17  H    3.859272   3.386246   4.855064   4.251452   2.525251
    18  H    2.145631   3.388408   7.068437   5.956841   5.879596
    19  H    1.081894   2.133458   5.705290   4.737242   5.449149
                   16         17         18         19
    16  H    0.000000
    17  H    3.188778   0.000000
    18  H    5.834628   4.283283   0.000000
    19  H    5.038195   4.940945   2.487852   0.000000
 Stoichiometry    C9H7BrO2
 Framework group  C1[X(C9H7BrO2)]
 Deg. of freedom    51
 Full point group                 C1      NOp   1
 Largest Abelian subgroup         C1      NOp   1
 Largest concise Abelian subgroup C1      NOp   1
                         Standard orientation:                         
 ---------------------------------------------------------------------
 Center     Atomic      Atomic             Coordinates (Angstroms)
 Number     Number       Type             X           Y           Z
 ---------------------------------------------------------------------
      1          8           0       -3.331901    1.885234   -0.225017
      2          6           0       -2.854776    0.797941   -0.068330
      3          8           0       -3.662999   -0.273997    0.028617
      4          6           0       -3.120143   -1.521715    0.459800
      5          6           0       -1.852047   -1.870697   -0.288894
      6          6           0       -0.874939   -0.741721   -0.141779
      7          6           0        0.498647   -0.936394   -0.139498
      8          6           0        1.340758    0.153195   -0.001053
      9         35           0        3.211811   -0.123427    0.012241
     10          6           0        0.842795    1.441648    0.131283
     11          6           0       -0.525361    1.631977    0.120176
     12          6           0       -1.384917    0.547987   -0.011561
     13          1           0       -3.907533   -2.251965    0.285399
     14          1           0       -2.926537   -1.469372    1.535704
     15          1           0       -1.437976   -2.801481    0.101666
     16          1           0       -2.080394   -2.031969   -1.346719
     17          1           0        0.908478   -1.932916   -0.239860
     18          1           0        1.516693    2.279957    0.237939
     19          1           0       -0.947006    2.624467    0.207773
 ---------------------------------------------------------------------
 Rotational constants (GHZ):           1.9507678           0.3220704           0.2794050
 Standard basis: def2TZVP (5D, 7F)
 There are   493 symmetry adapted cartesian basis functions of A   symmetry.
 There are   431 symmetry adapted basis functions of A   symmetry.
   431 basis functions,   731 primitive gaussians,   493 cartesian basis functions
    56 alpha electrons       56 beta electrons
       nuclear repulsion energy       915.5128193526 Hartrees.
 NAtoms=   19 NActive=   19 NUniq=   19 SFac= 1.00D+00 NAtFMM=   60 NAOKFM=F Big=F
 Integral buffers will be    131072 words long.
 Raffenetti 2 integral format.
 Two-electron integral symmetry is turned on.
 Nuclear repulsion after empirical dispersion term =      915.5014096978 Hartrees.
 One-electron integrals computed using PRISM.
   1 Symmetry operations used in ECPInt.
 ECPInt:  NShTT=   13695 NPrTT=   45780 LenC2=   12912 LenP2D=   32161.
 LDataN:  DoStor=T MaxTD1= 6 Len=  172
 NBasis=   431 RedAO= T EigKep=  5.79D-06  NBF=   431
 NBsUse=   431 1.00D-06 EigRej= -1.00D+00 NBFU=   431
 ExpMin= 9.52D-02 ExpMax= 5.65D+05 ExpMxC= 5.46D+03 IAcc=3 IRadAn=         5 AccDes= 0.00D+00
 Harris functional with IExCor= 4639 and IRadAn=       5 diagonalized for initial guess.
 HarFok:  IExCor= 4639 AccDes= 0.00D+00 IRadAn=         5 IDoV= 1 UseB2=F ITyADJ=14
 ICtDFT=  3500011 ScaDFX=  1.000000  1.000000  1.000000  1.000000
 FoFCou: FMM=F IPFlag=           0 FMFlag=      100000 FMFlg1=           0
         NFxFlg=           0 DoJE=T BraDBF=F KetDBF=T FulRan=T
         wScrn=  0.000000 ICntrl=       500 IOpCl=  0 I1Cent=   200000004 NGrid=           0
         NMat0=    1 NMatS0=      1 NMatT0=    0 NMatD0=    1 NMtDS0=    0 NMtDT0=    0
 Petite list used in FoFCou.
 Requested convergence on RMS density matrix=1.00D-08 within 128 cycles.
 Requested convergence on MAX density matrix=1.00D-06.
 Requested convergence on             energy=1.00D-06.
 No special actions if energy rises.
 Integral accuracy reduced to 1.0D-05 until final iterations.
 Problem detected with inexpensive integrals.
 Switching to full accuracy and repeating last cycle.
 SCF Done:  E(RwB97XD) =  -3071.87321388     A.U. after   18 cycles
            NFock= 18  Conv=0.60D-08     -V/T= 2.0019

 **********************************************************************

            Population analysis using the SCF Density.

 **********************************************************************

 Orbital symmetries:
       Occupied  (A) (A) (A) (A) (A) (A) (A) (A) (A) (A) (A) (A)
                 (A) (A) (A) (A) (A) (A) (A) (A) (A) (A) (A) (A)
                 (A) (A) (A) (A) (A) (A) (A) (A) (A) (A) (A) (A)
                 (A) (A) (A) (A) (A) (A) (A) (A) (A) (A) (A) (A)
                 (A) (A) (A) (A) (A) (A) (A) (A)
       Virtual   (A) (A) (A) (A) (A) (A) (A) (A) (A) (A) (A) (A)
                 (A) (A) (A) (A) (A) (A) (A) (A) (A) (A) (A) (A)
                 (A) (A) (A) (A) (A) (A) (A) (A) (A) (A) (A) (A)
                 (A) (A) (A) (A) (A) (A) (A) (A) (A) (A) (A) (A)
                 (A) (A) (A) (A) (A) (A) (A) (A) (A) (A) (A) (A)
                 (A) (A) (A) (A) (A) (A) (A) (A) (A) (A) (A) (A)
                 (A) (A) (A) (A) (A) (A) (A) (A) (A) (A) (A) (A)
                 (A) (A) (A) (A) (A) (A) (A) (A) (A) (A) (A) (A)
                 (A) (A) (A) (A) (A) (A) (A) (A) (A) (A) (A) (A)
                 (A) (A) (A) (A) (A) (A) (A) (A) (A) (A) (A) (A)
                 (A) (A) (A) (A) (A) (A) (A) (A) (A) (A) (A) (A)
                 (A) (A) (A) (A) (A) (A) (A) (A) (A) (A) (A) (A)
                 (A) (A) (A) (A) (A) (A) (A) (A) (A) (A) (A) (A)
                 (A) (A) (A) (A) (A) (A) (A) (A) (A) (A) (A) (A)
                 (A) (A) (A) (A) (A) (A) (A) (A) (A) (A) (A) (A)
                 (A) (A) (A) (A) (A) (A) (A) (A) (A) (A) (A) (A)
                 (A) (A) (A) (A) (A) (A) (A) (A) (A) (A) (A) (A)
                 (A) (A) (A) (A) (A) (A) (A) (A) (A) (A) (A) (A)
                 (A) (A) (A) (A) (A) (A) (A) (A) (A) (A) (A) (A)
                 (A) (A) (A) (A) (A) (A) (A) (A) (A) (A) (A) (A)
                 (A) (A) (A) (A) (A) (A) (A) (A) (A) (A) (A) (A)
                 (A) (A) (A) (A) (A) (A) (A) (A) (A) (A) (A) (A)
                 (A) (A) (A) (A) (A) (A) (A) (A) (A) (A) (A) (A)
                 (A) (A) (A) (A) (A) (A) (A) (A) (A) (A) (A) (A)
                 (A) (A) (A) (A) (A) (A) (A) (A) (A) (A) (A) (A)
                 (A) (A) (A) (A) (A) (A) (A) (A) (A) (A) (A) (A)
                 (A) (A) (A) (A) (A) (A) (A) (A) (A) (A) (A) (A)
                 (A) (A) (A) (A) (A) (A) (A) (A) (A) (A) (A) (A)
                 (A) (A) (A) (A) (A) (A) (A) (A) (A) (A) (A) (A)
                 (A) (A) (A) (A) (A) (A) (A) (A) (A) (A) (A) (A)
                 (A) (A) (A) (A) (A) (A) (A) (A) (A) (A) (A) (A)
                 (A) (A) (A)
 The electronic state is 1-A.
 Alpha  occ. eigenvalues -- -483.14218 -62.69059 -56.48176 -56.47822 -56.47809
 Alpha  occ. eigenvalues --  -19.30092 -19.23365 -10.42116 -10.36749 -10.36215
 Alpha  occ. eigenvalues --  -10.33146 -10.31894 -10.31724 -10.31701 -10.31584
 Alpha  occ. eigenvalues --  -10.31442  -8.83177  -6.65338  -6.64199  -6.64156
 Alpha  occ. eigenvalues --   -2.75732  -2.75397  -2.75366  -2.74444  -2.74444
 Alpha  occ. eigenvalues --   -1.21683  -1.13142  -1.00695  -0.94055  -0.91055
 Alpha  occ. eigenvalues --   -0.86614  -0.85561  -0.78256  -0.73982  -0.71739
 Alpha  occ. eigenvalues --   -0.65899  -0.64715  -0.60803  -0.59715  -0.56595
 Alpha  occ. eigenvalues --   -0.55109  -0.54502  -0.53432  -0.52551  -0.51889
 Alpha  occ. eigenvalues --   -0.50295  -0.47826  -0.47545  -0.45146  -0.42789
 Alpha  occ. eigenvalues --   -0.41236  -0.39178  -0.38584  -0.36667  -0.35601
 Alpha  occ. eigenvalues --   -0.33662
 Alpha virt. eigenvalues --   -0.00040   0.02948   0.06232   0.09885   0.11405
 Alpha virt. eigenvalues --    0.13556   0.14205   0.14815   0.15894   0.16671
 Alpha virt. eigenvalues --    0.17232   0.18955   0.19759   0.21179   0.21933
 Alpha virt. eigenvalues --    0.22984   0.23806   0.25199   0.25880   0.27109
 Alpha virt. eigenvalues --    0.27246   0.28317   0.28768   0.29668   0.29838
 Alpha virt. eigenvalues --    0.31292   0.31790   0.32161   0.33497   0.34284
 Alpha virt. eigenvalues --    0.35014   0.35612   0.35782   0.37086   0.37577
 Alpha virt. eigenvalues --    0.38409   0.39380   0.39593   0.40835   0.42015
 Alpha virt. eigenvalues --    0.43251   0.43567   0.44231   0.45029   0.45751
 Alpha virt. eigenvalues --    0.47026   0.47428   0.48015   0.49011   0.49533
 Alpha virt. eigenvalues --    0.50459   0.50836   0.51645   0.52219   0.53635
 Alpha virt. eigenvalues --    0.54900   0.57863   0.58153   0.58333   0.58922
 Alpha virt. eigenvalues --    0.59821   0.61379   0.62119   0.62369   0.63576
 Alpha virt. eigenvalues --    0.66146   0.66473   0.68980   0.70159   0.72792
 Alpha virt. eigenvalues --    0.73465   0.73582   0.75281   0.76135   0.76583
 Alpha virt. eigenvalues --    0.77164   0.77747   0.79394   0.81006   0.82422
 Alpha virt. eigenvalues --    0.83487   0.84655   0.85685   0.87401   0.88060
 Alpha virt. eigenvalues --    0.89394   0.89777   0.92379   0.92568   0.93472
 Alpha virt. eigenvalues --    0.96184   0.96624   0.97398   0.98318   0.99777
 Alpha virt. eigenvalues --    1.01975   1.03782   1.04233   1.06586   1.07432
 Alpha virt. eigenvalues --    1.09400   1.10312   1.12553   1.15511   1.15804
 Alpha virt. eigenvalues --    1.18385   1.18848   1.21494   1.22360   1.23559
 Alpha virt. eigenvalues --    1.24872   1.26756   1.28154   1.29352   1.30170
 Alpha virt. eigenvalues --    1.31807   1.32710   1.35860   1.37054   1.38573
 Alpha virt. eigenvalues --    1.40539   1.42168   1.42864   1.44479   1.45113
 Alpha virt. eigenvalues --    1.45945   1.49118   1.50537   1.51049   1.53002
 Alpha virt. eigenvalues --    1.53359   1.55312   1.56545   1.56947   1.58455
 Alpha virt. eigenvalues --    1.60922   1.61191   1.61782   1.62642   1.63065
 Alpha virt. eigenvalues --    1.63588   1.65428   1.67316   1.68342   1.68750
 Alpha virt. eigenvalues --    1.69679   1.70008   1.71871   1.73041   1.74806
 Alpha virt. eigenvalues --    1.77719   1.78431   1.79020   1.79561   1.80851
 Alpha virt. eigenvalues --    1.82368   1.84033   1.86386   1.87843   1.89421
 Alpha virt. eigenvalues --    1.91920   1.93218   1.94013   1.95305   1.96437
 Alpha virt. eigenvalues --    1.98407   1.99507   2.00358   2.01054   2.04908
 Alpha virt. eigenvalues --    2.05624   2.07412   2.09855   2.11965   2.12832
 Alpha virt. eigenvalues --    2.15511   2.16485   2.20954   2.21702   2.22189
 Alpha virt. eigenvalues --    2.24381   2.25627   2.26817   2.28469   2.30579
 Alpha virt. eigenvalues --    2.34720   2.36066   2.37452   2.40665   2.42412
 Alpha virt. eigenvalues --    2.42603   2.44196   2.46370   2.49565   2.52248
 Alpha virt. eigenvalues --    2.53196   2.56097   2.56745   2.58383   2.60669
 Alpha virt. eigenvalues --    2.63181   2.65795   2.66171   2.68227   2.69737
 Alpha virt. eigenvalues --    2.70315   2.71158   2.72618   2.74071   2.76879
 Alpha virt. eigenvalues --    2.77244   2.78877   2.79250   2.81255   2.82142
 Alpha virt. eigenvalues --    2.84832   2.85946   2.88149   2.89063   2.91184
 Alpha virt. eigenvalues --    2.91748   2.93412   2.94165   2.94600   2.96368
 Alpha virt. eigenvalues --    2.97304   2.98236   3.01187   3.02032   3.04173
 Alpha virt. eigenvalues --    3.04907   3.07634   3.09959   3.11040   3.11465
 Alpha virt. eigenvalues --    3.12403   3.14109   3.16148   3.17442   3.18917
 Alpha virt. eigenvalues --    3.19803   3.21933   3.22947   3.25008   3.25758
 Alpha virt. eigenvalues --    3.26541   3.27141   3.28098   3.28875   3.30437
 Alpha virt. eigenvalues --    3.31807   3.34310   3.35772   3.36596   3.38141
 Alpha virt. eigenvalues --    3.39661   3.40835   3.41650   3.42896   3.43324
 Alpha virt. eigenvalues --    3.44965   3.46096   3.48210   3.49913   3.50811
 Alpha virt. eigenvalues --    3.51647   3.53242   3.54169   3.56033   3.58732
 Alpha virt. eigenvalues --    3.59731   3.61042   3.62471   3.63010   3.63917
 Alpha virt. eigenvalues --    3.65002   3.67409   3.69292   3.71323   3.75097
 Alpha virt. eigenvalues --    3.76529   3.79490   3.80887   3.85246   3.87956
 Alpha virt. eigenvalues --    3.88267   3.90586   3.91570   3.95481   3.96859
 Alpha virt. eigenvalues --    4.03584   4.03665   4.06460   4.09403   4.09831
 Alpha virt. eigenvalues --    4.11445   4.12872   4.14215   4.16428   4.19596
 Alpha virt. eigenvalues --    4.23373   4.24694   4.26128   4.27872   4.30236
 Alpha virt. eigenvalues --    4.31514   4.31835   4.33490   4.36840   4.39511
 Alpha virt. eigenvalues --    4.42663   4.43789   4.46812   4.47997   4.50139
 Alpha virt. eigenvalues --    4.54031   4.55943   4.56556   4.65456   4.66514
 Alpha virt. eigenvalues --    4.68400   4.73909   4.75284   4.77001   4.80695
 Alpha virt. eigenvalues --    4.84262   4.86785   4.92206   4.94468   5.02417
 Alpha virt. eigenvalues --    5.04416   5.11772   5.21904   5.27656   5.27683
 Alpha virt. eigenvalues --    5.30645   5.33118   5.37006   5.47470   5.50489
 Alpha virt. eigenvalues --    5.54760   5.58690   5.62786   5.69389   5.81685
 Alpha virt. eigenvalues --    5.93343   5.98987   6.01814   6.14600   6.31601
 Alpha virt. eigenvalues --    6.42506   6.48297   6.54361   6.64433   6.74369
 Alpha virt. eigenvalues --    6.88132   6.92379   6.97598   7.04108   7.16766
 Alpha virt. eigenvalues --    7.28156   7.31179   7.51713   7.85303  22.14633
 Alpha virt. eigenvalues --   22.55712  22.65545  22.79497  22.87166  22.95310
 Alpha virt. eigenvalues --   23.05658  23.49415  23.68931  44.04298  44.32536
          Condensed to atoms (all electrons):
               1          2          3          4          5          6
     1  O    7.818283   0.708883  -0.086160   0.002190  -0.002450  -0.001256
     2  C    0.708883   4.515621   0.418853  -0.023412  -0.038415  -0.046418
     3  O   -0.086160   0.418853   7.899213   0.235666  -0.031300  -0.024419
     4  C    0.002190  -0.023412   0.235666   4.731984   0.331277  -0.009030
     5  C   -0.002450  -0.038415  -0.031300   0.331277   5.049261   0.262482
     6  C   -0.001256  -0.046418  -0.024419  -0.009030   0.262482   5.286429
     7  C    0.000112   0.008215   0.000385  -0.000754  -0.043352   0.297241
     8  C    0.000106  -0.006384  -0.000192   0.000377   0.009757   0.088389
     9  Br  -0.000000  -0.000039  -0.000001   0.000034  -0.000944   0.019280
    10  C    0.003600   0.017719   0.000080  -0.001067  -0.001319  -0.118679
    11  C    0.041214  -0.062371   0.015215   0.001280   0.010211   0.002591
    12  C   -0.176887   0.157036  -0.125493  -0.017126  -0.083655   0.300245
    13  H   -0.000084   0.004228  -0.034442   0.422428  -0.048316   0.009581
    14  H    0.000672  -0.006206  -0.039458   0.410345  -0.031602  -0.001467
    15  H    0.000027   0.002470   0.003794  -0.027406   0.418373  -0.054561
    16  H   -0.000040  -0.002881   0.002562  -0.022484   0.387604  -0.025628
    17  H    0.000010   0.000519   0.000023   0.000090  -0.007288  -0.064110
    18  H   -0.000086  -0.000035  -0.000000  -0.000007   0.000100  -0.005025
    19  H    0.017447  -0.009459   0.000683  -0.000028   0.000152   0.015475
               7          8          9         10         11         12
     1  O    0.000112   0.000106  -0.000000   0.003600   0.041214  -0.176887
     2  C    0.008215  -0.006384  -0.000039   0.017719  -0.062371   0.157036
     3  O    0.000385  -0.000192  -0.000001   0.000080   0.015215  -0.125493
     4  C   -0.000754   0.000377   0.000034  -0.001067   0.001280  -0.017126
     5  C   -0.043352   0.009757  -0.000944  -0.001319   0.010211  -0.083655
     6  C    0.297241   0.088389   0.019280  -0.118679   0.002591   0.300245
     7  C    5.376133   0.328977  -0.082348   0.058485  -0.115027   0.001619
     8  C    0.328977   4.891059   0.371148   0.317373   0.104286  -0.128270
     9  Br  -0.082348   0.371148  34.819042  -0.085043   0.019008  -0.003177
    10  C    0.058485   0.317373  -0.085043   5.192533   0.298403   0.062688
    11  C   -0.115027   0.104286   0.019008   0.298403   5.200922   0.252431
    12  C    0.001619  -0.128270  -0.003177   0.062688   0.252431   5.866770
    13  H   -0.001235  -0.000027  -0.000000   0.000009   0.000102   0.004009
    14  H    0.003439   0.000074   0.000000  -0.000162   0.001186  -0.014620
    15  H    0.000943   0.000565  -0.000018   0.000319  -0.000555   0.008093
    16  H    0.007602  -0.000637   0.000011  -0.000005   0.000604  -0.014765
    17  H    0.445380  -0.059780  -0.003876   0.017000  -0.006571   0.021177
    18  H    0.017467  -0.069273  -0.005409   0.458514  -0.061591   0.013289
    19  H   -0.003582   0.010385  -0.000193  -0.056545   0.444548  -0.055076
              13         14         15         16         17         18
     1  O   -0.000084   0.000672   0.000027  -0.000040   0.000010  -0.000086
     2  C    0.004228  -0.006206   0.002470  -0.002881   0.000519  -0.000035
     3  O   -0.034442  -0.039458   0.003794   0.002562   0.000023  -0.000000
     4  C    0.422428   0.410345  -0.027406  -0.022484   0.000090  -0.000007
     5  C   -0.048316  -0.031602   0.418373   0.387604  -0.007288   0.000100
     6  C    0.009581  -0.001467  -0.054561  -0.025628  -0.064110  -0.005025
     7  C   -0.001235   0.003439   0.000943   0.007602   0.445380   0.017467
     8  C   -0.000027   0.000074   0.000565  -0.000637  -0.059780  -0.069273
     9  Br  -0.000000   0.000000  -0.000018   0.000011  -0.003876  -0.005409
    10  C    0.000009  -0.000162   0.000319  -0.000005   0.017000   0.458514
    11  C    0.000102   0.001186  -0.000555   0.000604  -0.006571  -0.061591
    12  C    0.004009  -0.014620   0.008093  -0.014765   0.021177   0.013289
    13  H    0.561864  -0.036161  -0.000329  -0.007246   0.000029   0.000000
    14  H   -0.036161   0.597261  -0.002743   0.007724  -0.000141  -0.000000
    15  H   -0.000329  -0.002743   0.546554  -0.024440   0.002280  -0.000001
    16  H   -0.007246   0.007724  -0.024440   0.566743  -0.000004  -0.000002
    17  H    0.000029  -0.000141   0.002280  -0.000004   0.520253   0.000109
    18  H    0.000000  -0.000000  -0.000001  -0.000002   0.000109   0.512276
    19  H   -0.000005   0.000064   0.000005   0.000025   0.000008  -0.005783
              19
     1  O    0.017447
     2  C   -0.009459
     3  O    0.000683
     4  C   -0.000028
     5  C    0.000152
     6  C    0.015475
     7  C   -0.003582
     8  C    0.010385
     9  Br  -0.000193
    10  C   -0.056545
    11  C    0.444548
    12  C   -0.055076
    13  H   -0.000005
    14  H    0.000064
    15  H    0.000005
    16  H    0.000025
    17  H    0.000008
    18  H   -0.005783
    19  H    0.483759
 Mulliken charges:
               1
     1  O   -0.325579
     2  C    0.362078
     3  O   -0.235010
     4  C   -0.034357
     5  C   -0.180576
     6  C    0.068879
     7  C   -0.299700
     8  C    0.142067
     9  Br  -0.047475
    10  C   -0.163900
    11  C   -0.145887
    12  C   -0.068288
    13  H    0.125594
    14  H    0.111795
    15  H    0.126630
    16  H    0.125257
    17  H    0.134893
    18  H    0.145457
    19  H    0.158121
 Sum of Mulliken charges =  -0.00000
 Mulliken charges with hydrogens summed into heavy atoms:
               1
     1  O   -0.325579
     2  C    0.362078
     3  O   -0.235010
     4  C    0.203032
     5  C    0.071311
     6  C    0.068879
     7  C   -0.164807
     8  C    0.142067
     9  Br  -0.047475
    10  C   -0.018443
    11  C    0.012233
    12  C   -0.068288
 Electronic spatial extent (au):  <R**2>=           3412.5055
 Charge=             -0.0000 electrons
 Dipole moment (field-independent basis, Debye):
    X=              1.4957    Y=             -3.5175    Z=              0.6451  Tot=              3.8763
 Quadrupole moment (field-independent basis, Debye-Ang):
   XX=            -95.3000   YY=            -76.0617   ZZ=            -81.4341
   XY=             14.2721   XZ=             -2.2822   YZ=              1.2625
 Traceless Quadrupole moment (field-independent basis, Debye-Ang):
   XX=            -11.0348   YY=              8.2036   ZZ=              2.8312
   XY=             14.2721   XZ=             -2.2822   YZ=              1.2625
 Octapole moment (field-independent basis, Debye-Ang**2):
  XXX=            138.7356  YYY=            -14.7139  ZZZ=             -0.2144  XYY=             33.8887
  XXY=            -48.4059  XXZ=              8.4848  XZZ=             19.2777  YZZ=             -2.9506
  YYZ=              3.4695  XYZ=             -1.1345
 Hexadecapole moment (field-independent basis, Debye-Ang**3):
 XXXX=          -3205.1843 YYYY=           -711.4547 ZZZZ=           -117.3352 XXXY=            144.6475
 XXXZ=            -25.3715 YYYX=             45.6497 YYYZ=              5.8152 ZZZX=              1.7954
 ZZZY=             -1.7262 XXYY=           -647.0810 XXZZ=           -513.1669 YYZZ=           -146.9698
 XXYZ=              5.2668 YYXZ=             -6.7546 ZZXY=             -3.7762
 N-N= 9.155014096978D+02 E-N=-9.143634207606D+03  KE= 3.066034565236D+03
 There are a total of      437694 grid points.
 ElSum from          density=      111.9999891107
 ElSum from atomic densities=      111.9999879706

 Hirshfeld populations at iteration   1 (CX, CA, CB, DipXYZ):
               1          2          3          4          5          6
     1  O    0.000000   4.137099   4.137099   0.063239  -0.089504   0.015676
     2  C    0.000000   2.899005   2.899005   0.001730  -0.088726   0.014619
     3  O    0.000000   4.064270   4.064270   0.117330  -0.035103   0.029896
     4  C    0.000000   2.982306   2.982306  -0.031451   0.033329  -0.021323
     5  C    0.000000   3.025910   3.025910   0.001971  -0.012385   0.002177
     6  C    0.000000   2.993816   2.993816  -0.031727  -0.054867  -0.015878
     7  C    0.000000   3.024676   3.024676  -0.004185  -0.053032  -0.011784
     8  C    0.000000   2.992812   2.992812   0.055450  -0.004797  -0.000495
     9  Br   0.000000  17.513753  17.513753  -0.041015   0.012537  -0.001507
    10  C    0.000000   3.021755   3.021755   0.017608   0.057200   0.004663
    11  C    0.000000   3.007578   3.007578  -0.018582   0.060128   0.001241
    12  C    0.000000   3.012049   3.012049  -0.055958   0.010273  -0.006113
    13  H    0.000000   0.473761   0.473761  -0.111610  -0.109412  -0.023445
    14  H    0.000000   0.479495   0.479495   0.017845  -0.004520   0.146615
    15  H    0.000000   0.475141   0.475141   0.052004  -0.134052   0.054900
    16  H    0.000000   0.475822   0.475822  -0.033899  -0.029269  -0.148071
    17  H    0.000000   0.475832   0.475832   0.043251  -0.150510  -0.016617
    18  H    0.000000   0.473754   0.473754   0.081992   0.139947   0.016589
    19  H    0.000000   0.471161   0.471161  -0.036837   0.153233   0.016595
       Tot   0.000000  55.999995  55.999995   0.087157  -0.299531   0.057738

 Dip from Atomic Chgs              0.501257  -1.084383   0.196069
         Total Dipole              0.588414  -1.383914   0.253807

 Hirshfeld charges, spin densities, dipoles, and CM5 charges using IRadAn=      5:
              Q-H        S-H        Dx         Dy         Dz        Q-CM5   
     1  O   -0.274199   0.000000   0.063239  -0.089504   0.015676  -0.318532
     2  C    0.201990   0.000000   0.001730  -0.088726   0.014619   0.263462
     3  O   -0.128540   0.000000   0.117330  -0.035103   0.029896  -0.206378
     4  C    0.035389   0.000000  -0.031451   0.033329  -0.021323  -0.045481
     5  C   -0.051820   0.000000   0.001971  -0.012385   0.002177  -0.152488
     6  C    0.012368   0.000000  -0.031727  -0.054867  -0.015878   0.001367
     7  C   -0.049353   0.000000  -0.004185  -0.053032  -0.011784  -0.100949
     8  C    0.014376   0.000000   0.055450  -0.004797  -0.000495  -0.007130
     9  Br  -0.027506   0.000000  -0.041015   0.012537  -0.001507  -0.012392
    10  C   -0.043511   0.000000   0.017608   0.057200   0.004663  -0.097383
    11  C   -0.015156   0.000000  -0.018582   0.060128   0.001241  -0.066838
    12  C   -0.024097   0.000000  -0.055958   0.010273  -0.006113  -0.025298
    13  H    0.052479   0.000000  -0.111610  -0.109412  -0.023445   0.116779
    14  H    0.041011   0.000000   0.017845  -0.004520   0.146615   0.104894
    15  H    0.049717   0.000000   0.052004  -0.134052   0.054900   0.105977
    16  H    0.048356   0.000000  -0.033899  -0.029269  -0.148071   0.105951
    17  H    0.048335   0.000000   0.043251  -0.150510  -0.016617   0.106271
    18  H    0.052492   0.000000   0.081992   0.139947   0.016589   0.109748
    19  H    0.057678   0.000000  -0.036837   0.153233   0.016595   0.118430
       Tot   0.000011   0.000000   0.087157  -0.299531   0.057738   0.000011
 Hirshfeld charges with hydrogens summed into heavy atoms:
              Q-H       Q-CM5   
     1  O   -0.274199  -0.318532
     2  C    0.201990   0.263462
     3  O   -0.128540  -0.206378
     4  C    0.128878   0.176192
     5  C    0.046254   0.059441
     6  C    0.012368   0.001367
     7  C   -0.001017   0.005322
     8  C    0.014376  -0.007130
     9  Br  -0.027506  -0.012392
    10  C    0.008981   0.012364
    11  C    0.042522   0.051592
    12  C   -0.024097  -0.025298
 
 EQQ= 0.000000000000E+00 EQD= 0.000000000000E+00 EDD= 0.431176278471E-02
 EQQ+QD+DD= 0.431176278471E-02
 
 Running external command "gaunbo6 R"
         input file       "/home/rpaton/opt/tzvp/popn/Gau-2141185.EIn"
         output file      "/home/rpaton/opt/tzvp/popn/Gau-2141185.EOu"
         message file     "/home/rpaton/opt/tzvp/popn/Gau-2141185.EMs"
         fchk file        "/home/rpaton/opt/tzvp/popn/Gau-2141185.EFC"
         mat. el file     "/home/rpaton/opt/tzvp/popn/Gau-2141185.EUF"

 Writing WrtUnf unformatted file "/home/rpaton/opt/tzvp/popn/Gau-2141185.EUF"
 Gaussian matrix elements                                         Version   2 NLab=11 Len12L=8 Len4L=8
 Write SHELL TO ATOM MAP                   from file      0 offset           0 length                 165 to matrix element file.
 Write SHELL TYPES                         from file      0 offset           0 length                 165 to matrix element file.
 Write NUMBER OF PRIMITIVES PER SHELL      from file      0 offset           0 length                 165 to matrix element file.
 Write PRIMITIVE EXPONENTS                 from file      0 offset           0 length                 301 to matrix element file.
 Write CONTRACTION COEFFICIENTS            from file      0 offset           0 length                 301 to matrix element file.
 Write P(S=P) CONTRACTION COEFFICIENTS     from file      0 offset           0 length                 301 to matrix element file.
 Write COORDINATES OF EACH SHELL           from file      0 offset           0 length                 495 to matrix element file.
 Write BONDS PER ATOM                      from file      0 offset           0 length                  19 to matrix element file.
 Write BONDED ATOMS                        from file      0 offset           0 length                  40 to matrix element file.
 Write BOND TYPES                          from file      0 offset           0 length                  40 to matrix element file.
 Write ONIOM CHARGE/MULT                   from file      0 offset           0 length                  32 to matrix element file.
 Write ONIOM ATOM LAYERS                   from file      0 offset           0 length                  19 to matrix element file.
 Write ONIOM ATOM MODIFIERS                from file      0 offset           0 length                  19 to matrix element file.
 Write ONIOM ATOM TYPES                    from file      0 offset           0 length                  19 to matrix element file.
 Write ONIOM LINK ATOMS                    from file      0 offset           0 length                  19 to matrix element file.
 Write ONIOM LINK CHARGES                  from file      0 offset           0 length                  19 to matrix element file.
 Write ONIOM LINK DISTANCES                from file      0 offset           0 length                  76 to matrix element file.
 Write SYMINF INTS                         from file      0 offset           0 length                  26 to matrix element file.
 Write ROTTR TO SO                         from file      0 offset           0 length                  12 to matrix element file.
 Write GAUSSIAN SCALARS                    from file    501 offset           0 to matrix element file.
 Write OPTIMIZATION FLAGS                  from file      0 offset           0 length                  19 to matrix element file.
 Write INTEGER ISO                         from file      0 offset           0 length                  19 to matrix element file.
 Write INTEGER SPIN                        from file      0 offset           0 length                  19 to matrix element file.
 Write REAL ZEFFECTIVE                     from file      0 offset           0 length                  19 to matrix element file.
 Write REAL QUADRUPOLEMOMENT               from file      0 offset           0 length                  19 to matrix element file.
 Write REAL GFACTOR                        from file      0 offset           0 length                  19 to matrix element file.
 Write REAL ZNUCLEAR                       from file      0 offset           0 length                  19 to matrix element file.
 Write MULLIKEN CHARGES                    from file      0 offset           0 length                  19 to matrix element file.
 Write TYPE 6 CHARGES                      from file      0 offset           0 length                  19 to matrix element file.
 Write TYPE 7 CHARGES                      from file      0 offset           0 length                  19 to matrix element file.
 Write NUCLEAR GRADIENT                    from file  10584 offset           0 length                  57 to matrix element file.
 Array NUCLEAR FORCE CONSTANTS              on  file  10585 does not exist.
 Write ELECTRIC DIPOLE MOMENT              from file      0 offset           0 length                   3 to matrix element file.
 Write NON-ADIABATIC COUPLING              from file  10810 offset           0 length                  57 to matrix element file.
 Write FINITE EM FIELD                     from file  10521 offset           0 length                  35 to matrix element file.
 Write OVERLAP                             from file  10514 offset           0 length               93096 to matrix element file.
 Write CORE HAMILTONIAN ALPHA              from file  10515 offset           0 length               93096 to matrix element file.
 Write CORE HAMILTONIAN BETA               from file  10515 offset       93096 length               93096 to matrix element file.
 Write KINETIC ENERGY                      from file  10516 offset           0 length               93096 to matrix element file.
 Write ORTHOGONAL BASIS                    from file  10685 offset           0 length              185761 to matrix element file.
 Write DIPOLE INTEGRALS                    from file  10518 offset           0 length              279288 to matrix element file.
 Array DIP VEL INTEGRALS                    on  file  10572 does not exist.
 Array R X DEL INTEGRALS                    on  file  10572 does not exist.
 Write ALPHA ORBITAL ENERGIES              from file      0 offset           0 length                 431 to matrix element file.
 Write ALPHA MO COEFFICIENTS               from file  10524 offset           0 length              185761 to matrix element file.
 Write ALPHA DENSITY MATRIX                from file      0 offset           0 length               93096 to matrix element file.
 Write ALPHA FOCK MATRIX                   from file  10536 offset           0 length               93096 to matrix element file.
 Write ENERGY-WEIGHTED DENSITY             from file  10571 offset           0 length               93096 to matrix element file.
 Write ALPHA SCF DENSITY MATRIX            from file      0 offset           0 length               93096 to matrix element file.
 Write INTEGER PARAMETERS                  from file      0 offset           0 length                   2 to matrix element file.
 No 2e integrals to process.
 Perform NBO analysis...

 *********************************** NBO 7.0 ***********************************
             N A T U R A L   A T O M I C   O R B I T A L   A N D
          N A T U R A L   B O N D   O R B I T A L   A N A L Y S I S
 **************************** Robert Paton (I101709) ***************************
  (c) Copyright 1996-2019 Board of Regents of the University of Wisconsin System
      on behalf of the Theoretical Chemistry Institute.  All rights reserved.

          Cite this program [NBO 7.0.5 (4-Jun-2019)] as:

          NBO 7.0.  E. D. Glendening, J. K. Badenhoop, A. E. Reed,
          J. E. Carpenter, J. A. Bohmann, C. M. Morales, P. Karafiloglou,
          C. R. Landis, and F. Weinhold, Theoretical Chemistry Institute,
          University of Wisconsin, Madison, WI (2018)

       /AONBO  / : Checkpoint the AO to NBO transformation
                   NBOs sorted by occupancy
       /BNDIDX / : Print bond indices based on the NAO density matrix

 Filename set to /home/rpaton/opt/tzvp/popn/Gau-2141185

 Job title:  arbr32_wb97xd_popncreated by GaussianPrep


 NATURAL POPULATIONS:  Natural atomic orbital occupancies

  NAO Atom No lang   Type(AO)    Occupancy      Energy
 -------------------------------------------------------
   1    O  1  s      Cor( 1s)     1.99999     -19.23335
   2    O  1  s      Val( 2s)     1.69713      -0.73297
   3    O  1  s      Ryd( 3s)     0.00026       1.24139
   4    O  1  s      Ryd( 4s)     0.00002       8.21742
   5    O  1  s      Ryd( 5s)     0.00000      38.71433
   6    O  1  px     Val( 2p)     1.79370      -0.32860
   7    O  1  px     Ryd( 3p)     0.00191       0.80509
   8    O  1  px     Ryd( 4p)     0.00005       3.44177
   9    O  1  py     Val( 2p)     1.59298      -0.31737
  10    O  1  py     Ryd( 3p)     0.00110       0.71338
  11    O  1  py     Ryd( 4p)     0.00015       3.91173
  12    O  1  pz     Val( 2p)     1.44277      -0.28809
  13    O  1  pz     Ryd( 3p)     0.00107       0.71759
  14    O  1  pz     Ryd( 4p)     0.00001       3.02770
  15    O  1  dxy    Ryd( 3d)     0.00569       2.17002
  16    O  1  dxy    Ryd( 4d)     0.00001       6.84262
  17    O  1  dxz    Ryd( 3d)     0.00128       1.74141
  18    O  1  dxz    Ryd( 4d)     0.00001       6.45511
  19    O  1  dyz    Ryd( 3d)     0.00454       1.92182
  20    O  1  dyz    Ryd( 4d)     0.00001       6.62147
  21    O  1  dx2y2  Ryd( 3d)     0.00604       2.18473
  22    O  1  dx2y2  Ryd( 4d)     0.00002       6.85249
  23    O  1  dz2    Ryd( 3d)     0.00240       1.90071
  24    O  1  dz2    Ryd( 4d)     0.00000       6.65233
  25    O  1  f(0)   Ryd( 4f)     0.00004       5.57813
  26    O  1  f(c1)  Ryd( 4f)     0.00001       5.42134
  27    O  1  f(s1)  Ryd( 4f)     0.00004       5.84559
  28    O  1  f(c2)  Ryd( 4f)     0.00006       5.69220
  29    O  1  f(s2)  Ryd( 4f)     0.00008       5.69476
  30    O  1  f(c3)  Ryd( 4f)     0.00011       6.11964
  31    O  1  f(s3)  Ryd( 4f)     0.00018       6.25848

  32    C  2  s      Cor( 1s)     1.99999     -10.42104
  33    C  2  s      Val( 2s)     0.79840      -0.09101
  34    C  2  s      Ryd( 3s)     0.00593       1.85222
  35    C  2  s      Ryd( 4s)     0.00028       3.53422
  36    C  2  s      Ryd( 5s)     0.00000      18.65262
  37    C  2  px     Val( 2p)     0.89007      -0.01273
  38    C  2  px     Ryd( 4p)     0.00756       1.37837
  39    C  2  px     Ryd( 3p)     0.00019       1.28280
  40    C  2  py     Val( 2p)     0.75021       0.03762
  41    C  2  py     Ryd( 4p)     0.01056       1.42105
  42    C  2  py     Ryd( 3p)     0.00014       1.05091
  43    C  2  pz     Val( 2p)     0.76421      -0.11203
  44    C  2  pz     Ryd( 4p)     0.00096       1.03506
  45    C  2  pz     Ryd( 3p)     0.00019       0.89342
  46    C  2  dxy    Ryd( 4d)     0.00136       3.83410
  47    C  2  dxy    Ryd( 3d)     0.00063       3.23697
  48    C  2  dxz    Ryd( 4d)     0.00081       2.66681
  49    C  2  dxz    Ryd( 3d)     0.00007       2.24590
  50    C  2  dyz    Ryd( 4d)     0.00257       2.82827
  51    C  2  dyz    Ryd( 3d)     0.00041       2.23086
  52    C  2  dx2y2  Ryd( 4d)     0.00172       3.70825
  53    C  2  dx2y2  Ryd( 3d)     0.00041       3.06593
  54    C  2  dz2    Ryd( 4d)     0.00035       3.28235
  55    C  2  dz2    Ryd( 3d)     0.00025       2.56906
  56    C  2  f(0)   Ryd( 4f)     0.00020       3.45073
  57    C  2  f(c1)  Ryd( 4f)     0.00013       3.48842
  58    C  2  f(s1)  Ryd( 4f)     0.00013       3.51135
  59    C  2  f(c2)  Ryd( 4f)     0.00002       3.45571
  60    C  2  f(s2)  Ryd( 4f)     0.00002       3.52320
  61    C  2  f(c3)  Ryd( 4f)     0.00031       3.99876
  62    C  2  f(s3)  Ryd( 4f)     0.00012       4.25178

  63    O  3  s      Cor( 1s)     1.99999     -19.30080
  64    O  3  s      Val( 2s)     1.60864      -0.79027
  65    O  3  s      Ryd( 3s)     0.00136       1.97953
  66    O  3  s      Ryd( 4s)     0.00007       6.84002
  67    O  3  s      Ryd( 5s)     0.00000      39.67093
  68    O  3  px     Val( 2p)     1.71847      -0.39478
  69    O  3  px     Ryd( 3p)     0.00213       0.75646
  70    O  3  px     Ryd( 4p)     0.00028       3.54802
  71    O  3  py     Val( 2p)     1.35078      -0.31595
  72    O  3  py     Ryd( 3p)     0.00161       1.10493
  73    O  3  py     Ryd( 4p)     0.00008       3.87387
  74    O  3  pz     Val( 2p)     1.76754      -0.39736
  75    O  3  pz     Ryd( 3p)     0.00274       0.75941
  76    O  3  pz     Ryd( 4p)     0.00006       2.98715
  77    O  3  dxy    Ryd( 3d)     0.00575       2.39935
  78    O  3  dxy    Ryd( 4d)     0.00004       6.72490
  79    O  3  dxz    Ryd( 3d)     0.00340       1.88260
  80    O  3  dxz    Ryd( 4d)     0.00002       6.54639
  81    O  3  dyz    Ryd( 3d)     0.00081       2.09796
  82    O  3  dyz    Ryd( 4d)     0.00005       6.64185
  83    O  3  dx2y2  Ryd( 3d)     0.00206       2.38506
  84    O  3  dx2y2  Ryd( 4d)     0.00005       6.77607
  85    O  3  dz2    Ryd( 3d)     0.00260       2.05062
  86    O  3  dz2    Ryd( 4d)     0.00001       6.67586
  87    O  3  f(0)   Ryd( 4f)     0.00009       5.57574
  88    O  3  f(c1)  Ryd( 4f)     0.00003       5.47542
  89    O  3  f(s1)  Ryd( 4f)     0.00008       5.73868
  90    O  3  f(c2)  Ryd( 4f)     0.00004       5.56012
  91    O  3  f(s2)  Ryd( 4f)     0.00004       5.79522
  92    O  3  f(c3)  Ryd( 4f)     0.00009       6.09535
  93    O  3  f(s3)  Ryd( 4f)     0.00005       6.16283

  94    C  4  s      Cor( 1s)     1.99999     -10.36204
  95    C  4  s      Val( 2s)     1.03415      -0.24699
  96    C  4  s      Ryd( 3s)     0.00177       1.51114
  97    C  4  s      Ryd( 4s)     0.00003       1.86140
  98    C  4  s      Ryd( 5s)     0.00000      21.40314
  99    C  4  px     Val( 2p)     1.05334      -0.11564
 100    C  4  px     Ryd( 3p)     0.00338       1.10099
 101    C  4  px     Ryd( 4p)     0.00032       1.36632
 102    C  4  py     Val( 2p)     0.85157      -0.09370
 103    C  4  py     Ryd( 3p)     0.00273       1.06781
 104    C  4  py     Ryd( 4p)     0.00017       1.26501
 105    C  4  pz     Val( 2p)     1.11276      -0.13569
 106    C  4  pz     Ryd( 3p)     0.00063       1.01830
 107    C  4  pz     Ryd( 4p)     0.00016       1.22319
 108    C  4  dxy    Ryd( 3d)     0.00125       2.24404
 109    C  4  dxy    Ryd( 4d)     0.00028       3.39668
 110    C  4  dxz    Ryd( 3d)     0.00107       2.13351
 111    C  4  dxz    Ryd( 4d)     0.00020       3.13286
 112    C  4  dyz    Ryd( 3d)     0.00116       1.93467
 113    C  4  dyz    Ryd( 4d)     0.00010       2.94053
 114    C  4  dx2y2  Ryd( 3d)     0.00086       2.13979
 115    C  4  dx2y2  Ryd( 4d)     0.00020       3.13949
 116    C  4  dz2    Ryd( 3d)     0.00142       2.12902
 117    C  4  dz2    Ryd( 4d)     0.00012       3.29946
 118    C  4  f(0)   Ryd( 4f)     0.00026       3.82304
 119    C  4  f(c1)  Ryd( 4f)     0.00007       3.59043
 120    C  4  f(s1)  Ryd( 4f)     0.00001       3.50283
 121    C  4  f(c2)  Ryd( 4f)     0.00003       3.48387
 122    C  4  f(s2)  Ryd( 4f)     0.00003       3.57344
 123    C  4  f(c3)  Ryd( 4f)     0.00013       3.77332
 124    C  4  f(s3)  Ryd( 4f)     0.00012       3.77725

 125    C  5  s      Cor( 1s)     1.99999     -10.31708
 126    C  5  s      Val( 2s)     1.05425      -0.23531
 127    C  5  s      Ryd( 3s)     0.00087       1.50487
 128    C  5  s      Ryd( 4s)     0.00002       2.91556
 129    C  5  s      Ryd( 5s)     0.00000      20.39726
 130    C  5  px     Val( 2p)     1.06145      -0.11123
 131    C  5  px     Ryd( 3p)     0.00143       1.01002
 132    C  5  px     Ryd( 4p)     0.00015       1.52827
 133    C  5  py     Val( 2p)     1.13975      -0.13230
 134    C  5  py     Ryd( 3p)     0.00161       0.91660
 135    C  5  py     Ryd( 4p)     0.00023       1.54112
 136    C  5  pz     Val( 2p)     1.18601      -0.14596
 137    C  5  pz     Ryd( 3p)     0.00066       0.94992
 138    C  5  pz     Ryd( 4p)     0.00011       1.49129
 139    C  5  dxy    Ryd( 3d)     0.00131       2.22025
 140    C  5  dxy    Ryd( 4d)     0.00012       3.86963
 141    C  5  dxz    Ryd( 3d)     0.00113       1.86833
 142    C  5  dxz    Ryd( 4d)     0.00007       3.39854
 143    C  5  dyz    Ryd( 3d)     0.00089       1.73886
 144    C  5  dyz    Ryd( 4d)     0.00012       3.21186
 145    C  5  dx2y2  Ryd( 3d)     0.00051       1.95281
 146    C  5  dx2y2  Ryd( 4d)     0.00027       3.51372
 147    C  5  dz2    Ryd( 3d)     0.00143       1.98522
 148    C  5  dz2    Ryd( 4d)     0.00007       3.62498
 149    C  5  f(0)   Ryd( 4f)     0.00031       3.74057
 150    C  5  f(c1)  Ryd( 4f)     0.00010       3.56813
 151    C  5  f(s1)  Ryd( 4f)     0.00005       3.42754
 152    C  5  f(c2)  Ryd( 4f)     0.00004       3.50070
 153    C  5  f(s2)  Ryd( 4f)     0.00006       3.56010
 154    C  5  f(c3)  Ryd( 4f)     0.00025       3.77509
 155    C  5  f(s3)  Ryd( 4f)     0.00011       3.69996

 156    C  6  s      Cor( 1s)     1.99999     -10.33130
 157    C  6  s      Val( 2s)     0.90870      -0.11638
 158    C  6  s      Ryd( 3s)     0.00094       1.47741
 159    C  6  s      Ryd( 4s)     0.00017       2.11581
 160    C  6  s      Ryd( 5s)     0.00000      20.08792
 161    C  6  px     Val( 2p)     1.04753      -0.03828
 162    C  6  px     Ryd( 3p)     0.00325       1.33462
 163    C  6  px     Ryd( 4p)     0.00020       2.27395
 164    C  6  py     Val( 2p)     1.03073      -0.03919
 165    C  6  py     Ryd( 3p)     0.00413       1.25794
 166    C  6  py     Ryd( 4p)     0.00014       2.14156
 167    C  6  pz     Val( 2p)     0.95920      -0.12865
 168    C  6  pz     Ryd( 3p)     0.00162       0.77697
 169    C  6  pz     Ryd( 4p)     0.00008       1.43122
 170    C  6  dxy    Ryd( 3d)     0.00072       3.04897
 171    C  6  dxy    Ryd( 4d)     0.00073       4.24028
 172    C  6  dxz    Ryd( 3d)     0.00028       1.97956
 173    C  6  dxz    Ryd( 4d)     0.00022       3.23057
 174    C  6  dyz    Ryd( 3d)     0.00030       2.00781
 175    C  6  dyz    Ryd( 4d)     0.00022       3.17416
 176    C  6  dx2y2  Ryd( 3d)     0.00086       3.23371
 177    C  6  dx2y2  Ryd( 4d)     0.00060       4.24445
 178    C  6  dz2    Ryd( 3d)     0.00094       3.23891
 179    C  6  dz2    Ryd( 4d)     0.00006       3.66651
 180    C  6  f(0)   Ryd( 4f)     0.00042       3.35467
 181    C  6  f(c1)  Ryd( 4f)     0.00046       3.45797
 182    C  6  f(s1)  Ryd( 4f)     0.00040       3.40554
 183    C  6  f(c2)  Ryd( 4f)     0.00003       3.38752
 184    C  6  f(s2)  Ryd( 4f)     0.00006       3.42991
 185    C  6  f(c3)  Ryd( 4f)     0.00050       3.98183
 186    C  6  f(s3)  Ryd( 4f)     0.00021       3.98473

 187    C  7  s      Cor( 1s)     1.99999     -10.31690
 188    C  7  s      Val( 2s)     0.96958      -0.14728
 189    C  7  s      Ryd( 3s)     0.00095       1.81598
 190    C  7  s      Ryd( 4s)     0.00013       2.21183
 191    C  7  s      Ryd( 5s)     0.00000      20.11926
 192    C  7  px     Val( 2p)     1.06887      -0.05709
 193    C  7  px     Ryd( 3p)     0.00441       1.03930
 194    C  7  px     Ryd( 4p)     0.00028       1.94151
 195    C  7  py     Val( 2p)     1.17212      -0.09793
 196    C  7  py     Ryd( 3p)     0.00378       1.17967
 197    C  7  py     Ryd( 4p)     0.00018       1.98179
 198    C  7  pz     Val( 2p)     1.01391      -0.13957
 199    C  7  pz     Ryd( 3p)     0.00122       0.70210
 200    C  7  pz     Ryd( 4p)     0.00017       1.35236
 201    C  7  dxy    Ryd( 3d)     0.00149       2.42183
 202    C  7  dxy    Ryd( 4d)     0.00037       3.91925
 203    C  7  dxz    Ryd( 3d)     0.00020       1.70866
 204    C  7  dxz    Ryd( 4d)     0.00014       3.10518
 205    C  7  dyz    Ryd( 3d)     0.00051       1.55178
 206    C  7  dyz    Ryd( 4d)     0.00006       2.97082
 207    C  7  dx2y2  Ryd( 3d)     0.00184       2.35909
 208    C  7  dx2y2  Ryd( 4d)     0.00023       3.89668
 209    C  7  dz2    Ryd( 3d)     0.00126       2.00864
 210    C  7  dz2    Ryd( 4d)     0.00002       3.50520
 211    C  7  f(0)   Ryd( 4f)     0.00052       3.23648
 212    C  7  f(c1)  Ryd( 4f)     0.00039       3.45797
 213    C  7  f(s1)  Ryd( 4f)     0.00051       3.35641
 214    C  7  f(c2)  Ryd( 4f)     0.00004       3.31894
 215    C  7  f(s2)  Ryd( 4f)     0.00005       3.32119
 216    C  7  f(c3)  Ryd( 4f)     0.00059       3.97631
 217    C  7  f(s3)  Ryd( 4f)     0.00022       3.79797

 218    C  8  s      Cor( 1s)     1.99999     -10.36735
 219    C  8  s      Val( 2s)     0.98030      -0.21151
 220    C  8  s      Ryd( 3s)     0.00096       2.16402
 221    C  8  s      Ryd( 4s)     0.00046       2.42721
 222    C  8  s      Ryd( 5s)     0.00001      17.15711
 223    C  8  px     Val( 2p)     0.95039      -0.12207
 224    C  8  px     Ryd( 3p)     0.00514       1.35960
 225    C  8  px     Ryd( 4p)     0.00095       2.19838
 226    C  8  py     Val( 2p)     1.05913      -0.06222
 227    C  8  py     Ryd( 3p)     0.00487       1.14039
 228    C  8  py     Ryd( 4p)     0.00014       2.15890
 229    C  8  pz     Val( 2p)     1.03881      -0.16528
 230    C  8  pz     Ryd( 3p)     0.00137       0.88524
 231    C  8  pz     Ryd( 4p)     0.00036       1.23113
 232    C  8  dxy    Ryd( 3d)     0.00164       2.19095
 233    C  8  dxy    Ryd( 4d)     0.00030       4.03369
 234    C  8  dxz    Ryd( 3d)     0.00159       1.34008
 235    C  8  dxz    Ryd( 4d)     0.00016       3.22412
 236    C  8  dyz    Ryd( 3d)     0.00034       1.62981
 237    C  8  dyz    Ryd( 4d)     0.00016       3.35495
 238    C  8  dx2y2  Ryd( 3d)     0.00207       2.32978
 239    C  8  dx2y2  Ryd( 4d)     0.00042       4.07478
 240    C  8  dz2    Ryd( 3d)     0.00204       2.10843
 241    C  8  dz2    Ryd( 4d)     0.00011       3.59736
 242    C  8  f(0)   Ryd( 4f)     0.00064       3.21160
 243    C  8  f(c1)  Ryd( 4f)     0.00058       3.18032
 244    C  8  f(s1)  Ryd( 4f)     0.00047       3.43886
 245    C  8  f(c2)  Ryd( 4f)     0.00006       3.23545
 246    C  8  f(s2)  Ryd( 4f)     0.00003       3.34045
 247    C  8  f(c3)  Ryd( 4f)     0.00068       3.82814
 248    C  8  f(s3)  Ryd( 4f)     0.00028       3.78172

 249   Br  9  s      Cor( 1s)     2.00000    -468.39533
 250   Br  9  s      Cor( 2s)     2.00000     -71.72848
 251   Br  9  s      Cor( 3s)     1.99999     -14.54052
 252   Br  9  s      Val( 4s)     1.85891      -0.77868
 253   Br  9  s      Ryd( 5s)     0.00124       1.21737
 254   Br  9  s      Ryd( 6s)     0.00000       7.50823
 255   Br  9  px     Cor( 2p)     2.00000     -42.09233
 256   Br  9  px     Cor( 3p)     2.00000     -21.04244
 257   Br  9  px     Val( 4p)     1.17091      -0.26425
 258   Br  9  px     Ryd( 5p)     0.00233       0.60347
 259   Br  9  px     Ryd( 6p)     0.00003       1.68041
 260   Br  9  py     Cor( 2p)     2.00000     -42.08525
 261   Br  9  py     Cor( 3p)     2.00000     -21.03470
 262   Br  9  py     Val( 4p)     1.95342      -0.37774
 263   Br  9  py     Ryd( 5p)     0.00084       0.57497
 264   Br  9  py     Ryd( 6p)     0.00001       1.56842
 265   Br  9  pz     Cor( 2p)     2.00000     -42.08536
 266   Br  9  pz     Cor( 3p)     2.00000     -21.03481
 267   Br  9  pz     Val( 4p)     1.93406      -0.37714
 268   Br  9  pz     Ryd( 5p)     0.00129       0.53994
 269   Br  9  pz     Ryd( 6p)     0.00003       1.52913
 270   Br  9  dxy    Cor( 3d)     1.99999      -2.75368
 271   Br  9  dxy    Ryd( 4d)     0.00093       1.19159
 272   Br  9  dxy    Ryd( 5d)     0.00003       1.50985
 273   Br  9  dxy    Ryd( 6d)     0.00000       4.41581
 274   Br  9  dxz    Cor( 3d)     1.99999      -2.75376
 275   Br  9  dxz    Ryd( 4d)     0.00215       0.88295
 276   Br  9  dxz    Ryd( 5d)     0.00001       1.35122
 277   Br  9  dxz    Ryd( 6d)     0.00000       4.19310
 278   Br  9  dyz    Cor( 3d)     2.00000      -2.74464
 279   Br  9  dyz    Ryd( 4d)     0.00013       0.67843
 280   Br  9  dyz    Ryd( 5d)     0.00003       1.21998
 281   Br  9  dyz    Ryd( 6d)     0.00000       4.05669
 282   Br  9  dx2y2  Cor( 3d)     1.99999      -2.75387
 283   Br  9  dx2y2  Ryd( 5d)     0.00191       1.68256
 284   Br  9  dx2y2  Ryd( 4d)     0.00003       1.41277
 285   Br  9  dx2y2  Ryd( 6d)     0.00001       4.53848
 286   Br  9  dz2    Cor( 3d)     1.99999      -2.74782
 287   Br  9  dz2    Ryd( 4d)     0.00061       1.07515
 288   Br  9  dz2    Ryd( 5d)     0.00003       1.32797
 289   Br  9  dz2    Ryd( 6d)     0.00000       4.31260
 290   Br  9  f(0)   Ryd( 4f)     0.00008       1.78292
 291   Br  9  f(c1)  Ryd( 4f)     0.00007       2.08067
 292   Br  9  f(s1)  Ryd( 4f)     0.00001       1.67371
 293   Br  9  f(c2)  Ryd( 4f)     0.00010       1.89485
 294   Br  9  f(s2)  Ryd( 4f)     0.00002       1.74992
 295   Br  9  f(c3)  Ryd( 4f)     0.00013       2.18765
 296   Br  9  f(s3)  Ryd( 4f)     0.00012       2.24356

 297    C 10  s      Cor( 1s)     1.99999     -10.31438
 298    C 10  s      Val( 2s)     0.97890      -0.15284
 299    C 10  s      Ryd( 3s)     0.00092       1.50906
 300    C 10  s      Ryd( 4s)     0.00006       2.47703
 301    C 10  s      Ryd( 5s)     0.00000      21.24723
 302    C 10  px     Val( 2p)     1.10635      -0.06358
 303    C 10  px     Ryd( 3p)     0.00487       1.12769
 304    C 10  px     Ryd( 4p)     0.00028       1.93675
 305    C 10  py     Val( 2p)     1.13448      -0.08383
 306    C 10  py     Ryd( 3p)     0.00300       1.08721
 307    C 10  py     Ryd( 4p)     0.00014       1.96714
 308    C 10  pz     Val( 2p)     1.00737      -0.13592
 309    C 10  pz     Ryd( 3p)     0.00141       0.71442
 310    C 10  pz     Ryd( 4p)     0.00018       1.31811
 311    C 10  dxy    Ryd( 3d)     0.00080       2.39198
 312    C 10  dxy    Ryd( 4d)     0.00047       3.88137
 313    C 10  dxz    Ryd( 3d)     0.00034       1.67914
 314    C 10  dxz    Ryd( 4d)     0.00009       2.96303
 315    C 10  dyz    Ryd( 3d)     0.00041       1.63163
 316    C 10  dyz    Ryd( 4d)     0.00007       2.94990
 317    C 10  dx2y2  Ryd( 3d)     0.00231       2.40448
 318    C 10  dx2y2  Ryd( 4d)     0.00008       3.73275
 319    C 10  dz2    Ryd( 3d)     0.00120       2.00524
 320    C 10  dz2    Ryd( 4d)     0.00002       3.43189
 321    C 10  f(0)   Ryd( 4f)     0.00048       3.24184
 322    C 10  f(c1)  Ryd( 4f)     0.00043       3.44547
 323    C 10  f(s1)  Ryd( 4f)     0.00047       3.36844
 324    C 10  f(c2)  Ryd( 4f)     0.00002       3.32703
 325    C 10  f(s2)  Ryd( 4f)     0.00005       3.30655
 326    C 10  f(c3)  Ryd( 4f)     0.00054       3.96401
 327    C 10  f(s3)  Ryd( 4f)     0.00023       3.77374

 328    C 11  s      Cor( 1s)     1.99999     -10.31567
 329    C 11  s      Val( 2s)     0.97327      -0.14196
 330    C 11  s      Ryd( 3s)     0.00097       1.91664
 331    C 11  s      Ryd( 4s)     0.00004       2.22011
 332    C 11  s      Ryd( 5s)     0.00000      19.01585
 333    C 11  px     Val( 2p)     1.05239      -0.03501
 334    C 11  px     Ryd( 3p)     0.00367       1.19457
 335    C 11  px     Ryd( 4p)     0.00011       1.91769
 336    C 11  py     Val( 2p)     1.15593      -0.07261
 337    C 11  py     Ryd( 3p)     0.00447       1.21803
 338    C 11  py     Ryd( 4p)     0.00011       2.16593
 339    C 11  pz     Val( 2p)     0.93274      -0.12337
 340    C 11  pz     Ryd( 3p)     0.00103       0.77710
 341    C 11  pz     Ryd( 4p)     0.00015       1.28575
 342    C 11  dxy    Ryd( 3d)     0.00129       2.61628
 343    C 11  dxy    Ryd( 4d)     0.00037       3.92471
 344    C 11  dxz    Ryd( 3d)     0.00028       1.82791
 345    C 11  dxz    Ryd( 4d)     0.00013       3.03107
 346    C 11  dyz    Ryd( 3d)     0.00039       1.69855
 347    C 11  dyz    Ryd( 4d)     0.00005       2.91448
 348    C 11  dx2y2  Ryd( 3d)     0.00104       2.66601
 349    C 11  dx2y2  Ryd( 4d)     0.00045       3.91106
 350    C 11  dz2    Ryd( 3d)     0.00104       2.13583
 351    C 11  dz2    Ryd( 4d)     0.00002       3.48269
 352    C 11  f(0)   Ryd( 4f)     0.00037       3.28493
 353    C 11  f(c1)  Ryd( 4f)     0.00036       3.50207
 354    C 11  f(s1)  Ryd( 4f)     0.00043       3.41018
 355    C 11  f(c2)  Ryd( 4f)     0.00003       3.37033
 356    C 11  f(s2)  Ryd( 4f)     0.00003       3.37234
 357    C 11  f(c3)  Ryd( 4f)     0.00048       4.07823
 358    C 11  f(s3)  Ryd( 4f)     0.00021       3.86264

 359    C 12  s      Cor( 1s)     1.99999     -10.31878
 360    C 12  s      Val( 2s)     0.94165      -0.12670
 361    C 12  s      Ryd( 4s)     0.00146       1.82251
 362    C 12  s      Ryd( 3s)     0.00015       1.70424
 363    C 12  s      Ryd( 5s)     0.00000      19.91528
 364    C 12  px     Val( 2p)     1.07659      -0.06594
 365    C 12  px     Ryd( 3p)     0.00530       1.24328
 366    C 12  px     Ryd( 4p)     0.00025       2.41743
 367    C 12  py     Val( 2p)     1.08874      -0.05148
 368    C 12  py     Ryd( 3p)     0.00298       1.28495
 369    C 12  py     Ryd( 4p)     0.00029       2.13792
 370    C 12  pz     Val( 2p)     1.06377      -0.14320
 371    C 12  pz     Ryd( 3p)     0.00115       0.74570
 372    C 12  pz     Ryd( 4p)     0.00009       1.46646
 373    C 12  dxy    Ryd( 3d)     0.00119       3.21248
 374    C 12  dxy    Ryd( 4d)     0.00027       4.43258
 375    C 12  dxz    Ryd( 3d)     0.00024       1.80161
 376    C 12  dxz    Ryd( 4d)     0.00010       3.18979
 377    C 12  dyz    Ryd( 3d)     0.00049       1.93459
 378    C 12  dyz    Ryd( 4d)     0.00019       3.27120
 379    C 12  dx2y2  Ryd( 3d)     0.00149       3.18610
 380    C 12  dx2y2  Ryd( 4d)     0.00047       4.33111
 381    C 12  dz2    Ryd( 3d)     0.00101       3.08461
 382    C 12  dz2    Ryd( 4d)     0.00003       3.73729
 383    C 12  f(0)   Ryd( 4f)     0.00061       3.31268
 384    C 12  f(c1)  Ryd( 4f)     0.00047       3.40001
 385    C 12  f(s1)  Ryd( 4f)     0.00047       3.44995
 386    C 12  f(c2)  Ryd( 4f)     0.00005       3.37666
 387    C 12  f(s2)  Ryd( 4f)     0.00007       3.35268
 388    C 12  f(c3)  Ryd( 4f)     0.00063       4.03071
 389    C 12  f(s3)  Ryd( 4f)     0.00025       3.97107

 390    H 13  s      Val( 1s)     0.79673       0.01789
 391    H 13  s      Ryd( 2s)     0.00044       0.78163
 392    H 13  s      Ryd( 3s)     0.00003       1.90200
 393    H 13  px     Ryd( 2p)     0.00058       2.68234
 394    H 13  py     Ryd( 2p)     0.00045       2.63465
 395    H 13  pz     Ryd( 2p)     0.00008       2.27310

 396    H 14  s      Val( 1s)     0.82034       0.00251
 397    H 14  s      Ryd( 2s)     0.00093       0.63947
 398    H 14  s      Ryd( 3s)     0.00003       2.10259
 399    H 14  px     Ryd( 2p)     0.00010       2.31967
 400    H 14  py     Ryd( 2p)     0.00009       2.27780
 401    H 14  pz     Ryd( 2p)     0.00089       2.94728

 402    H 15  s      Val( 1s)     0.77111       0.02288
 403    H 15  s      Ryd( 2s)     0.00047       0.82078
 404    H 15  s      Ryd( 3s)     0.00003       1.90143
 405    H 15  px     Ryd( 2p)     0.00021       2.51500
 406    H 15  py     Ryd( 2p)     0.00060       2.88701
 407    H 15  pz     Ryd( 2p)     0.00013       2.36597

 408    H 16  s      Val( 1s)     0.77059       0.02433
 409    H 16  s      Ryd( 2s)     0.00092       0.80798
 410    H 16  s      Ryd( 3s)     0.00002       1.91016
 411    H 16  px     Ryd( 2p)     0.00011       2.44046
 412    H 16  py     Ryd( 2p)     0.00008       2.41091
 413    H 16  pz     Ryd( 2p)     0.00074       2.91564

 414    H 17  s      Val( 1s)     0.77002       0.04304
 415    H 17  s      Ryd( 2s)     0.00076       0.67626
 416    H 17  s      Ryd( 3s)     0.00009       2.10112
 417    H 17  px     Ryd( 2p)     0.00017       2.63992
 418    H 17  py     Ryd( 2p)     0.00053       2.94095
 419    H 17  pz     Ryd( 2p)     0.00013       2.21143

 420    H 18  s      Val( 1s)     0.76551       0.05306
 421    H 18  s      Ryd( 2s)     0.00051       0.62935
 422    H 18  s      Ryd( 3s)     0.00010       2.12098
 423    H 18  px     Ryd( 2p)     0.00030       2.71895
 424    H 18  py     Ryd( 2p)     0.00040       2.81877
 425    H 18  pz     Ryd( 2p)     0.00012       2.20633

 426    H 19  s      Val( 1s)     0.75387       0.07131
 427    H 19  s      Ryd( 2s)     0.00045       1.14241
 428    H 19  s      Ryd( 3s)     0.00010       1.64808
 429    H 19  px     Ryd( 2p)     0.00021       2.65211
 430    H 19  py     Ryd( 2p)     0.00054       2.94930
 431    H 19  pz     Ryd( 2p)     0.00009       2.21502


 Summary of Natural Population Analysis:

                                     Natural Population
             Natural    ---------------------------------------------
  Atom No    Charge        Core      Valence    Rydberg      Total
 --------------------------------------------------------------------
    O  1   -0.55167      1.99999     6.52658    0.02509     8.55167
    C  2    0.76178      1.99999     3.20289    0.03535     5.23822
    O  3   -0.46895      1.99999     6.44542    0.02353     8.46895
    C  4   -0.06831      1.99999     4.05183    0.01650     6.06831
    C  5   -0.45339      1.99999     4.44146    0.01195     6.45339
    C  6    0.03632      1.99999     3.94616    0.01753     5.96368
    C  7   -0.24406      1.99999     4.22448    0.01959     6.24406
    C  8   -0.05445      1.99999     4.02863    0.02584     6.05445
   Br  9    0.07060     27.99995     6.91730    0.01215    34.92940
    C 10   -0.24599      1.99999     4.22711    0.01889     6.24599
    C 11   -0.13187      1.99999     4.11433    0.01755     6.13187
    C 12   -0.19043      1.99999     4.17075    0.01970     6.19043
    H 13    0.20169      0.00000     0.79673    0.00158     0.79831
    H 14    0.17762      0.00000     0.82034    0.00205     0.82238
    H 15    0.22746      0.00000     0.77111    0.00143     0.77254
    H 16    0.22754      0.00000     0.77059    0.00187     0.77246
    H 17    0.22829      0.00000     0.77002    0.00168     0.77171
    H 18    0.23307      0.00000     0.76551    0.00142     0.76693
    H 19    0.24475      0.00000     0.75387    0.00138     0.75525
 ====================================================================
 * Total *  0.00000     49.99982    61.74511    0.25506   112.00000

                                 Natural Population
 ---------------------------------------------------------
   Core                      49.99982 ( 99.9996% of   50)
   Valence                   61.74511 ( 99.5889% of   62)
   Natural Minimal Basis    111.74494 ( 99.7723% of  112)
   Natural Rydberg Basis      0.25506 (  0.2277% of  112)
 ---------------------------------------------------------

    Atom No         Natural Electron Configuration
 ----------------------------------------------------------------------------
      O  1      [core]2s( 1.70)2p( 4.83)3d( 0.02)
      C  2      [core]2s( 0.80)2p( 2.40)3s( 0.01)4p( 0.02)4d( 0.01)
      O  3      [core]2s( 1.61)2p( 4.84)3p( 0.01)3d( 0.01)
      C  4      [core]2s( 1.03)2p( 3.02)3p( 0.01)3d( 0.01)
      C  5      [core]2s( 1.05)2p( 3.39)3d( 0.01)
      C  6      [core]2s( 0.91)2p( 3.04)3p( 0.01)
      C  7      [core]2s( 0.97)2p( 3.25)3p( 0.01)3d( 0.01)
      C  8      [core]2s( 0.98)2p( 3.05)3p( 0.01)3d( 0.01)
     Br  9      [core]4s( 1.86)4p( 5.06)
      C 10      [core]2s( 0.98)2p( 3.25)3p( 0.01)3d( 0.01)
      C 11      [core]2s( 0.97)2p( 3.14)3p( 0.01)
      C 12      [core]2s( 0.94)2p( 3.23)3p( 0.01)
      H 13            1s( 0.80)
      H 14            1s( 0.82)
      H 15            1s( 0.77)
      H 16            1s( 0.77)
      H 17            1s( 0.77)
      H 18            1s( 0.77)
      H 19            1s( 0.75)


 Wiberg bond index matrix in the NAO basis:

     Atom    1       2       3       4       5       6       7       8       9
     ---- ------  ------  ------  ------  ------  ------  ------  ------  ------
   1.  O  0.0000  1.7638  0.1506  0.0185  0.0018  0.0263  0.0018  0.0107  0.0020
   2.  C  1.7638  0.0000  1.0314  0.0063  0.0036  0.0095  0.0089  0.0045  0.0018
   3.  O  0.1506  1.0314  0.0000  0.9118  0.0197  0.0070  0.0006  0.0025  0.0005
   4.  C  0.0185  0.0063  0.9118  0.0000  1.0121  0.0060  0.0082  0.0004  0.0005
   5.  C  0.0018  0.0036  0.0197  1.0121  0.0000  1.0192  0.0072  0.0084  0.0011
   6.  C  0.0263  0.0095  0.0070  0.0060  1.0192  0.0000  1.4051  0.0117  0.0172
   7.  C  0.0018  0.0089  0.0006  0.0082  0.0072  1.4051  0.0000  1.4144  0.0457
   8.  C  0.0107  0.0045  0.0025  0.0004  0.0084  0.0117  1.4144  0.0000  1.0537
   9. Br  0.0020  0.0018  0.0005  0.0005  0.0011  0.0172  0.0457  1.0537  0.0000
  10.  C  0.0011  0.0086  0.0011  0.0013  0.0017  0.1015  0.0111  1.3945  0.0436
  11.  C  0.0192  0.0106  0.0108  0.0010  0.0095  0.0111  0.1093  0.0126  0.0179
  12.  C  0.0551  0.9871  0.0257  0.0036  0.0073  1.3709  0.0097  0.0929  0.0141
  13.  H  0.0012  0.0063  0.0100  0.9287  0.0009  0.0082  0.0004  0.0003  0.0001
  14.  H  0.0033  0.0031  0.0186  0.9280  0.0020  0.0010  0.0004  0.0000  0.0000
  15.  H  0.0012  0.0007  0.0100  0.0033  0.9161  0.0016  0.0026  0.0004  0.0001
  16.  H  0.0006  0.0002  0.0017  0.0020  0.9022  0.0018  0.0107  0.0001  0.0001
  17.  H  0.0005  0.0002  0.0000  0.0004  0.0024  0.0032  0.9134  0.0027  0.0043
  18.  H  0.0001  0.0002  0.0004  0.0000  0.0004  0.0008  0.0097  0.0024  0.0041
  19.  H  0.0016  0.0025  0.0010  0.0000  0.0003  0.0089  0.0006  0.0082  0.0011

     Atom   10      11      12      13      14      15      16      17      18
     ---- ------  ------  ------  ------  ------  ------  ------  ------  ------
   1.  O  0.0011  0.0192  0.0551  0.0012  0.0033  0.0012  0.0006  0.0005  0.0001
   2.  C  0.0086  0.0106  0.9871  0.0063  0.0031  0.0007  0.0002  0.0002  0.0002
   3.  O  0.0011  0.0108  0.0257  0.0100  0.0186  0.0100  0.0017  0.0000  0.0004
   4.  C  0.0013  0.0010  0.0036  0.9287  0.9280  0.0033  0.0020  0.0004  0.0000
   5.  C  0.0017  0.0095  0.0073  0.0009  0.0020  0.9161  0.9022  0.0024  0.0004
   6.  C  0.1015  0.0111  1.3709  0.0082  0.0010  0.0016  0.0018  0.0032  0.0008
   7.  C  0.0111  0.1093  0.0097  0.0004  0.0004  0.0026  0.0107  0.9134  0.0097
   8.  C  1.3945  0.0126  0.0929  0.0003  0.0000  0.0004  0.0001  0.0027  0.0024
   9. Br  0.0436  0.0179  0.0141  0.0001  0.0000  0.0001  0.0001  0.0043  0.0041
  10.  C  0.0000  1.4517  0.0080  0.0003  0.0001  0.0011  0.0052  0.0100  0.9133
  11.  C  1.4517  0.0000  1.3831  0.0002  0.0001  0.0001  0.0001  0.0008  0.0034
  12.  C  0.0080  1.3831  0.0000  0.0007  0.0006  0.0094  0.0105  0.0104  0.0086
  13.  H  0.0003  0.0002  0.0007  0.0000  0.0001  0.0008  0.0020  0.0000  0.0000
  14.  H  0.0001  0.0001  0.0006  0.0001  0.0000  0.0009  0.0122  0.0000  0.0000
  15.  H  0.0011  0.0001  0.0094  0.0008  0.0009  0.0000  0.0004  0.0002  0.0000
  16.  H  0.0052  0.0001  0.0105  0.0020  0.0122  0.0004  0.0000  0.0001  0.0000
  17.  H  0.0100  0.0008  0.0104  0.0000  0.0000  0.0002  0.0001  0.0000  0.0003
  18.  H  0.9133  0.0034  0.0086  0.0000  0.0000  0.0000  0.0000  0.0003  0.0000
  19.  H  0.0027  0.9077  0.0024  0.0000  0.0000  0.0003  0.0000  0.0005  0.0031

     Atom   19
     ---- ------
   1.  O  0.0016
   2.  C  0.0025
   3.  O  0.0010
   4.  C  0.0000
   5.  C  0.0003
   6.  C  0.0089
   7.  C  0.0006
   8.  C  0.0082
   9. Br  0.0011
  10.  C  0.0027
  11.  C  0.9077
  12.  C  0.0024
  13.  H  0.0000
  14.  H  0.0000
  15.  H  0.0003
  16.  H  0.0000
  17.  H  0.0005
  18.  H  0.0031
  19.  H  0.0000


 Wiberg bond index, Totals by atom:

     Atom    1
     ---- ------
   1.  O  2.0595
   2.  C  3.8492
   3.  O  2.2034
   4.  C  3.8323
   5.  C  3.9160
   6.  C  4.0111
   7.  C  3.9597
   8.  C  4.0206
   9. Br  1.2080
  10.  C  3.9570
  11.  C  3.9493
  12.  C  4.0004
  13.  H  0.9604
  14.  H  0.9704
  15.  H  0.9493
  16.  H  0.9499
  17.  H  0.9495
  18.  H  0.9469
  19.  H  0.9412


 NBI: Natural Binding Index (NCU strength parameters)

     Atom    1       2       3       4       5       6       7       8       9
     ---- ------  ------  ------  ------  ------  ------  ------  ------  ------
   1.  O  0.0000  1.3281  0.3881  0.1362  0.0425  0.1621  0.0429  0.1037  0.0448
   2.  C  1.3281  0.0000  1.0156  0.0793  0.0598  0.0973  0.0941  0.0670  0.0425
   3.  O  0.3881  1.0156  0.0000  0.9549  0.1404  0.0838  0.0243  0.0496  0.0223
   4.  C  0.1362  0.0793  0.9549  0.0000  1.0060  0.0775  0.0906  0.0209  0.0218
   5.  C  0.0425  0.0598  0.1404  1.0060  0.0000  1.0096  0.0847  0.0914  0.0338
   6.  C  0.1621  0.0973  0.0838  0.0775  1.0096  0.0000  1.1854  0.1082  0.1311
   7.  C  0.0429  0.0941  0.0243  0.0906  0.0847  1.1854  0.0000  1.1893  0.2137
   8.  C  0.1037  0.0670  0.0496  0.0209  0.0914  0.1082  1.1893  0.0000  1.0265
   9. Br  0.0448  0.0425  0.0223  0.0218  0.0338  0.1311  0.2137  1.0265  0.0000
  10.  C  0.0337  0.0926  0.0337  0.0361  0.0413  0.3186  0.1053  1.1809  0.2088
  11.  C  0.1386  0.1029  0.1040  0.0316  0.0973  0.1054  0.3305  0.1124  0.1339
  12.  C  0.2347  0.9935  0.1604  0.0603  0.0856  1.1709  0.0986  0.3049  0.1188
  13.  H  0.0352  0.0797  0.1002  0.9637  0.0296  0.0904  0.0207  0.0161  0.0107
  14.  H  0.0573  0.0559  0.1362  0.9633  0.0444  0.0319  0.0188  0.0042  0.0061
  15.  H  0.0343  0.0270  0.0999  0.0575  0.9571  0.0403  0.0510  0.0211  0.0110
  16.  H  0.0235  0.0146  0.0410  0.0448  0.9498  0.0429  0.1034  0.0096  0.0097
  17.  H  0.0217  0.0155  0.0044  0.0194  0.0490  0.0569  0.9557  0.0521  0.0658
  18.  H  0.0089  0.0137  0.0195  0.0038  0.0211  0.0283  0.0986  0.0487  0.0644
  19.  H  0.0405  0.0496  0.0317  0.0069  0.0180  0.0944  0.0253  0.0907  0.0325

     Atom   10      11      12      13      14      15      16      17      18
     ---- ------  ------  ------  ------  ------  ------  ------  ------  ------
   1.  O  0.0337  0.1386  0.2347  0.0352  0.0573  0.0343  0.0235  0.0217  0.0089
   2.  C  0.0926  0.1029  0.9935  0.0797  0.0559  0.0270  0.0146  0.0155  0.0137
   3.  O  0.0337  0.1040  0.1604  0.1002  0.1362  0.0999  0.0410  0.0044  0.0195
   4.  C  0.0361  0.0316  0.0603  0.9637  0.9633  0.0575  0.0448  0.0194  0.0038
   5.  C  0.0413  0.0973  0.0856  0.0296  0.0444  0.9571  0.9498  0.0490  0.0211
   6.  C  0.3186  0.1054  1.1709  0.0904  0.0319  0.0403  0.0429  0.0569  0.0283
   7.  C  0.1053  0.3305  0.0986  0.0207  0.0188  0.0510  0.1034  0.9557  0.0986
   8.  C  1.1809  0.1124  0.3049  0.0161  0.0042  0.0211  0.0096  0.0521  0.0487
   9. Br  0.2088  0.1339  0.1188  0.0107  0.0061  0.0110  0.0097  0.0658  0.0644
  10.  C  0.0000  1.2049  0.0894  0.0170  0.0087  0.0324  0.0723  0.1001  0.9557
  11.  C  1.2049  0.0000  1.1761  0.0156  0.0085  0.0118  0.0083  0.0282  0.0582
  12.  C  0.0894  1.1761  0.0000  0.0272  0.0243  0.0970  0.1027  0.1018  0.0928
  13.  H  0.0170  0.0156  0.0272  0.0000  0.0092  0.0274  0.0448  0.0064  0.0036
  14.  H  0.0087  0.0085  0.0243  0.0092  0.0000  0.0298  0.1106  0.0039  0.0009
  15.  H  0.0324  0.0118  0.0970  0.0274  0.0298  0.0000  0.0204  0.0152  0.0017
  16.  H  0.0723  0.0083  0.1027  0.0448  0.1106  0.0204  0.0000  0.0080  0.0025
  17.  H  0.1001  0.0282  0.1018  0.0064  0.0039  0.0152  0.0080  0.0000  0.0176
  18.  H  0.9557  0.0582  0.0928  0.0036  0.0009  0.0017  0.0025  0.0176  0.0000
  19.  H  0.0520  0.9528  0.0494  0.0042  0.0022  0.0176  0.0047  0.0228  0.0557

     Atom   19
     ---- ------
   1.  O  0.0405
   2.  C  0.0496
   3.  O  0.0317
   4.  C  0.0069
   5.  C  0.0180
   6.  C  0.0944
   7.  C  0.0253
   8.  C  0.0907
   9. Br  0.0325
  10.  C  0.0520
  11.  C  0.9528
  12.  C  0.0494
  13.  H  0.0042
  14.  H  0.0022
  15.  H  0.0176
  16.  H  0.0047
  17.  H  0.0228
  18.  H  0.0557
  19.  H  0.0000


 NATURAL BOND ORBITAL ANALYSIS:

                            Occupancies       Lewis Structure    Low   High
         Max    Occ     -------------------  -----------------   occ   occ
  Cycle  Ctr   Thresh    Lewis   non-Lewis     CR  BD  nC  LP    (L)   (NL)
 ============================================================================
    1     2     1.90   107.31553   4.68447     25  21   0  10     5      6
    2     2     1.84   108.20373   3.79627     25  21   0  10     4      5
    3     2     1.80   108.20919   3.79081     25  21   0  10     3      4
    4     2     1.67   108.83916   3.16084     25  22   0   9     2      4
    5     2     1.65   108.83916   3.16084     25  22   0   9     2      4
    6     2     1.64   110.06286   1.93714     25  24   0   7     0      4
    7     2     1.63   110.06286   1.93714     25  24   0   7     0      4
    8     2     1.64   110.06286   1.93714     25  24   0   7     0      4
[...]
  100.  0.00222     1.26082  346.   RY ( 2) C 11
  101.  0.00214     0.95402   81.   RY ( 1) O  1
  102.  0.00188     1.28503  320.   RY ( 2) C 10
  103.  0.00181     1.32967  160.   RY ( 2) C  4
  104.  0.00180     1.13709  213.   RY ( 3) C  6
  105.  0.00177     3.40860  110.   RY ( 4) C  2
  106.  0.00146     1.72575  161.   RY ( 3) C  4
  107.  0.00140     0.61644  239.   RY ( 3) C  7
  108.  0.00140     0.65043  321.   RY ( 3) C 10
  109.  0.00130     0.78778  373.   RY ( 3) C 12
  110.  0.00119     2.03197  135.   RY ( 3) O  3
  111.  0.00118     1.01623  290.   RY ( 2)Br  9
  112.  0.00115     0.90796   82.   RY ( 2) O  1
  113.  0.00111     2.79119  111.   RY ( 5) C  2
  114.  0.00106     0.67024  347.   RY ( 3) C 11
  115.  0.00101     1.59583  186.   RY ( 2) C  5
  116.  0.00098     1.67465  374.   RY ( 4) C 12
  117.  0.00097     0.65027  402.   RY ( 1) H 14
  118.  0.00095     0.80840  412.   RY ( 1) H 16
  119.  0.00087     2.08121  240.   RY ( 4) C  7
  120.  0.00083     2.08020  112.   RY ( 6) C  2
  121.  0.00081     1.15144  187.   RY ( 3) C  5
  122.  0.00077     1.70395  322.   RY ( 4) C 10
  123.  0.00077     0.68170  417.   RY ( 1) H 17
  124.  0.00067     1.92623  348.   RY ( 4) C 11
  125.  0.00066     2.39317  214.   RY ( 4) C  6
  126.  0.00066     1.97581  375.   RY ( 5) C 12
  127.  0.00065     1.08724  266.   RY ( 4) C  8
  128.  0.00063     2.23349  162.   RY ( 4) C  4
  129.  0.00057     1.67678  267.   RY ( 5) C  8
  130.  0.00054     3.08082  215.   RY ( 5) C  6
  131.  0.00052     2.56808  268.   RY ( 6) C  8
  132.  0.00052     0.63698  422.   RY ( 1) H 18
  133.  0.00049     2.00275  136.   RY ( 4) O  3
  134.  0.00049     0.84801  407.   RY ( 1) H 15
  135.  0.00048     2.76129  216.   RY ( 6) C  6
  136.  0.00047     0.79902  397.   RY ( 1) H 13
  137.  0.00046     2.21342  376.   RY ( 6) C 12
  138.  0.00045     1.16278  427.   RY ( 1) H 19
  139.  0.00043     3.02726  349.   RY ( 5) C 11
  140.  0.00039     2.08222  188.   RY ( 4) C  5
  141.  0.00039     2.92375  350.   RY ( 6) C 11
  142.  0.00036     2.27565  189.   RY ( 5) C  5
  143.  0.00035     1.87207  241.   RY ( 5) C  7
  144.  0.00035     1.90688  323.   RY ( 5) C 10
  145.  0.00035     3.22424  377.   RY ( 7) C 12
  146.  0.00034     1.72854  163.   RY ( 5) C  4
  147.  0.00032     3.18163  217.   RY ( 7) C  6
  148.  0.00030     2.40434  324.   RY ( 6) C 10
  149.  0.00030     2.84980  242.   RY ( 6) C  7
  150.  0.00028     3.04861  269.   RY ( 7) C  8
  151.  0.00027     3.07071  378.   RY ( 8) C 12
  152.  0.00027     1.99721  113.   RY ( 7) C  2
  153.  0.00025     3.62191  270.   RY ( 8) C  8
  154.  0.00024     1.76811   83.   RY ( 3) O  1
  155.  0.00024     2.34482  164.   RY ( 6) C  4
  156.  0.00024     3.04053  114.   RY ( 8) C  2
  157.  0.00023     3.04847  379.   RY ( 9) C 12
  158.  0.00023     0.98906  271.   RY ( 9) C  8
  159.  0.00022     2.48371  243.   RY ( 7) C  7
  160.  0.00021     0.82825  291.   RY ( 3)Br  9
  161.  0.00019     1.84975  190.   RY ( 6) C  5
  162.  0.00019     2.88926  218.   RY ( 8) C  6
  163.  0.00017     1.42419  115.   RY ( 9) C  2
  164.  0.00017     1.71915  244.   RY ( 8) C  7
  165.  0.00017     2.87646  219.   RY ( 9) C  6
  166.  0.00016     0.99121  292.   RY ( 4)Br  9
  167.  0.00016     2.47166  325.   RY ( 7) C 10
  168.  0.00016     1.75575  165.   RY ( 7) C  4
  169.  0.00016     2.05410  191.   RY ( 7) C  5
  170.  0.00016     2.58880  380.   RY (10) C 12
  171.  0.00013     1.99579  326.   RY ( 8) C 10
  172.  0.00013     3.02046  137.   RY ( 5) O  3
  173.  0.00013     2.93473  381.   RY (11) C 12
  174.  0.00012     2.36171  403.   RY ( 2) H 14
  175.  0.00012     2.20076  418.   RY ( 2) H 17
  176.  0.00012     3.08377  138.   RY ( 6) O  3
  177.  0.00012     3.07209  351.   RY ( 7) C 11
  178.  0.00011     0.50796  293.   RY ( 5)Br  9
  179.  0.00011     2.43393  166.   RY ( 8) C  4
  180.  0.00011     1.70139  245.   RY ( 9) C  7
  181.  0.00011     2.78341  192.   RY ( 8) C  5
  182.  0.00011     2.19721  423.   RY ( 2) H 18
  183.  0.00011     2.38915  398.   RY ( 2) H 13
  184.  0.00011     2.67135  220.   RY (10) C  6
  185.  0.00010     2.34516  352.   RY ( 8) C 11
  186.  0.00010     2.11151  424.   RY ( 3) H 18
  187.  0.00010     2.43279  408.   RY ( 2) H 15
  188.  0.00010     2.17156  419.   RY ( 3) H 17
  189.  0.00010     2.80727   84.   RY ( 4) O  1
  190.  0.00010     1.88184  193.   RY ( 9) C  5
  191.  0.00010     1.75947  428.   RY ( 2) H 19
  192.  0.00010     2.42500  413.   RY ( 2) H 16
  193.  0.00010     2.56126  382.   RY (12) C 12
  194.  0.00009     2.10741  429.   RY ( 3) H 19
  195.  0.00009     2.12950   85.   RY ( 5) O  1
  196.  0.00008     2.88771  116.   RY (10) C  2
  197.  0.00008     2.27054  139.   RY ( 7) O  3
  198.  0.00008     2.15738  272.   RY (10) C  8
  199.  0.00008     2.51241  327.   RY ( 9) C 10
  200.  0.00007     2.51179  221.   RY (11) C  6
  201.  0.00007     3.42628  383.   RY (13) C 12
  202.  0.00007     2.34946  399.   RY ( 3) H 13
  203.  0.00007     2.42164  409.   RY ( 3) H 15
  204.  0.00007     2.47487  420.   RY ( 4) H 17
  205.  0.00007     2.52481  425.   RY ( 4) H 18
  206.  0.00006     4.20995  140.   RY ( 8) O  3
  207.  0.00006     2.78405  222.   RY (12) C  6
  208.  0.00006     2.58400  430.   RY ( 4) H 19
  209.  0.00006     3.53483  246.   RY (10) C  7
  210.  0.00006     2.92808  328.   RY (10) C 10
  211.  0.00006     2.37567  414.   RY ( 3) H 16
  212.  0.00005     2.58527  353.   RY ( 9) C 11
  213.  0.00005     1.98821  194.   RY (10) C  5
  214.  0.00005     2.86004  223.   RY (13) C  6
  215.  0.00005     1.91226  354.   RY (10) C 11
  216.  0.00005     2.30675  404.   RY ( 3) H 14
  217.  0.00004     2.05518   86.   RY ( 6) O  1
  218.  0.00004     2.27406  117.   RY (11) C  2
  219.  0.00004     2.28230  167.   RY ( 9) C  4
  220.  0.00004     3.24185  384.   RY (14) C 12
  221.  0.00004     3.02221  141.   RY ( 9) O  3
  222.  0.00004     1.26314  294.   RY ( 6)Br  9
  223.  0.00004     2.93669  247.   RY (11) C  7
  224.  0.00004     2.37763  405.   RY ( 4) H 14
  225.  0.00003     2.89724  224.   RY (14) C  6
  226.  0.00003     2.92110  273.   RY (11) C  8
  227.  0.00003     2.76666   87.   RY ( 7) O  1
  228.  0.00003     1.48529  168.   RY (10) C  4
  229.  0.00003     3.05155  385.   RY (15) C 12
  230.  0.00002     3.28718  118.   RY (12) C  2
  231.  0.00002     2.67855  195.   RY (11) C  5
  232.  0.00002     2.78983  225.   RY (15) C  6
  233.  0.00002     2.84227  119.   RY (13) C  2
  234.  0.00002     1.17244  295.   RY ( 7)Br  9
  235.  0.00002     2.41088  169.   RY (11) C  4
  236.  0.00002     3.04276  248.   RY (12) C  7
  237.  0.00002     1.93283  355.   RY (11) C 11
  238.  0.00002     2.21723  400.   RY ( 4) H 13
  239.  0.00002     2.72359  329.   RY (11) C 10
  240.  0.00002     2.34604  410.   RY ( 4) H 15
  241.  0.00002     2.65560  120.   RY (14) C  2
  242.  0.00002     2.35484  196.   RY (12) C  5
  243.  0.00002     2.37249  356.   RY (12) C 11
  244.  0.00002     2.73341  170.   RY (12) C  4
  245.  0.00002     2.67907  415.   RY ( 4) H 16
  246.  0.00002     2.38608  197.   RY (13) C  5
  247.  0.00001     2.95136  121.   RY (15) C  2
  248.  0.00001     4.54863  142.   RY (10) O  3
  249.  0.00001     3.14147  226.   RY (16) C  6
  250.  0.00001     2.44109  357.   RY (13) C 11
  251.  0.00001     2.38777  249.   RY (13) C  7
  252.  0.00001     4.27052   88.   RY ( 8) O  1
  253.  0.00001     3.42647  227.   RY (17) C  6
  254.  0.00001     2.34140  274.   RY (12) C  8
  255.  0.00001     1.43508  296.   RY ( 8)Br  9
  256.  0.00001     2.58542  358.   RY (14) C 11
  257.  0.00001     3.48158  386.   RY (16) C 12
  258.  0.00001     3.30506   89.   RY ( 9) O  1
  259.  0.00001     2.71480  122.   RY (16) C  2
  260.  0.00001     2.11563  171.   RY (13) C  4
  261.  0.00001     3.97017  198.   RY (14) C  5
  262.  0.00001     2.80803  199.   RY (15) C  5
  263.  0.00001     2.88411  250.   RY (14) C  7
  264.  0.00001     2.99383  275.   RY (13) C  8
  265.  0.00001     2.91926  330.   RY (12) C 10
  266.  0.00001     3.44726  387.   RY (17) C 12
  267.  0.00001     2.51824  401.   RY ( 5) H 13
  268.  0.00001     3.03827  421.   RY ( 5) H 17
  269.  0.00001     2.99105  431.   RY ( 5) H 19
  270.  0.00000     2.29799   90.   RY (10) O  1
  271.  0.00000     2.81365   91.   RY (11) O  1
  272.  0.00000     2.59109  123.   RY (17) C  2
  273.  0.00000     1.60268  124.   RY (18) C  2
  274.  0.00001     5.31192  143.   RY (11) O  3
  275.  0.00001     4.68923  144.   RY (12) O  3
  276.  0.00001     1.33908  297.   RY ( 9)Br  9
  277.  0.00001     2.10528  331.   RY (13) C 10
  278.  0.00001     3.59107  359.   RY (15) C 11
  279.  0.00001     3.02175  426.   RY ( 5) H 18
  280.  0.00000     4.36520  145.   RY (13) O  3
  281.  0.00000     4.97000  125.   RY (19) C  2
  282.  0.00000     3.32600  172.   RY (14) C  4
  283.  0.00000     3.05992  173.   RY (15) C  4
  284.  0.00000     2.65768  174.   RY (16) C  4
  285.  0.00001     3.40004  228.   RY (18) C  6
  286.  0.00000     3.03778  229.   RY (19) C  6
  287.  0.00001     3.33858  251.   RY (15) C  7
  288.  0.00000     3.81650  276.   RY (14) C  8
  289.  0.00000     3.08135  252.   RY (16) C  7
  290.  0.00000     2.07284  277.   RY (15) C  8
  291.  0.00000     6.46198   92.   RY (12) O  1
  292.  0.00000    13.02768   93.   RY (13) O  1
  293.  0.00000     6.93717   94.   RY (14) O  1
  294.  0.00000     4.99591   95.   RY (15) O  1
  295.  0.00000     6.46489   96.   RY (16) O  1
  296.  0.00000     6.34137   97.   RY (17) O  1
  297.  0.00000    11.36703   98.   RY (18) O  1
  298.  0.00000    10.22101   99.   RY (19) O  1
  299.  0.00000     8.96773  100.   RY (20) O  1
  300.  0.00000     9.08482  101.   RY (21) O  1
  301.  0.00000     5.94695  102.   RY (22) O  1
  302.  0.00000     5.37595  103.   RY (23) O  1
  303.  0.00000     7.08467  104.   RY (24) O  1
  304.  0.00000     8.71732  105.   RY (25) O  1
  305.  0.00000     7.67399  106.   RY (26) O  1
  306.  0.00000     4.69225  126.   RY (20) C  2
  307.  0.00000     3.52404  127.   RY (21) C  2
  308.  0.00000     3.85557  128.   RY (22) C  2
  309.  0.00000     6.03012  129.   RY (23) C  2
  310.  0.00000     3.75681  130.   RY (24) C  2
  311.  0.00000     3.44606  131.   RY (25) C  2
  312.  0.00000    12.32450  132.   RY (26) C  2
  313.  0.00000     6.95852  146.   RY (14) O  3
  314.  0.00000     5.38433  147.   RY (15) O  3
  315.  0.00000     7.66711  148.   RY (16) O  3
  316.  0.00000     6.93095  149.   RY (17) O  3
  317.  0.00000    19.30108  150.   RY (18) O  3
  318.  0.00000     6.03792  151.   RY (19) O  3
  319.  0.00000     6.68949  152.   RY (20) O  3
  320.  0.00000    15.44665  153.   RY (21) O  3
  321.  0.00000     4.66798  154.   RY (22) O  3
  322.  0.00000     3.89004  155.   RY (23) O  3
  323.  0.00000     2.87664  200.   RY (16) C  5
  324.  0.00000     2.79404  201.   RY (17) C  5
  325.  0.00000     3.55510  202.   RY (18) C  5
  326.  0.00000     5.61235  156.   RY (24) O  3
  327.  0.00000    10.76918  157.   RY (25) O  3
  328.  0.00000     6.23491  158.   RY (26) O  3
  329.  0.00000     6.67551  175.   RY (17) C  4
  330.  0.00000     4.75812  176.   RY (18) C  4
  331.  0.00000     3.58422  177.   RY (19) C  4
  332.  0.00000     4.66106  178.   RY (20) C  4
  333.  0.00000     5.29293  179.   RY (21) C  4
  334.  0.00000     6.91392  180.   RY (22) C  4
  335.  0.00000     3.32723  181.   RY (23) C  4
  336.  0.00000     3.62804  182.   RY (24) C  4
  337.  0.00000     4.77445  183.   RY (25) C  4
  338.  0.00000     5.40881  184.   RY (26) C  4
  339.  0.00000     5.53006  203.   RY (19) C  5
  340.  0.00000     9.13575  204.   RY (20) C  5
  341.  0.00000     5.19862  205.   RY (21) C  5
  342.  0.00000     4.68584  206.   RY (22) C  5
  343.  0.00000     3.73333  207.   RY (23) C  5
  344.  0.00000     4.92008  208.   RY (24) C  5
  345.  0.00000     5.50100  209.   RY (25) C  5
  346.  0.00000     3.88959  210.   RY (26) C  5
  347.  0.00000     3.98972  230.   RY (20) C  6
  348.  0.00000     2.66433  231.   RY (21) C  6
  349.  0.00000     4.47199  253.   RY (17) C  7
  350.  0.00000     3.44552  278.   RY (16) C  8
  351.  0.00000     3.14405  298.   RY (10)Br  9
  352.  0.00000     1.07218  299.   RY (11)Br  9
  353.  0.00000     3.25916  279.   RY (17) C  8
  354.  0.00000     1.96219  300.   RY (12)Br  9
  355.  0.00000     3.18968  332.   RY (14) C 10
  356.  0.00000     2.94593  333.   RY (15) C 10
  357.  0.00000     4.76739  360.   RY (16) C 11
  358.  0.00000     2.97809  388.   RY (18) C 12
  359.  0.00000     2.90304  389.   RY (19) C 12
  360.  0.00000     2.58890  406.   RY ( 5) H 14
  361.  0.00000     2.44088  411.   RY ( 5) H 15
  362.  0.00001     2.19546  416.   RY ( 5) H 16
  363.  0.00000    15.93291  232.   RY (22) C  6
  364.  0.00000     4.59380  233.   RY (23) C  6
  365.  0.00000     3.56089  234.   RY (24) C  6
  366.  0.00000     3.65074  235.   RY (25) C  6
  367.  0.00000     4.74284  236.   RY (26) C  6
  368.  0.00000     3.22475  254.   RY (18) C  7
  369.  0.00000     7.41058  255.   RY (19) C  7
  370.  0.00000     4.08265  256.   RY (20) C  7
  371.  0.00000     2.78199  257.   RY (21) C  7
  372.  0.00000     3.15728  258.   RY (22) C  7
  373.  0.00000     6.16065  259.   RY (23) C  7
  374.  0.00000     6.22455  280.   RY (18) C  8
  375.  0.00000     3.10912  260.   RY (24) C  7
  376.  0.00000     3.32726  261.   RY (25) C  7
  377.  0.00000     9.35339  262.   RY (26) C  7
  378.  0.00000    10.93207  281.   RY (19) C  8
  379.  0.00000     3.27841  282.   RY (20) C  8
  380.  0.00000     5.31944  283.   RY (21) C  8
  381.  0.00000     3.02595  284.   RY (22) C  8
  382.  0.00000     3.24628  285.   RY (23) C  8
  383.  0.00000     2.25438  301.   RY (13)Br  9
  384.  0.00000     3.64134  286.   RY (24) C  8
  385.  0.00000     3.08986  302.   RY (14)Br  9
  386.  0.00000     2.36344  303.   RY (15)Br  9
  387.  0.00000     2.08675  304.   RY (16)Br  9
  388.  0.00000     2.01057  305.   RY (17)Br  9
  389.  0.00000     5.37161  334.   RY (16) C 10
  390.  0.00000     4.04592  287.   RY (25) C  8
  391.  0.00000     3.42098  288.   RY (26) C  8
  392.  0.00000     2.15571  306.   RY (18)Br  9
  393.  0.00000     3.63596  307.   RY (19)Br  9
  394.  0.00000     2.75320  308.   RY (20)Br  9
  395.  0.00000     2.29711  309.   RY (21)Br  9
  396.  0.00000     1.88888  310.   RY (22)Br  9
  397.  0.00000     2.61312  311.   RY (23)Br  9
  398.  0.00000     1.81633  312.   RY (24)Br  9
  399.  0.00000     3.25812  313.   RY (25)Br  9
  400.  0.00000     4.20726  314.   RY (26)Br  9
  401.  0.00000     3.56186  315.   RY (27)Br  9
  402.  0.00000     2.16216  316.   RY (28)Br  9
  403.  0.00000     2.52344  317.   RY (29)Br  9
  404.  0.00000     2.51630  318.   RY (30)Br  9
  405.  0.00000    14.42397  335.   RY (17) C 10
  406.  0.00000     2.15667  336.   RY (18) C 10
  407.  0.00000     3.16159  337.   RY (19) C 10
  408.  0.00000     3.05520  338.   RY (20) C 10
  409.  0.00000     3.19847  339.   RY (21) C 10
  410.  0.00000     3.94975  340.   RY (22) C 10
  411.  0.00000     3.78944  341.   RY (23) C 10
  412.  0.00000     3.78768  361.   RY (17) C 11
  413.  0.00000     2.97269  362.   RY (18) C 11
  414.  0.00000     5.59292  342.   RY (24) C 10
  415.  0.00000     3.27549  343.   RY (25) C 10
  416.  0.00000     3.71731  344.   RY (26) C 10
  417.  0.00000     7.94408  363.   RY (19) C 11
  418.  0.00000     4.09008  364.   RY (20) C 11
  419.  0.00000     3.29570  365.   RY (21) C 11
  420.  0.00000     7.93684  366.   RY (22) C 11
  421.  0.00000     4.46424  367.   RY (23) C 11
  422.  0.00000     4.09681  368.   RY (24) C 11
  423.  0.00000     3.74997  369.   RY (25) C 11
  424.  0.00000     6.49221  390.   RY (20) C 12
  425.  0.00000     3.35583  370.   RY (26) C 11
  426.  0.00000     5.71466  391.   RY (21) C 12
  427.  0.00000     3.61376  392.   RY (22) C 12
  428.  0.00000     5.50019  393.   RY (23) C 12
  429.  0.00000     7.31460  394.   RY (24) C 12
  430.  0.00000     3.61015  395.   RY (25) C 12
  431.  0.00000     8.02387  396.   RY (26) C 12

 NBO analysis completed in 9.31 CPU seconds (9 wall seconds)
 Maximum scratch memory used by NBO was 2237499 words (17.07 MB)
 Maximum scratch memory used by G16NBO was 290039 words (2.21 MB)

 Opening RunExU unformatted file "/home/rpaton/opt/tzvp/popn/Gau-2141185.EUF"
 Read unf file /home/rpaton/opt/tzvp/popn/Gau-2141185.EUF:
 Label Gaussian matrix elements                                         IVers= 2 NLab= 2 Version=ES64L-G16RevC.01
 Title arbr32_wb97xd_popncreated by GaussianPrep                       
 NAtoms=    19 NBasis=   431 NBsUse=   431 ICharg=     0 Multip=     1 NE=   112 Len12L=8 Len4L=8 IOpCl= 0 ICGU=111
 GAUSSIAN SCALARS                    NI= 1 NR= 1 NTot=       1 LenBuf=    2 NRI=1 N=    1000
 ALPHA ORBITAL ENERGIES              NI= 0 NR= 1 NTot=     431 LenBuf= 2048 NRI=1 N=     431
 ALPHA MO COEFFICIENTS               NI= 0 NR= 1 NTot=  185761 LenBuf= 2048 NRI=1 N=     431     431
 Store file  10524 Len=  185761.
 NPA CHARGES                         NI= 0 NR= 1 NTot=      19 LenBuf= 2048 NRI=1 N=      19
 Recovered energy= -3071.87321388     dipole=      0.588442239412     -1.383889139464      0.253811295589
 Unable to Open any file for archive entry.
 1\1\GINC-DYNAMO\SP\RwB97XD\def2TZVP\C9H7Br1O2\RPATON\23-Sep-2024\0\\# 
 pop=(nbo6read,savenbos,hirshfeld) wb97xd/def2tzvp\\arbr32_wb97xd_popnc
 reated by GaussianPrep\\0,1\O,0,-3.331901,1.885234,-0.225017\C,0,-2.85
 4776,0.797941,-0.06833\O,0,-3.662999,-0.273997,0.028617\C,0,-3.120143,
 -1.521715,0.4598\C,0,-1.852047,-1.870697,-0.288894\C,0,-0.874939,-0.74
 1721,-0.141779\C,0,0.498647,-0.936394,-0.139498\C,0,1.340758,0.153195,
 -0.001053\Br,0,3.211811,-0.123427,0.012241\C,0,0.842795,1.441648,0.131
 283\C,0,-0.525361,1.631977,0.120176\C,0,-1.384917,0.547987,-0.011561\H
 ,0,-3.907533,-2.251965,0.285399\H,0,-2.926537,-1.469372,1.535704\H,0,-
 1.437976,-2.801481,0.101666\H,0,-2.080394,-2.031969,-1.346719\H,0,0.90
 8478,-1.932916,-0.23986\H,0,1.516693,2.279957,0.237939\H,0,-0.947006,2
 .624467,0.207773\\Version=ES64L-G16RevC.01\State=1-A\HF=-3071.8732139\
 RMSD=5.951e-09\Dipole=0.5884422,-1.3838892,0.2538113\Quadrupole=-8.204
 0667,6.0991433,2.1049234,10.6109526,-1.6967493,0.9386129\PG=C01 [X(C9H
 7Br1O2)]\\@
 The archive entry for this job was punched.


 A ROPE OVER THE TOP OF A FENCE HAS THE SAME LENGTH ON EACH SIDE.
 WEIGHS 1/3 POUND PER FOOT.  ON ONE END HANGS A MONKEY HOLDING A
 BANANA, AND ON THE OTHER END A WEIGHT EQUAL TO THE WEIGHT
 OF THE MONKEY.  THE BANANA WEIGHS TWO OUNCES PER INCH.
 THE ROPE IS AS LONG AS THE AGE OF THE MONKEY, 
 AND THE WEIGHT OF THE MONKEY (IN OUNCES) IS AS MUCH
 AS THE AGE OF THE MONKEY'S MOTHER.  THE COMBINED AGES OF MONKEY
 AND MOTHER ARE THIRTY YEARS.  HALF THE WEIGHT OF THE MONKEY,
  PLUS THE WEIGHT OF THE BANANA, IS ONE FOURTH AS MUCH AS THE WEIGHT
 OF THE WEIGHT AND THE ROPE.
 THE MONKEY'S MOTHER IS HALF AS OLD AS THE MONKEY WILL BE
 WHEN IT IS 3 TIMES AS OLD AS ITS MOTHER WAS WHEN
 SHE WAS HALF AS OLD AS THE MONKEY WILL BE WHEN IT IS
 AS OLD AS ITS MOTHER WILL BE WHEN SHE IS 4 TIMES AS
 OLD AS THE MONKEY WAS WHEN IT WAS TWICE AS OLD AS 
 ITS MOTHER WAS WHEN SHE WAS ONE THIRD AS OLD AS THE
 MONKEY WAS WHEN IT WAS AS OLD AS ITS MOTHER WAS WHEN 
 SHE WAS 3 TIMES AS OLD AS THE MONKEY WAS WHEN IT WAS AS OLD AS ITS
 MOTHER WAS WHEN SHE WAS 3 TIMES AS OLD AS THE MONKEY 
 WAS WHEN IT WAS ONE FOURTH WAS OLD AS IT IS NOW.

 HOW LONG IS THE BANANA?
 Job cpu time:       0 days  0 hours 48 minutes 21.3 seconds.
 Elapsed time:       0 days  0 hours  2 minutes  2.4 seconds.
 File lengths (MBytes):  RWF=    103 Int=      0 D2E=      0 Chk=     10 Scr=      1
 Normal termination of Gaussian 16 at Mon Sep 23 02:42:18 2024.
