 Entering Gaussian System, Link 0=/usr/local/Gaussian/G16C/g16/g16
 Input=arbr43_wb97xd_red.com
 Output=arbr43_wb97xd_red.log
 Initial command:
 /usr/local/Gaussian/G16C/g16/l1.exe "/home/rpaton/arbr500/tzvp/fukui/Gau-2305639.inp" -scrdir="/home/rpaton/arbr500/tzvp/fukui/"
 Entering Link 1 = /usr/local/Gaussian/G16C/g16/l1.exe PID=   2305640.
  
 Copyright (c) 1988-2019, Gaussian, Inc.  All Rights Reserved.
  
 This is part of the Gaussian(R) 16 program.  It is based on
 the Gaussian(R) 09 system (copyright 2009, Gaussian, Inc.),
 the Gaussian(R) 03 system (copyright 2003, Gaussian, Inc.),
 the Gaussian(R) 98 system (copyright 1998, Gaussian, Inc.),
 the Gaussian(R) 94 system (copyright 1995, Gaussian, Inc.),
 the Gaussian 92(TM) system (copyright 1992, Gaussian, Inc.),
 the Gaussian 90(TM) system (copyright 1990, Gaussian, Inc.),
 the Gaussian 88(TM) system (copyright 1988, Gaussian, Inc.),
 the Gaussian 86(TM) system (copyright 1986, Carnegie Mellon
 University), and the Gaussian 82(TM) system (copyright 1983,
 Carnegie Mellon University). Gaussian is a federally registered
 trademark of Gaussian, Inc.
  
 This software contains proprietary and confidential information,
 including trade secrets, belonging to Gaussian, Inc.
  
 This software is provided under written license and may be
 used, copied, transmitted, or stored only in accord with that
 written license.
  
 The following legend is applicable only to US Government
 contracts under FAR:
  
                    RESTRICTED RIGHTS LEGEND
  
 Use, reproduction and disclosure by the US Government is
 subject to restrictions as set forth in subparagraphs (a)
 and (c) of the Commercial Computer Software - Restricted
 Rights clause in FAR 52.227-19.
  
 Gaussian, Inc.
 340 Quinnipiac St., Bldg. 40, Wallingford CT 06492
  
  
 ---------------------------------------------------------------
 Warning -- This program may not be used in any manner that
 competes with the business of Gaussian, Inc. or will provide
 assistance to any competitor of Gaussian, Inc.  The licensee
 of this program is prohibited from giving any competitor of
 Gaussian, Inc. access to this program.  By using this program,
 the user acknowledges that Gaussian, Inc. is engaged in the
 business of creating and licensing software in the field of
 computational chemistry and represents and warrants to the
 licensee that it is not a competitor of Gaussian, Inc. and that
 it will not use this program in any manner prohibited above.
 ---------------------------------------------------------------
  

 Cite this work as:
 Gaussian 16, Revision C.01,
 M. J. Frisch, G. W. Trucks, H. B. Schlegel, G. E. Scuseria, 
 M. A. Robb, J. R. Cheeseman, G. Scalmani, V. Barone, 
 G. A. Petersson, H. Nakatsuji, X. Li, M. Caricato, A. V. Marenich, 
 J. Bloino, B. G. Janesko, R. Gomperts, B. Mennucci, H. P. Hratchian, 
 J. V. Ortiz, A. F. Izmaylov, J. L. Sonnenberg, D. Williams-Young, 
 F. Ding, F. Lipparini, F. Egidi, J. Goings, B. Peng, A. Petrone, 
 T. Henderson, D. Ranasinghe, V. G. Zakrzewski, J. Gao, N. Rega, 
 G. Zheng, W. Liang, M. Hada, M. Ehara, K. Toyota, R. Fukuda, 
 J. Hasegawa, M. Ishida, T. Nakajima, Y. Honda, O. Kitao, H. Nakai, 
 T. Vreven, K. Throssell, J. A. Montgomery, Jr., J. E. Peralta, 
 F. Ogliaro, M. J. Bearpark, J. J. Heyd, E. N. Brothers, K. N. Kudin, 
 V. N. Staroverov, T. A. Keith, R. Kobayashi, J. Normand, 
 K. Raghavachari, A. P. Rendell, J. C. Burant, S. S. Iyengar, 
 J. Tomasi, M. Cossi, J. M. Millam, M. Klene, C. Adamo, R. Cammi, 
 J. W. Ochterski, R. L. Martin, K. Morokuma, O. Farkas, 
 J. B. Foresman, and D. J. Fox, Gaussian, Inc., Wallingford CT, 2019.
 
 ******************************************
 Gaussian 16:  ES64L-G16RevC.01  3-Jul-2019
                29-Sep-2024 
 ******************************************
 %chk=arbr43_wb97xd_red.chk
 %mem=48GB
 %nprocshared=24
 Will use up to   24 processors via shared memory.
 --------------------------------------
 # pop=(nbo6,hirshfeld) wb97xd/def2tzvp
 --------------------------------------
 1/38=1,172=1/1;
 2/12=2,17=6,18=5,40=1/2;
 3/5=44,7=101,11=2,25=1,30=1,74=-58/1,2,3;
 4//1;
 5/5=2,38=5/2;
 6/7=2,8=2,9=2,10=2,28=1,40=1,79=1,113=1,114=1,124=3103,126=1/1,12;
 99/5=1,9=1/99;
 ----------------------------------------
 arbr43_wb97xd_redcreated by GaussianPrep
 ----------------------------------------
 Symbolic Z-matrix:
 Charge = -1 Multiplicity = 2
 Br                    3.00116  -0.25444  -0.02732 
 C                     1.1586    0.19133   0.01031 
 C                     0.78099   1.52451   0.05866 
 C                    -0.56914   1.82257   0.07863 
 C                    -1.54753   0.83566   0.05894 
 C                    -1.13099  -0.4953    0.02069 
 C                     0.22255  -0.82039  -0.00952 
 O                    -1.99169  -1.54149  -0.01325 
 C                    -3.35283  -1.26464   0.28223 
 C                    -3.83766  -0.01327  -0.42085 
 C                    -3.01579   1.1767    0.05757 
 H                     1.52379   2.30906   0.07343 
 H                    -0.8792    2.86137   0.10231 
 H                     0.51195  -1.86117  -0.04546 
 H                    -3.90261  -2.1491   -0.03532 
 H                    -3.466    -1.15818   1.36812 
 H                    -3.72434  -0.14542  -1.49969 
 H                    -4.89907   0.13368  -0.21546 
 H                    -3.32925   1.4549    1.06881 
 H                    -3.19146   2.04911  -0.57436 
 
                          Input orientation:                          
 ---------------------------------------------------------------------
 Center     Atomic      Atomic             Coordinates (Angstroms)
 Number     Number       Type             X           Y           Z
 ---------------------------------------------------------------------
      1         35           0        3.001159   -0.254439   -0.027323
      2          6           0        1.158595    0.191327    0.010306
      3          6           0        0.780986    1.524508    0.058661
      4          6           0       -0.569136    1.822566    0.078626
      5          6           0       -1.547533    0.835660    0.058941
      6          6           0       -1.130991   -0.495298    0.020687
      7          6           0        0.222553   -0.820393   -0.009521
      8          8           0       -1.991688   -1.541486   -0.013253
      9          6           0       -3.352834   -1.264637    0.282233
     10          6           0       -3.837664   -0.013268   -0.420850
     11          6           0       -3.015786    1.176702    0.057574
     12          1           0        1.523788    2.309056    0.073429
     13          1           0       -0.879203    2.861374    0.102313
     14          1           0        0.511954   -1.861170   -0.045460
     15          1           0       -3.902605   -2.149099   -0.035318
     16          1           0       -3.466004   -1.158178    1.368123
     17          1           0       -3.724340   -0.145424   -1.499687
     18          1           0       -4.899073    0.133675   -0.215463
     19          1           0       -3.329252    1.454899    1.068814
     20          1           0       -3.191457    2.049106   -0.574362
 ---------------------------------------------------------------------
                    Distance matrix (angstroms):
                    1          2          3          4          5
     1  Br   0.000000
     2  C    1.896092   0.000000
     3  C    2.846263   1.386470   0.000000
     4  C    4.131850   2.377112   1.382775   0.000000
     5  C    4.678286   2.782204   2.428274   1.389832   0.000000
     6  C    4.139442   2.390348   2.781495   2.385693   1.395141
     7  C    2.835714   1.378458   2.411443   2.760394   2.424954
     8  O    5.156085   3.595480   4.134394   3.653620   2.419361
     9  C    6.441238   4.748344   4.991771   4.161881   2.778528
    10  C    6.854380   5.019000   4.891484   3.781936   2.489092
    11  C    6.185386   4.289365   3.812669   2.530549   1.507341
    12  H    2.960453   2.149913   1.080504   2.148728   3.406482
    13  H    4.978183   3.360095   2.131981   1.084354   2.133556
    14  H    2.962778   2.152672   3.397946   3.841102   3.394890
    15  H    7.159033   5.576327   5.953171   5.186436   3.803161
    16  H    6.677440   5.005172   5.191187   4.351951   3.061026
    17  H    6.885643   5.122161   5.051246   4.039724   2.851374
    18  H    7.911997   6.062148   5.854283   4.656951   3.435244
    19  H    6.648117   4.780986   4.233121   2.955316   2.139585
    20  H    6.629786   4.766144   4.056627   2.711878   2.139161
                    6          7          8          9         10
     6  C    0.000000
     7  C    1.392365   0.000000
     8  O    1.355161   2.328702   0.000000
     9  C    2.365772   3.614674   1.420097   0.000000
    10  C    2.784490   4.160049   2.430887   1.515028   0.000000
    11  C    2.519801   3.805224   2.905570   2.474714   1.523286
    12  H    3.861999   3.390213   5.214668   6.049489   5.863674
    13  H    3.367092   3.844708   4.542703   4.814062   4.158095
    14  H    2.137580   1.080861   2.524175   3.924261   4.740763
    15  H    3.228008   4.333942   2.005314   1.088742   2.171319
    16  H    2.776199   3.951893   2.056388   1.096949   2.156241
    17  H    3.026451   4.272487   2.675922   2.136795   1.092793
    18  H    3.827508   5.213800   3.361538   2.143323   1.091039
    19  H    3.119966   4.353743   3.455180   2.831103   2.152463
    20  H    3.327701   4.495390   3.827093   3.426469   2.166688
                   11         12         13         14         15
    11  C    0.000000
    12  H    4.678697   0.000000
    13  H    2.721233   2.465817   0.000000
    14  H    4.656633   4.292869   4.925401   0.000000
    15  H    3.443259   7.023725   5.853609   4.423950   0.000000
    16  H    2.715124   6.212565   4.944756   4.279786   1.772623
    17  H    2.162204   6.003500   4.438698   4.796326   2.488146
    18  H    2.170075   6.787406   4.868334   5.769534   2.497290
    19  H    1.094651   5.027163   2.985806   5.195458   3.812695
    20  H    1.091463   4.766628   2.542477   5.411585   4.291995
                   16         17         18         19         20
    16  H    0.000000
    17  H    3.052334   0.000000
    18  H    2.496060   1.762704   0.000000
    19  H    2.633716   3.051938   2.420607   0.000000
    20  H    3.759693   2.440523   2.591069   1.752740   0.000000
 Stoichiometry    C9H9BrO(1-,2)
 Framework group  C1[X(C9H9BrO)]
 Deg. of freedom    54
 Full point group                 C1      NOp   1
 Largest Abelian subgroup         C1      NOp   1
 Largest concise Abelian subgroup C1      NOp   1
                         Standard orientation:                         
 ---------------------------------------------------------------------
 Center     Atomic      Atomic             Coordinates (Angstroms)
 Number     Number       Type             X           Y           Z
 ---------------------------------------------------------------------
      1         35           0       -3.001159   -0.254439    0.027323
      2          6           0       -1.158595    0.191327   -0.010306
      3          6           0       -0.780986    1.524508   -0.058661
      4          6           0        0.569136    1.822566   -0.078626
      5          6           0        1.547533    0.835660   -0.058941
      6          6           0        1.130991   -0.495298   -0.020687
      7          6           0       -0.222553   -0.820393    0.009521
      8          8           0        1.991688   -1.541486    0.013253
      9          6           0        3.352834   -1.264637   -0.282233
     10          6           0        3.837664   -0.013268    0.420850
     11          6           0        3.015786    1.176702   -0.057574
     12          1           0       -1.523788    2.309056   -0.073429
     13          1           0        0.879203    2.861374   -0.102313
     14          1           0       -0.511954   -1.861170    0.045460
     15          1           0        3.902605   -2.149099    0.035318
     16          1           0        3.466004   -1.158178   -1.368123
     17          1           0        3.724340   -0.145424    1.499687
     18          1           0        4.899073    0.133675    0.215463
     19          1           0        3.329252    1.454899   -1.068814
     20          1           0        3.191457    2.049106    0.574362
 ---------------------------------------------------------------------
 Rotational constants (GHZ):           2.4664712           0.3727795           0.3276344
 Standard basis: def2TZVP (5D, 7F)
 There are   469 symmetry adapted cartesian basis functions of A   symmetry.
 There are   412 symmetry adapted basis functions of A   symmetry.
   412 basis functions,   696 primitive gaussians,   469 cartesian basis functions
    54 alpha electrons       53 beta electrons
       nuclear repulsion energy       827.7125251696 Hartrees.
 NAtoms=   20 NActive=   20 NUniq=   20 SFac= 1.00D+00 NAtFMM=   60 NAOKFM=F Big=F
 Integral buffers will be    131072 words long.
 Raffenetti 2 integral format.
 Two-electron integral symmetry is turned on.
 Nuclear repulsion after empirical dispersion term =      827.7003016908 Hartrees.
 One-electron integrals computed using PRISM.
   1 Symmetry operations used in ECPInt.
 ECPInt:  NShTT=   13203 NPrTT=   43384 LenC2=   12549 LenP2D=   31166.
 LDataN:  DoStor=T MaxTD1= 6 Len=  172
 NBasis=   412 RedAO= T EigKep=  6.90D-06  NBF=   412
 NBsUse=   412 1.00D-06 EigRej= -1.00D+00 NBFU=   412
 ExpMin= 9.52D-02 ExpMax= 5.65D+05 ExpMxC= 5.46D+03 IAcc=3 IRadAn=         5 AccDes= 0.00D+00
 Harris functional with IExCor= 4639 and IRadAn=       5 diagonalized for initial guess.
 HarFok:  IExCor= 4639 AccDes= 0.00D+00 IRadAn=         5 IDoV= 1 UseB2=F ITyADJ=14
 ICtDFT=  3500011 ScaDFX=  1.000000  1.000000  1.000000  1.000000
 FoFCou: FMM=F IPFlag=           0 FMFlag=      100000 FMFlg1=           0
         NFxFlg=           0 DoJE=T BraDBF=F KetDBF=T FulRan=T
         wScrn=  0.000000 ICntrl=       500 IOpCl=  0 I1Cent=   200000004 NGrid=           0
         NMat0=    1 NMatS0=      1 NMatT0=    0 NMatD0=    1 NMtDS0=    0 NMtDT0=    0
 Petite list used in FoFCou.
 Initial guess <Sx>= 0.0000 <Sy>= 0.0000 <Sz>= 0.5000 <S**2>= 0.7500 S= 0.5000
 Requested convergence on RMS density matrix=1.00D-08 within 128 cycles.
 Requested convergence on MAX density matrix=1.00D-06.
 Requested convergence on             energy=1.00D-06.
 No special actions if energy rises.
 Integral accuracy reduced to 1.0D-05 until final iterations.
 Initial convergence to 1.0D-05 achieved.  Increase integral accuracy.
 SCF Done:  E(UwB97XD) =  -2997.78960031     A.U. after   36 cycles
            NFock= 36  Conv=0.31D-08     -V/T= 2.0018
 <Sx>= 0.0000 <Sy>= 0.0000 <Sz>= 0.5000 <S**2>= 0.7632 S= 0.5066
 <L.S>= 0.000000000000E+00
 Annihilation of the first spin contaminant:
 S**2 before annihilation     0.7632,   after     0.7501

 **********************************************************************

            Population analysis using the SCF Density.

 **********************************************************************

 Orbital symmetries:
 Alpha Orbitals:
       Occupied  (A) (A) (A) (A) (A) (A) (A) (A) (A) (A) (A) (A)
                 (A) (A) (A) (A) (A) (A) (A) (A) (A) (A) (A) (A)
                 (A) (A) (A) (A) (A) (A) (A) (A) (A) (A) (A) (A)
                 (A) (A) (A) (A) (A) (A) (A) (A) (A) (A) (A) (A)
                 (A) (A) (A) (A) (A) (A)
       Virtual   (A) (A) (A) (A) (A) (A) (A) (A) (A) (A) (A) (A)
                 (A) (A) (A) (A) (A) (A) (A) (A) (A) (A) (A) (A)
                 (A) (A) (A) (A) (A) (A) (A) (A) (A) (A) (A) (A)
                 (A) (A) (A) (A) (A) (A) (A) (A) (A) (A) (A) (A)
                 (A) (A) (A) (A) (A) (A) (A) (A) (A) (A) (A) (A)
                 (A) (A) (A) (A) (A) (A) (A) (A) (A) (A) (A) (A)
                 (A) (A) (A) (A) (A) (A) (A) (A) (A) (A) (A) (A)
                 (A) (A) (A) (A) (A) (A) (A) (A) (A) (A) (A) (A)
                 (A) (A) (A) (A) (A) (A) (A) (A) (A) (A) (A) (A)
                 (A) (A) (A) (A) (A) (A) (A) (A) (A) (A) (A) (A)
                 (A) (A) (A) (A) (A) (A) (A) (A) (A) (A) (A) (A)
                 (A) (A) (A) (A) (A) (A) (A) (A) (A) (A) (A) (A)
                 (A) (A) (A) (A) (A) (A) (A) (A) (A) (A) (A) (A)
                 (A) (A) (A) (A) (A) (A) (A) (A) (A) (A) (A) (A)
                 (A) (A) (A) (A) (A) (A) (A) (A) (A) (A) (A) (A)
                 (A) (A) (A) (A) (A) (A) (A) (A) (A) (A) (A) (A)
                 (A) (A) (A) (A) (A) (A) (A) (A) (A) (A) (A) (A)
                 (A) (A) (A) (A) (A) (A) (A) (A) (A) (A) (A) (A)
                 (A) (A) (A) (A) (A) (A) (A) (A) (A) (A) (A) (A)
                 (A) (A) (A) (A) (A) (A) (A) (A) (A) (A) (A) (A)
                 (A) (A) (A) (A) (A) (A) (A) (A) (A) (A) (A) (A)
                 (A) (A) (A) (A) (A) (A) (A) (A) (A) (A) (A) (A)
                 (A) (A) (A) (A) (A) (A) (A) (A) (A) (A) (A) (A)
                 (A) (A) (A) (A) (A) (A) (A) (A) (A) (A) (A) (A)
                 (A) (A) (A) (A) (A) (A) (A) (A) (A) (A) (A) (A)
                 (A) (A) (A) (A) (A) (A) (A) (A) (A) (A) (A) (A)
                 (A) (A) (A) (A) (A) (A) (A) (A) (A) (A) (A) (A)
                 (A) (A) (A) (A) (A) (A) (A) (A) (A) (A) (A) (A)
                 (A) (A) (A) (A) (A) (A) (A) (A) (A) (A) (A) (A)
                 (A) (A) (A) (A) (A) (A) (A) (A) (A) (A)
 Beta  Orbitals:
       Occupied  (A) (A) (A) (A) (A) (A) (A) (A) (A) (A) (A) (A)
                 (A) (A) (A) (A) (A) (A) (A) (A) (A) (A) (A) (A)
                 (A) (A) (A) (A) (A) (A) (A) (A) (A) (A) (A) (A)
                 (A) (A) (A) (A) (A) (A) (A) (A) (A) (A) (A) (A)
                 (A) (A) (A) (A) (A)
       Virtual   (A) (A) (A) (A) (A) (A) (A) (A) (A) (A) (A) (A)
                 (A) (A) (A) (A) (A) (A) (A) (A) (A) (A) (A) (A)
                 (A) (A) (A) (A) (A) (A) (A) (A) (A) (A) (A) (A)
                 (A) (A) (A) (A) (A) (A) (A) (A) (A) (A) (A) (A)
                 (A) (A) (A) (A) (A) (A) (A) (A) (A) (A) (A) (A)
                 (A) (A) (A) (A) (A) (A) (A) (A) (A) (A) (A) (A)
                 (A) (A) (A) (A) (A) (A) (A) (A) (A) (A) (A) (A)
                 (A) (A) (A) (A) (A) (A) (A) (A) (A) (A) (A) (A)
                 (A) (A) (A) (A) (A) (A) (A) (A) (A) (A) (A) (A)
                 (A) (A) (A) (A) (A) (A) (A) (A) (A) (A) (A) (A)
                 (A) (A) (A) (A) (A) (A) (A) (A) (A) (A) (A) (A)
                 (A) (A) (A) (A) (A) (A) (A) (A) (A) (A) (A) (A)
                 (A) (A) (A) (A) (A) (A) (A) (A) (A) (A) (A) (A)
                 (A) (A) (A) (A) (A) (A) (A) (A) (A) (A) (A) (A)
                 (A) (A) (A) (A) (A) (A) (A) (A) (A) (A) (A) (A)
                 (A) (A) (A) (A) (A) (A) (A) (A) (A) (A) (A) (A)
                 (A) (A) (A) (A) (A) (A) (A) (A) (A) (A) (A) (A)
                 (A) (A) (A) (A) (A) (A) (A) (A) (A) (A) (A) (A)
                 (A) (A) (A) (A) (A) (A) (A) (A) (A) (A) (A) (A)
                 (A) (A) (A) (A) (A) (A) (A) (A) (A) (A) (A) (A)
                 (A) (A) (A) (A) (A) (A) (A) (A) (A) (A) (A) (A)
                 (A) (A) (A) (A) (A) (A) (A) (A) (A) (A) (A) (A)
                 (A) (A) (A) (A) (A) (A) (A) (A) (A) (A) (A) (A)
                 (A) (A) (A) (A) (A) (A) (A) (A) (A) (A) (A) (A)
                 (A) (A) (A) (A) (A) (A) (A) (A) (A) (A) (A) (A)
                 (A) (A) (A) (A) (A) (A) (A) (A) (A) (A) (A) (A)
                 (A) (A) (A) (A) (A) (A) (A) (A) (A) (A) (A) (A)
                 (A) (A) (A) (A) (A) (A) (A) (A) (A) (A) (A) (A)
                 (A) (A) (A) (A) (A) (A) (A) (A) (A) (A) (A) (A)
                 (A) (A) (A) (A) (A) (A) (A) (A) (A) (A) (A)
 The electronic state is 2-A.
 Alpha  occ. eigenvalues -- -482.96294 -62.51154 -56.30220 -56.29935 -56.29930
 Alpha  occ. eigenvalues --  -19.12512 -10.20859 -10.16858 -10.15873 -10.14302
 Alpha  occ. eigenvalues --  -10.13604 -10.10814 -10.09132 -10.08279 -10.07883
 Alpha  occ. eigenvalues --   -8.65294  -6.47311  -6.46384  -6.46366  -2.57734
 Alpha  occ. eigenvalues --   -2.57453  -2.57441  -2.56684  -2.56683  -1.01992
 Alpha  occ. eigenvalues --   -0.79053  -0.76968  -0.73470  -0.68195  -0.65797
 Alpha  occ. eigenvalues --   -0.60588  -0.57574  -0.53033  -0.49875  -0.44569
 Alpha  occ. eigenvalues --   -0.43312  -0.42824  -0.38832  -0.37931  -0.36082
 Alpha  occ. eigenvalues --   -0.34363  -0.33518  -0.32616  -0.30888  -0.29363
 Alpha  occ. eigenvalues --   -0.28466  -0.26783  -0.25651  -0.23328  -0.21931
 Alpha  occ. eigenvalues --   -0.21146  -0.15286  -0.13410   0.03984
 Alpha virt. eigenvalues --    0.22113   0.23811   0.24652   0.26036   0.26354
 Alpha virt. eigenvalues --    0.28001   0.29098   0.29672   0.30473   0.31655
 Alpha virt. eigenvalues --    0.32127   0.33340   0.35463   0.36534   0.37961
 Alpha virt. eigenvalues --    0.38654   0.39114   0.40471   0.41092   0.42429
 Alpha virt. eigenvalues --    0.43607   0.44270   0.44419   0.45297   0.46029
 Alpha virt. eigenvalues --    0.47022   0.47855   0.48461   0.48806   0.50678
 Alpha virt. eigenvalues --    0.50868   0.51835   0.53657   0.54170   0.54949
 Alpha virt. eigenvalues --    0.55204   0.56971   0.58062   0.58380   0.58632
 Alpha virt. eigenvalues --    0.59392   0.60421   0.60794   0.61659   0.62040
 Alpha virt. eigenvalues --    0.62404   0.62841   0.64212   0.64441   0.65539
 Alpha virt. eigenvalues --    0.66257   0.66718   0.67887   0.68530   0.68772
 Alpha virt. eigenvalues --    0.69681   0.71418   0.72486   0.74082   0.75705
 Alpha virt. eigenvalues --    0.76587   0.78048   0.79604   0.80322   0.81713
 Alpha virt. eigenvalues --    0.82524   0.82819   0.87070   0.87591   0.89239
 Alpha virt. eigenvalues --    0.90669   0.91932   0.92539   0.94918   0.96363
 Alpha virt. eigenvalues --    0.96738   0.97835   0.99420   0.99784   1.01391
 Alpha virt. eigenvalues --    1.02603   1.04444   1.05206   1.06057   1.07731
 Alpha virt. eigenvalues --    1.09186   1.09739   1.10341   1.12292   1.13167
 Alpha virt. eigenvalues --    1.15602   1.17240   1.18290   1.18865   1.19768
 Alpha virt. eigenvalues --    1.22717   1.24960   1.26579   1.28016   1.29837
 Alpha virt. eigenvalues --    1.31748   1.33583   1.34335   1.35622   1.36542
 Alpha virt. eigenvalues --    1.37836   1.38605   1.40700   1.43390   1.44355
 Alpha virt. eigenvalues --    1.46878   1.47514   1.48690   1.49551   1.50673
 Alpha virt. eigenvalues --    1.52480   1.55724   1.57666   1.58626   1.58860
 Alpha virt. eigenvalues --    1.60650   1.61591   1.63886   1.64087   1.67315
 Alpha virt. eigenvalues --    1.68796   1.70301   1.70867   1.72034   1.73417
 Alpha virt. eigenvalues --    1.75102   1.76225   1.76928   1.78217   1.78266
 Alpha virt. eigenvalues --    1.79572   1.80315   1.81475   1.83157   1.83807
 Alpha virt. eigenvalues --    1.85334   1.85933   1.87621   1.88413   1.88859
 Alpha virt. eigenvalues --    1.90807   1.91110   1.93684   1.94989   1.95902
 Alpha virt. eigenvalues --    1.98649   1.98816   1.99782   2.00647   2.03610
 Alpha virt. eigenvalues --    2.05887   2.06861   2.07330   2.09114   2.11890
 Alpha virt. eigenvalues --    2.13486   2.14650   2.15741   2.16321   2.17034
 Alpha virt. eigenvalues --    2.20887   2.21230   2.23384   2.26545   2.27527
 Alpha virt. eigenvalues --    2.29311   2.30576   2.31321   2.34799   2.38862
 Alpha virt. eigenvalues --    2.40461   2.41834   2.43993   2.45169   2.47170
 Alpha virt. eigenvalues --    2.47294   2.52058   2.52919   2.55496   2.56500
 Alpha virt. eigenvalues --    2.57601   2.60957   2.62018   2.64848   2.65442
 Alpha virt. eigenvalues --    2.70067   2.72701   2.74006   2.74539   2.75694
 Alpha virt. eigenvalues --    2.77572   2.80194   2.81087   2.83156   2.85075
 Alpha virt. eigenvalues --    2.85577   2.87529   2.88009   2.89309   2.90430
 Alpha virt. eigenvalues --    2.91215   2.93713   2.95575   2.97167   2.97633
 Alpha virt. eigenvalues --    2.98855   3.00010   3.00365   3.03986   3.04399
 Alpha virt. eigenvalues --    3.05214   3.07527   3.09019   3.11487   3.12872
 Alpha virt. eigenvalues --    3.13461   3.14150   3.15875   3.17594   3.19552
 Alpha virt. eigenvalues --    3.21627   3.23185   3.24701   3.26058   3.27500
 Alpha virt. eigenvalues --    3.28547   3.29913   3.31439   3.32404   3.34566
 Alpha virt. eigenvalues --    3.36761   3.39393   3.39942   3.41347   3.41669
 Alpha virt. eigenvalues --    3.42888   3.44874   3.45710   3.47228   3.48604
 Alpha virt. eigenvalues --    3.49008   3.51442   3.52378   3.53672   3.54406
 Alpha virt. eigenvalues --    3.56180   3.58103   3.59892   3.61075   3.63055
 Alpha virt. eigenvalues --    3.63259   3.64074   3.65404   3.66428   3.68918
 Alpha virt. eigenvalues --    3.69524   3.70513   3.71582   3.73186   3.73433
 Alpha virt. eigenvalues --    3.74489   3.77335   3.77945   3.79114   3.80203
 Alpha virt. eigenvalues --    3.82853   3.85427   3.86904   3.89230   3.90766
 Alpha virt. eigenvalues --    3.92378   3.95592   3.99418   4.01052   4.02579
 Alpha virt. eigenvalues --    4.06201   4.08359   4.10599   4.11926   4.13355
 Alpha virt. eigenvalues --    4.18339   4.20866   4.21359   4.26967   4.27897
 Alpha virt. eigenvalues --    4.28670   4.31535   4.34386   4.35186   4.36926
 Alpha virt. eigenvalues --    4.39113   4.40117   4.44803   4.46598   4.48193
 Alpha virt. eigenvalues --    4.50291   4.51348   4.52901   4.54104   4.55215
 Alpha virt. eigenvalues --    4.57614   4.58400   4.61131   4.65586   4.67039
 Alpha virt. eigenvalues --    4.68259   4.70761   4.78362   4.80565   4.82230
 Alpha virt. eigenvalues --    4.85424   4.86491   4.92451   4.93530   4.97529
 Alpha virt. eigenvalues --    4.98625   5.03621   5.04653   5.12338   5.13509
 Alpha virt. eigenvalues --    5.16966   5.19707   5.28081   5.35018   5.45852
 Alpha virt. eigenvalues --    5.49755   5.59322   5.62535   5.70138   5.72136
 Alpha virt. eigenvalues --    5.81500   5.91804   6.06161   6.18762   6.28204
 Alpha virt. eigenvalues --    6.62654   6.78783   6.92798   7.07142   7.15801
 Alpha virt. eigenvalues --    7.46128   7.69673   8.01954  22.38490  22.71272
 Alpha virt. eigenvalues --   22.75661  22.86911  23.00613  23.09495  23.20817
 Alpha virt. eigenvalues --   23.24278  23.74884  44.57885
  Beta  occ. eigenvalues -- -482.96296 -62.51152 -56.30225 -56.29935 -56.29923
  Beta  occ. eigenvalues --  -19.12526 -10.20860 -10.16969 -10.15868 -10.14333
  Beta  occ. eigenvalues --  -10.13264 -10.10946 -10.08825 -10.07899 -10.07508
  Beta  occ. eigenvalues --   -8.65294  -6.47322  -6.46384  -6.46356  -2.57740
  Beta  occ. eigenvalues --   -2.57459  -2.57433  -2.56679  -2.56678  -1.02018
  Beta  occ. eigenvalues --   -0.78436  -0.76833  -0.73145  -0.67966  -0.65095
  Beta  occ. eigenvalues --   -0.60353  -0.57343  -0.52133  -0.49715  -0.44365
  Beta  occ. eigenvalues --   -0.43004  -0.42598  -0.38726  -0.37680  -0.35828
  Beta  occ. eigenvalues --   -0.34083  -0.33054  -0.32345  -0.30552  -0.28856
  Beta  occ. eigenvalues --   -0.28066  -0.26261  -0.25423  -0.23102  -0.21123
  Beta  occ. eigenvalues --   -0.21041  -0.12262  -0.11665
  Beta virt. eigenvalues --    0.22013   0.24054   0.24207   0.24741   0.26003
  Beta virt. eigenvalues --    0.26634   0.28264   0.29135   0.29724   0.30525
  Beta virt. eigenvalues --    0.31733   0.32249   0.33493   0.35490   0.36532
  Beta virt. eigenvalues --    0.38106   0.38751   0.40374   0.40689   0.41215
  Beta virt. eigenvalues --    0.42429   0.43640   0.44229   0.44421   0.45556
  Beta virt. eigenvalues --    0.46030   0.47065   0.48201   0.48670   0.48910
  Beta virt. eigenvalues --    0.50848   0.50973   0.52160   0.53828   0.54312
  Beta virt. eigenvalues --    0.54957   0.55362   0.57134   0.58135   0.58597
  Beta virt. eigenvalues --    0.59045   0.59514   0.60650   0.60999   0.61816
  Beta virt. eigenvalues --    0.62160   0.62436   0.62919   0.64406   0.64661
  Beta virt. eigenvalues --    0.65673   0.66435   0.66890   0.68080   0.68725
  Beta virt. eigenvalues --    0.69024   0.69933   0.71554   0.72613   0.74161
  Beta virt. eigenvalues --    0.75780   0.76814   0.78189   0.79858   0.80525
  Beta virt. eigenvalues --    0.81828   0.82533   0.82969   0.87008   0.87691
  Beta virt. eigenvalues --    0.89412   0.90694   0.92018   0.92690   0.95005
  Beta virt. eigenvalues --    0.96463   0.96966   0.98220   0.99560   1.00294
  Beta virt. eigenvalues --    1.01629   1.02702   1.04602   1.05461   1.06174
  Beta virt. eigenvalues --    1.08000   1.09259   1.09920   1.10509   1.12528
  Beta virt. eigenvalues --    1.13519   1.16020   1.17654   1.18634   1.18943
  Beta virt. eigenvalues --    1.20224   1.22903   1.25166   1.26729   1.28319
  Beta virt. eigenvalues --    1.30081   1.31981   1.33820   1.34517   1.35931
  Beta virt. eigenvalues --    1.36994   1.37993   1.38803   1.40973   1.43710
  Beta virt. eigenvalues --    1.44499   1.47294   1.47788   1.49000   1.49662
  Beta virt. eigenvalues --    1.51202   1.52874   1.55976   1.58031   1.58792
  Beta virt. eigenvalues --    1.59017   1.60838   1.61879   1.64109   1.64524
  Beta virt. eigenvalues --    1.67459   1.69368   1.70572   1.71205   1.72292
  Beta virt. eigenvalues --    1.73927   1.75269   1.76383   1.77201   1.78339
  Beta virt. eigenvalues --    1.78505   1.79847   1.80493   1.81768   1.83419
  Beta virt. eigenvalues --    1.83988   1.85421   1.86268   1.87956   1.88628
  Beta virt. eigenvalues --    1.89111   1.91129   1.91339   1.93914   1.95181
  Beta virt. eigenvalues --    1.96207   1.99109   1.99270   2.00011   2.00920
  Beta virt. eigenvalues --    2.03828   2.06400   2.07169   2.07615   2.09221
  Beta virt. eigenvalues --    2.12135   2.13735   2.15069   2.15957   2.16954
  Beta virt. eigenvalues --    2.17395   2.21216   2.21467   2.23675   2.26800
  Beta virt. eigenvalues --    2.27742   2.29561   2.30829   2.31598   2.35007
  Beta virt. eigenvalues --    2.39179   2.40668   2.42218   2.44411   2.45573
  Beta virt. eigenvalues --    2.47561   2.47623   2.52378   2.53243   2.55746
  Beta virt. eigenvalues --    2.56741   2.57783   2.61211   2.62277   2.65099
  Beta virt. eigenvalues --    2.65601   2.70253   2.72902   2.74147   2.74765
  Beta virt. eigenvalues --    2.75863   2.77908   2.80394   2.81239   2.83303
  Beta virt. eigenvalues --    2.85330   2.85775   2.87754   2.88360   2.89626
  Beta virt. eigenvalues --    2.90712   2.91576   2.93887   2.95798   2.97447
  Beta virt. eigenvalues --    2.97818   2.99393   3.00291   3.00716   3.04327
  Beta virt. eigenvalues --    3.04856   3.05616   3.07944   3.09183   3.12119
  Beta virt. eigenvalues --    3.13281   3.13914   3.14477   3.16137   3.17920
  Beta virt. eigenvalues --    3.19974   3.22024   3.23525   3.25000   3.26635
  Beta virt. eigenvalues --    3.27957   3.28910   3.30318   3.31854   3.32726
  Beta virt. eigenvalues --    3.34793   3.37066   3.39743   3.40291   3.41578
  Beta virt. eigenvalues --    3.42059   3.43044   3.45244   3.46027   3.47831
  Beta virt. eigenvalues --    3.48947   3.49306   3.51802   3.52869   3.53993
  Beta virt. eigenvalues --    3.54714   3.56533   3.58417   3.60229   3.61359
  Beta virt. eigenvalues --    3.63389   3.63702   3.64709   3.65579   3.66803
  Beta virt. eigenvalues --    3.69379   3.69829   3.70848   3.72069   3.73498
  Beta virt. eigenvalues --    3.73728   3.74705   3.77751   3.78260   3.79236
  Beta virt. eigenvalues --    3.80590   3.83624   3.85745   3.87290   3.89468
  Beta virt. eigenvalues --    3.91040   3.92796   3.96050   3.99586   4.01411
  Beta virt. eigenvalues --    4.02842   4.06533   4.08698   4.11021   4.12194
  Beta virt. eigenvalues --    4.13575   4.18458   4.21052   4.21499   4.27020
  Beta virt. eigenvalues --    4.28035   4.29033   4.31910   4.34529   4.35283
  Beta virt. eigenvalues --    4.37078   4.39609   4.40492   4.45114   4.47072
  Beta virt. eigenvalues --    4.48734   4.50685   4.51984   4.53221   4.54964
  Beta virt. eigenvalues --    4.55854   4.57900   4.58702   4.61419   4.65845
  Beta virt. eigenvalues --    4.67288   4.68444   4.70965   4.78515   4.80766
  Beta virt. eigenvalues --    4.82493   4.85694   4.86837   4.92617   4.94042
  Beta virt. eigenvalues --    4.98111   4.98978   5.03956   5.04836   5.12542
  Beta virt. eigenvalues --    5.13717   5.17186   5.19982   5.28434   5.35274
  Beta virt. eigenvalues --    5.46157   5.50028   5.59605   5.62567   5.70342
  Beta virt. eigenvalues --    5.72424   5.81797   5.91960   6.06166   6.18734
  Beta virt. eigenvalues --    6.28193   6.62634   6.78812   6.92749   7.07104
  Beta virt. eigenvalues --    7.15750   7.46113   7.69665   8.01977  22.38803
  Beta virt. eigenvalues --   22.71289  22.75665  22.86917  23.00678  23.09943
  Beta virt. eigenvalues --   23.21210  23.24534  23.75062  44.57871
          Condensed to atoms (all electrons):
               1          2          3          4          5          6
     1  Br  35.124170   0.245467  -0.089162   0.028914  -0.008496   0.028930
     2  C    0.245467   5.524831   0.227858   0.125655  -0.223171   0.296002
     3  C   -0.089162   0.227858   5.247986   0.219208   0.196011  -0.247216
     4  C    0.028914   0.125655   0.219208   5.831724  -0.113651   0.213178
     5  C   -0.008496  -0.223171   0.196011  -0.113651   5.992355  -0.033761
     6  C    0.028930   0.296002  -0.247216   0.213178  -0.033761   5.382995
     7  C   -0.071627  -0.106053   0.141777  -0.177881   0.155680   0.009129
     8  O   -0.000231  -0.001124   0.001031   0.006657  -0.096343   0.339920
     9  C    0.000038   0.001967  -0.001423   0.002111  -0.058277  -0.026180
    10  C   -0.000018  -0.001306   0.001692  -0.000765   0.027655  -0.040160
    11  C   -0.000049  -0.003644   0.014781  -0.126282   0.336922  -0.044299
    12  H   -0.003530  -0.113683   0.489866  -0.105292   0.028389  -0.009560
    13  H   -0.000772   0.018234  -0.086015   0.488753  -0.115800   0.013005
    14  H   -0.010115  -0.126729   0.027483  -0.012005   0.040049  -0.141522
    15  H   -0.000002   0.000280  -0.000060   0.000226  -0.007853   0.008743
    16  H    0.000003  -0.001116   0.000195  -0.000180  -0.000993   0.000777
    17  H    0.000001  -0.000227   0.000169   0.002851  -0.010459  -0.001518
    18  H    0.000000   0.000048  -0.000032  -0.000563   0.016001   0.000569
    19  H    0.000003  -0.001216   0.001367   0.039826  -0.063264  -0.031653
    20  H    0.000004  -0.000480  -0.001524   0.010721  -0.091181   0.001270
               7          8          9         10         11         12
     1  Br  -0.071627  -0.000231   0.000038  -0.000018  -0.000049  -0.003530
     2  C   -0.106053  -0.001124   0.001967  -0.001306  -0.003644  -0.113683
     3  C    0.141777   0.001031  -0.001423   0.001692   0.014781   0.489866
     4  C   -0.177881   0.006657   0.002111  -0.000765  -0.126282  -0.105292
     5  C    0.155680  -0.096343  -0.058277   0.027655   0.336922   0.028389
     6  C    0.009129   0.339920  -0.026180  -0.040160  -0.044299  -0.009560
     7  C    6.037468  -0.045306  -0.004777  -0.000668   0.021218   0.025351
     8  O   -0.045306   7.954068   0.297121  -0.058309  -0.015149   0.000035
     9  C   -0.004777   0.297121   4.772911   0.254159   0.016468  -0.000013
    10  C   -0.000668  -0.058309   0.254159   5.063029   0.275525   0.000036
    11  C    0.021218  -0.015149   0.016468   0.275525   5.014454  -0.000067
    12  H    0.025351   0.000035  -0.000013   0.000036  -0.000067   0.647870
    13  H   -0.001903  -0.000256  -0.000139   0.000510  -0.008982  -0.013745
    14  H    0.525710   0.010372  -0.001491   0.000648  -0.000266   0.000115
    15  H   -0.002335  -0.040627   0.402685  -0.036871   0.012914   0.000000
    16  H    0.010865  -0.052836   0.398826  -0.072531   0.000855  -0.000000
    17  H    0.001771   0.005686  -0.036677   0.387343  -0.021141  -0.000002
    18  H   -0.000516   0.006861  -0.040117   0.394030  -0.062172  -0.000001
    19  H    0.002200   0.002618  -0.038571   0.005163   0.321497  -0.000009
    20  H    0.001790  -0.001300   0.024035  -0.041637   0.421705  -0.000075
              13         14         15         16         17         18
     1  Br  -0.000772  -0.010115  -0.000002   0.000003   0.000001   0.000000
     2  C    0.018234  -0.126729   0.000280  -0.001116  -0.000227   0.000048
     3  C   -0.086015   0.027483  -0.000060   0.000195   0.000169  -0.000032
     4  C    0.488753  -0.012005   0.000226  -0.000180   0.002851  -0.000563
     5  C   -0.115800   0.040049  -0.007853  -0.000993  -0.010459   0.016001
     6  C    0.013005  -0.141522   0.008743   0.000777  -0.001518   0.000569
     7  C   -0.001903   0.525710  -0.002335   0.010865   0.001771  -0.000516
     8  O   -0.000256   0.010372  -0.040627  -0.052836   0.005686   0.006861
     9  C   -0.000139  -0.001491   0.402685   0.398826  -0.036677  -0.040117
    10  C    0.000510   0.000648  -0.036871  -0.072531   0.387343   0.394030
    11  C   -0.008982  -0.000266   0.012914   0.000855  -0.021141  -0.062172
    12  H   -0.013745   0.000115   0.000000  -0.000000  -0.000002  -0.000001
    13  H    0.667336   0.000103   0.000004  -0.000028   0.000028  -0.000087
    14  H    0.000103   0.631654  -0.000359   0.000303   0.000061  -0.000023
    15  H    0.000004  -0.000359   0.669439  -0.063992  -0.011604  -0.002927
    16  H   -0.000028   0.000303  -0.063992   0.718253   0.012582   0.000882
    17  H    0.000028   0.000061  -0.011604   0.012582   0.635587  -0.037339
    18  H   -0.000087  -0.000023  -0.002927   0.000882  -0.037339   0.679503
    19  H    0.000127   0.000059  -0.000761   0.004698   0.008587   0.002808
    20  H    0.005901   0.000035  -0.000183  -0.000244  -0.007867  -0.012305
              19         20
     1  Br   0.000003   0.000004
     2  C   -0.001216  -0.000480
     3  C    0.001367  -0.001524
     4  C    0.039826   0.010721
     5  C   -0.063264  -0.091181
     6  C   -0.031653   0.001270
     7  C    0.002200   0.001790
     8  O    0.002618  -0.001300
     9  C   -0.038571   0.024035
    10  C    0.005163  -0.041637
    11  C    0.321497   0.421705
    12  H   -0.000009  -0.000075
    13  H    0.000127   0.005901
    14  H    0.000059   0.000035
    15  H   -0.000761  -0.000183
    16  H    0.004698  -0.000244
    17  H    0.008587  -0.007867
    18  H    0.002808  -0.012305
    19  H    0.816618  -0.104888
    20  H   -0.104888   0.739455
          Atomic-Atomic Spin Densities.
               1          2          3          4          5          6
     1  Br   0.023795  -0.041490   0.000317   0.002093  -0.000831  -0.000735
     2  C   -0.041490   0.509503   0.053077  -0.099286   0.051068   0.004395
     3  C    0.000317   0.053077  -0.132176  -0.010708   0.004535   0.006670
     4  C    0.002093  -0.099286  -0.010708   0.626856  -0.222052  -0.021243
     5  C   -0.000831   0.051068   0.004535  -0.222052   0.509595  -0.002671
     6  C   -0.000735   0.004395   0.006670  -0.021243  -0.002671  -0.073831
     7  C    0.021856  -0.247897  -0.015966   0.068000  -0.084751  -0.013160
     8  O    0.000006  -0.000385  -0.000035   0.000561   0.003856   0.004245
     9  C    0.000000   0.001195  -0.000646  -0.000995  -0.025976   0.019673
    10  C   -0.000003  -0.000795   0.001121   0.000284   0.041273  -0.020144
    11  C   -0.000018   0.004063  -0.003318  -0.019965  -0.014153   0.043474
    12  H    0.000361   0.000201   0.000236   0.000112  -0.000114   0.000030
    13  H    0.000011  -0.001256   0.003678  -0.001268   0.002559  -0.000162
    14  H    0.000849   0.002287  -0.001225   0.000377  -0.000989   0.002584
    15  H    0.000000   0.000034  -0.000012  -0.000003  -0.001749   0.000847
    16  H    0.000002  -0.000291   0.000071   0.000683   0.000467  -0.004908
    17  H   -0.000000   0.000042  -0.000019  -0.000129  -0.000976   0.000249
    18  H   -0.000000  -0.000017   0.000041   0.000084   0.006037  -0.002267
    19  H    0.000007  -0.001735   0.001533   0.026956  -0.010775  -0.021682
    20  H    0.000006  -0.000198  -0.002210   0.009947  -0.050176   0.013130
               7          8          9         10         11         12
     1  Br   0.021856   0.000006   0.000000  -0.000003  -0.000018   0.000361
     2  C   -0.247897  -0.000385   0.001195  -0.000795   0.004063   0.000201
     3  C   -0.015966  -0.000035  -0.000646   0.001121  -0.003318   0.000236
     4  C    0.068000   0.000561  -0.000995   0.000284  -0.019965   0.000112
     5  C   -0.084751   0.003856  -0.025976   0.041273  -0.014153  -0.000114
     6  C   -0.013160   0.004245   0.019673  -0.020144   0.043474   0.000030
     7  C    0.615115   0.003234  -0.000348  -0.001819  -0.004628  -0.000102
     8  O    0.003234  -0.005924  -0.011506   0.007922  -0.006887  -0.000000
     9  C   -0.000348  -0.011506   0.037678  -0.039790   0.042873  -0.000002
    10  C   -0.001819   0.007922  -0.039790   0.040655  -0.047647   0.000005
    11  C   -0.004628  -0.006887   0.042873  -0.047647   0.051356  -0.000004
    12  H   -0.000102  -0.000000  -0.000002   0.000005  -0.000004   0.003314
    13  H    0.000173   0.000000   0.000149  -0.000486   0.001702   0.000594
    14  H    0.000924   0.000333  -0.000251   0.000123  -0.000122  -0.000002
    15  H    0.000148  -0.001406   0.005098  -0.005275   0.003056  -0.000000
    16  H    0.000957   0.003237  -0.006005   0.009323  -0.007917   0.000000
    17  H    0.000008  -0.000046   0.000578   0.001175   0.000152  -0.000000
    18  H   -0.000104   0.000691  -0.009361   0.006547  -0.014307   0.000000
    19  H    0.002900   0.001913  -0.020499   0.032478  -0.072494   0.000009
    20  H    0.000873  -0.000569   0.010144  -0.015619   0.019208  -0.000016
              13         14         15         16         17         18
     1  Br   0.000011   0.000849   0.000000   0.000002  -0.000000  -0.000000
     2  C   -0.001256   0.002287   0.000034  -0.000291   0.000042  -0.000017
     3  C    0.003678  -0.001225  -0.000012   0.000071  -0.000019   0.000041
     4  C   -0.001268   0.000377  -0.000003   0.000683  -0.000129   0.000084
     5  C    0.002559  -0.000989  -0.001749   0.000467  -0.000976   0.006037
     6  C   -0.000162   0.002584   0.000847  -0.004908   0.000249  -0.002267
     7  C    0.000173   0.000924   0.000148   0.000957   0.000008  -0.000104
     8  O    0.000000   0.000333  -0.001406   0.003237  -0.000046   0.000691
     9  C    0.000149  -0.000251   0.005098  -0.006005   0.000578  -0.009361
    10  C   -0.000486   0.000123  -0.005275   0.009323   0.001175   0.006547
    11  C    0.001702  -0.000122   0.003056  -0.007917   0.000152  -0.014307
    12  H    0.000594  -0.000002  -0.000000   0.000000  -0.000000   0.000000
    13  H   -0.025721  -0.000005   0.000002  -0.000014   0.000001  -0.000033
    14  H   -0.000005  -0.022676  -0.000017   0.000023  -0.000000   0.000003
    15  H    0.000002  -0.000017   0.004202  -0.001605  -0.000060  -0.001766
    16  H   -0.000014   0.000023  -0.001605  -0.000031  -0.000149   0.001867
    17  H    0.000001  -0.000000  -0.000060  -0.000149  -0.000469  -0.000369
    18  H   -0.000033   0.000003  -0.001766   0.001867  -0.000369   0.013821
    19  H   -0.001583   0.000029  -0.000982   0.004975  -0.000169   0.012442
    20  H    0.002248  -0.000018   0.000410  -0.001106   0.000168  -0.009173
              19         20
     1  Br   0.000007   0.000006
     2  C   -0.001735  -0.000198
     3  C    0.001533  -0.002210
     4  C    0.026956   0.009947
     5  C   -0.010775  -0.050176
     6  C   -0.021682   0.013130
     7  C    0.002900   0.000873
     8  O    0.001913  -0.000569
     9  C   -0.020499   0.010144
    10  C    0.032478  -0.015619
    11  C   -0.072494   0.019208
    12  H    0.000009  -0.000016
    13  H   -0.001583   0.002248
    14  H    0.000029  -0.000018
    15  H   -0.000982   0.000410
    16  H    0.004975  -0.001106
    17  H   -0.000169   0.000168
    18  H    0.012442  -0.009173
    19  H    0.138944  -0.057810
    20  H   -0.057810   0.101136
 Mulliken charges and spin densities:
               1          2
     1  Br  -0.243529   0.006227
     2  C    0.138407   0.232516
     3  C   -0.143993  -0.095036
     4  C   -0.433206   0.360303
     5  C    0.030187   0.204177
     6  C    0.281351  -0.065504
     7  C   -0.521893   0.345413
     8  O   -0.312888  -0.000760
     9  C    0.037344   0.002009
    10  C   -0.157525   0.009328
    11  C   -0.154289  -0.025574
    12  H    0.054316   0.004623
    13  H    0.033728  -0.019411
    14  H    0.055918  -0.017772
    15  H    0.073282   0.000921
    16  H    0.043683  -0.000422
    17  H    0.072168  -0.000013
    18  H    0.055379   0.004138
    19  H    0.034791   0.034458
    20  H    0.056769   0.020376
 Sum of Mulliken charges =  -1.00000   1.00000
 Mulliken charges and spin densities with hydrogens summed into heavy atoms:
               1          2
     1  Br  -0.243529   0.006227
     2  C    0.138407   0.232516
     3  C   -0.089676  -0.090413
     4  C   -0.399477   0.340892
     5  C    0.030187   0.204177
     6  C    0.281351  -0.065504
     7  C   -0.465974   0.327641
     8  O   -0.312888  -0.000760
     9  C    0.154308   0.002509
    10  C   -0.029978   0.013454
    11  C   -0.062730   0.029260
 Electronic spatial extent (au):  <R**2>=           3070.4229
 Charge=             -1.0000 electrons
 Dipole moment (field-independent basis, Debye):
    X=              2.1292    Y=             -0.7256    Z=             -0.0109  Tot=              2.2495
 Quadrupole moment (field-independent basis, Debye-Ang):
   XX=            -99.3079   YY=            -89.5421   ZZ=            -85.4207
   XY=             -2.5293   XZ=             -0.1790   YZ=              0.5342
 Traceless Quadrupole moment (field-independent basis, Debye-Ang):
   XX=             -7.8843   YY=              1.8815   ZZ=              6.0029
   XY=             -2.5293   XZ=             -0.1790   YZ=              0.5342
 Octapole moment (field-independent basis, Debye-Ang**2):
  XXX=            -65.6778  YYY=            -22.0622  ZZZ=              2.0298  XYY=            -38.5651
  XXY=            -11.5159  XXZ=             -0.8083  XZZ=            -27.5915  YZZ=             -9.7148
  YYZ=              1.2616  XYZ=              1.3343
 Hexadecapole moment (field-independent basis, Debye-Ang**3):
 XXXX=          -3162.5593 YYYY=           -687.6769 ZZZZ=           -138.6192 XXXY=            -33.2402
 XXXZ=             -7.3042 YYYX=             -2.2182 YYYZ=              0.8045 ZZZX=             -0.8691
 ZZZY=              1.8690 XXYY=           -626.8856 XXZZ=           -534.7087 YYZZ=           -145.9786
 XXYZ=              2.5842 YYXZ=              2.1994 ZZXY=             -1.2465
 N-N= 8.277003016908D+02 E-N=-8.811623506483D+03  KE= 2.992531489473D+03
 There are a total of      461210 grid points.
 ElSum from          density=      107.0000558974
 ElSum from atomic densities=      106.0001203532

 Hirshfeld populations at iteration   1 (CX, CA, CB, DipXYZ):
               1          2          3          4          5          6
     1  Br   0.000000  17.616799  17.581223   0.271335   0.058159  -0.004409
     2  C    0.000000   3.133700   2.944265  -0.045197  -0.037034   0.001624
     3  C    0.000000   3.053729   3.054072  -0.011596   0.028316  -0.000333
     4  C    0.000000   3.191462   2.964628   0.030421  -0.032861   0.003195
     5  C    0.000000   3.141255   2.962501   0.045866   0.033090  -0.002831
     6  C    0.000000   2.990732   2.973688   0.091795  -0.083312  -0.000410
     7  C    0.000000   3.202614   2.977271   0.006550   0.033563   0.004310
     8  O    0.000000   4.080887   4.081267   0.046636   0.149001  -0.035157
     9  C    0.000000   2.992588   2.989505  -0.053940   0.004474   0.021140
    10  C    0.000000   3.037835   3.030354  -0.015757   0.000266  -0.013891
    11  C    0.000000   3.047756   3.025095   0.000847  -0.017972   0.016193
    12  H    0.000000   0.495245   0.495313  -0.079840   0.111236  -0.002175
    13  H    0.000000   0.520770   0.493997   0.039117   0.119494  -0.002743
    14  H    0.000000   0.517003   0.490941  -0.030231  -0.128347   0.005394
    15  H    0.000000   0.489250   0.488439   0.070445  -0.106555   0.042707
    16  H    0.000000   0.491227   0.489415   0.013734   0.011952  -0.123947
    17  H    0.000000   0.489711   0.487122  -0.014760  -0.015163   0.133262
    18  H    0.000000   0.494389   0.491848   0.121085   0.019416  -0.026999
    19  H    0.000000   0.511413   0.490126   0.023824   0.021163  -0.101653
    20  H    0.000000   0.501665   0.488956   0.015955   0.090226   0.072167
       Tot   0.000000  54.000029  53.000027   0.526290   0.259113  -0.014557

 Dip from Atomic Chgs              0.311336  -0.544621   0.010303
         Total Dipole              0.837626  -0.285508  -0.004254

 Hirshfeld charges, spin densities, dipoles, and CM5 charges using IRadAn=      5:
              Q-H        S-H        Dx         Dy         Dz        Q-CM5   
     1  Br  -0.198021   0.035576   0.271335   0.058159  -0.004409  -0.182990
     2  C   -0.077965   0.189434  -0.045197  -0.037034   0.001624  -0.099083
     3  C   -0.107801  -0.000344  -0.011596   0.028316  -0.000333  -0.161874
     4  C   -0.156090   0.226834   0.030421  -0.032861   0.003195  -0.209435
     5  C   -0.103757   0.178754   0.045866   0.033090  -0.002831  -0.114169
     6  C    0.035580   0.017044   0.091795  -0.083312  -0.000410   0.055299
     7  C   -0.179884   0.225343   0.006550   0.033563   0.004310  -0.228154
     8  O   -0.162154  -0.000381   0.046636   0.149001  -0.035157  -0.246578
     9  C    0.017907   0.003082  -0.053940   0.004474   0.021140  -0.063211
    10  C   -0.068189   0.007480  -0.015757   0.000266  -0.013891  -0.175026
    11  C   -0.072850   0.022661   0.000847  -0.017972   0.016193  -0.175659
    12  H    0.009443  -0.000068  -0.079840   0.111236  -0.002175   0.066655
    13  H   -0.014767   0.026773   0.039117   0.119494  -0.002743   0.042224
    14  H   -0.007945   0.026062  -0.030231  -0.128347   0.005394   0.052827
    15  H    0.022311   0.000810   0.070445  -0.106555   0.042707   0.086571
    16  H    0.019358   0.001813   0.013734   0.011952  -0.123947   0.082846
    17  H    0.023167   0.002589  -0.014760  -0.015163   0.133262   0.081026
    18  H    0.013764   0.002541   0.121085   0.019416  -0.026999   0.068894
    19  H   -0.001539   0.021288   0.023824   0.021163  -0.101653   0.054520
    20  H    0.009379   0.012709   0.015955   0.090226   0.072167   0.065262
       Tot  -1.000056   1.000001   0.526290   0.259113  -0.014557  -1.000056
 Hirshfeld charges and spin densities with hydrogens summed into heavy atoms:
              Q-H        S-H       Q-CM5   
     1  Br  -0.198021   0.035576  -0.182990
     2  C   -0.077965   0.189434  -0.099083
     3  C   -0.098358  -0.000411  -0.095219
     4  C   -0.170857   0.253607  -0.167211
     5  C   -0.103757   0.178754  -0.114169
     6  C    0.035580   0.017044   0.055299
     7  C   -0.187829   0.251405  -0.175327
     8  O   -0.162154  -0.000381  -0.246578
     9  C    0.059575   0.005705   0.106206
    10  C   -0.031258   0.012610  -0.025105
    11  C   -0.065011   0.056657  -0.055877
 
 EQQ= 0.996623477552E-01 EQD=-0.294901638584E-01 EDD=-0.295505724250E-02
 EQQ+QD+DD= 0.672171266543E-01
 
                          Isotropic Fermi Contact Couplings
        Atom                 a.u.       MegaHertz       Gauss      10(-4) cm-1
     1  Br(79)            -0.00746      -8.38166      -2.99079      -2.79582
     2  C(13)              0.01272      14.29661       5.10138       4.76883
     3  C(13)             -0.02165     -24.34416      -8.68660      -8.12034
     4  C(13)              0.01148      12.90321       4.60419       4.30405
     5  C(13)              0.00573       6.43787       2.29719       2.14744
     6  C(13)             -0.02248     -25.27401      -9.01839      -8.43050
     7  C(13)              0.01061      11.93156       4.25748       3.97994
     8  O(17)             -0.00229       1.38688       0.49487       0.46261
     9  C(13)             -0.00097      -1.09578      -0.39100      -0.36551
    10  C(13)              0.00282       3.17065       1.13137       1.05761
    11  C(13)             -0.01112     -12.50426      -4.46183      -4.17097
    12  H(1)               0.00109       4.87557       1.73973       1.62632
    13  H(1)              -0.00512     -22.90528      -8.17317      -7.64038
    14  H(1)              -0.00502     -22.45529      -8.01261      -7.49028
    15  H(1)               0.00032       1.45119       0.51782       0.48406
    16  H(1)               0.00003       0.11428       0.04078       0.03812
    17  H(1)               0.00001       0.05179       0.01848       0.01728
    18  H(1)               0.00012       0.52443       0.18713       0.17493
    19  H(1)               0.00635      28.37160      10.12369       9.46375
    20  H(1)               0.00359      16.06390       5.73200       5.35834
 --------------------------------------------------------
       Center         ----  Spin Dipole Couplings  ----
                      3XX-RR        3YY-RR        3ZZ-RR
 --------------------------------------------------------
     1   Atom       -0.178595     -0.000495      0.179090
     2   Atom       -0.159526     -0.171900      0.331427
     3   Atom        0.048370      0.046480     -0.094850
     4   Atom       -0.193886     -0.183492      0.377378
     5   Atom       -0.152144     -0.156521      0.308666
     6   Atom        0.038516      0.036381     -0.074896
     7   Atom       -0.191469     -0.181992      0.373461
     8   Atom        0.016666      0.016454     -0.033120
     9   Atom        0.001017      0.001001     -0.002019
    10   Atom        0.003489     -0.000663     -0.002826
    11   Atom        0.006423     -0.002103     -0.004320
    12   Atom        0.002754      0.003514     -0.006268
    13   Atom       -0.024141      0.020025      0.004116
    14   Atom       -0.024093      0.020260      0.003834
    15   Atom        0.000778      0.000556     -0.001334
    16   Atom        0.001559      0.000270     -0.001829
    17   Atom        0.003268     -0.002057     -0.001211
    18   Atom        0.002729     -0.001492     -0.001238
    19   Atom        0.007065     -0.002382     -0.004682
    20   Atom        0.005578     -0.001857     -0.003721
 --------------------------------------------------------
                        XY            XZ            YZ
 --------------------------------------------------------
     1   Atom       -0.052409      0.011428      0.007296
     2   Atom       -0.003461      0.002811      0.020735
     3   Atom        0.008380     -0.001498     -0.004175
     4   Atom        0.000461      0.005206      0.004057
     5   Atom       -0.003321      0.000313      0.011092
     6   Atom        0.006953     -0.002115     -0.001850
     7   Atom       -0.000202      0.007795      0.018557
     8   Atom       -0.003688     -0.009597     -0.004054
     9   Atom       -0.004364     -0.000664      0.000060
    10   Atom       -0.001730      0.001383      0.000295
    11   Atom        0.001903     -0.000353      0.000984
    12   Atom        0.002377     -0.000172     -0.000362
    13   Atom        0.014287      0.000623      0.000347
    14   Atom        0.014089      0.000074     -0.001012
    15   Atom       -0.001652     -0.000034     -0.000101
    16   Atom       -0.002767     -0.001621      0.001498
    17   Atom       -0.001698      0.002670     -0.001543
    18   Atom       -0.001009      0.000087      0.000033
    19   Atom        0.003166     -0.003763     -0.000725
    20   Atom        0.004202      0.002244      0.000582
 --------------------------------------------------------


 ---------------------------------------------------------------------------------
              Anisotropic Spin Dipole Couplings in Principal Axis System
 ---------------------------------------------------------------------------------

       Atom             a.u.   MegaHertz   Gauss  10(-4) cm-1        Axes

              Baa    -0.1933   -25.932    -9.253    -8.650  0.9641  0.2633 -0.0347
     1 Br(79) Bbb     0.0137     1.836     0.655     0.612 -0.2642  0.9642 -0.0243
              Bcc     0.1796    24.096     8.598     8.038  0.0271  0.0326  0.9991
 
              Baa    -0.1737   -23.303    -8.315    -7.773  0.2454  0.9685 -0.0411
     2 C(13)  Bbb    -0.1586   -21.287    -7.596    -7.101  0.9694 -0.2454  0.0048
              Bcc     0.3323    44.591    15.911    14.874  0.0054  0.0411  0.9991
 
              Baa    -0.0950   -12.746    -4.548    -4.252  0.0087  0.0290  0.9995
     3 C(13)  Bbb     0.0390     5.237     1.869     1.747 -0.6689  0.7431 -0.0157
              Bcc     0.0560     7.509     2.679     2.505  0.7433  0.6685 -0.0259
 
              Baa    -0.1940   -26.026    -9.287    -8.681  0.9991 -0.0406 -0.0088
     4 C(13)  Bbb    -0.1835   -24.625    -8.787    -8.214  0.0405  0.9991 -0.0076
              Bcc     0.3775    50.651    18.073    16.895  0.0091  0.0072  0.9999
 
              Baa    -0.1585   -21.272    -7.590    -7.096  0.4626  0.8863 -0.0214
     5 C(13)  Bbb    -0.1504   -20.183    -7.202    -6.732  0.8866 -0.4625  0.0106
              Bcc     0.3089    41.455    14.792    13.828  0.0005  0.0238  0.9997
 
              Baa    -0.0750   -10.059    -3.589    -3.355  0.0177  0.0155  0.9997
     6 C(13)  Bbb     0.0304     4.081     1.456     1.361 -0.6513  0.7588 -0.0003
              Bcc     0.0445     5.978     2.133     1.994  0.7586  0.6511 -0.0235
 
              Baa    -0.1916   -25.711    -9.174    -8.576  0.9986  0.0509 -0.0154
     7 C(13)  Bbb    -0.1826   -24.501    -8.743    -8.173 -0.0513  0.9981 -0.0326
              Bcc     0.3742    50.212    17.917    16.749  0.0138  0.0333  0.9993
 
              Baa    -0.0353     2.556     0.912     0.853  0.1869  0.0899  0.9782
     8 O(17)  Bbb     0.0147    -1.063    -0.379    -0.354  0.5823  0.7919 -0.1840
              Bcc     0.0206    -1.494    -0.533    -0.498  0.7912 -0.6040 -0.0957
 
              Baa    -0.0035    -0.467    -0.167    -0.156  0.6887  0.6666  0.2851
     9 C(13)  Bbb    -0.0019    -0.259    -0.092    -0.086 -0.1542 -0.2495  0.9560
              Bcc     0.0054     0.726     0.259     0.242  0.7084 -0.7024 -0.0690
 
              Baa    -0.0033    -0.443    -0.158    -0.148 -0.2584 -0.2732  0.9266
    10 C(13)  Bbb    -0.0010    -0.137    -0.049    -0.046  0.2455  0.9091  0.3365
              Bcc     0.0043     0.580     0.207     0.193  0.9343 -0.3145  0.1679
 
              Baa    -0.0048    -0.643    -0.229    -0.214  0.0969 -0.4017  0.9106
    11 C(13)  Bbb    -0.0020    -0.274    -0.098    -0.091 -0.1834  0.8920  0.4130
              Bcc     0.0068     0.917     0.327     0.306  0.9782  0.2070 -0.0127
 
              Baa    -0.0063    -3.352    -1.196    -1.118  0.0100  0.0345  0.9994
    12 H(1)   Bbb     0.0007     0.389     0.139     0.130  0.7615 -0.6480  0.0148
              Bcc     0.0056     2.963     1.057     0.988  0.6480  0.7609 -0.0328
 
              Baa    -0.0284   -15.135    -5.401    -5.049  0.9590 -0.2830 -0.0154
    13 H(1)   Bbb     0.0041     2.193     0.783     0.732  0.0076 -0.0286  0.9996
              Bcc     0.0243    12.942     4.618     4.317  0.2833  0.9587  0.0253
 
              Baa    -0.0282   -15.043    -5.368    -5.018  0.9601 -0.2794 -0.0111
    14 H(1)   Bbb     0.0038     2.024     0.722     0.675  0.0235  0.0413  0.9989
              Bcc     0.0244    13.019     4.646     4.343  0.2786  0.9593 -0.0462
 
              Baa    -0.0014    -0.726    -0.259    -0.242  0.1647  0.1930  0.9673
    15 H(1)   Bbb    -0.0010    -0.514    -0.183    -0.172  0.6631  0.7043 -0.2535
              Bcc     0.0023     1.240     0.442     0.414  0.7302 -0.6832  0.0120
 
              Baa    -0.0026    -1.402    -0.500    -0.468  0.1139 -0.3682  0.9227
    16 H(1)   Bbb    -0.0019    -1.010    -0.360    -0.337  0.6688  0.7152  0.2029
              Bcc     0.0045     2.412     0.861     0.804  0.7347 -0.5940 -0.3277
 
              Baa    -0.0033    -1.736    -0.620    -0.579 -0.0778  0.7442  0.6634
    17 H(1)   Bbb    -0.0019    -1.028    -0.367    -0.343 -0.5120 -0.6008  0.6140
              Bcc     0.0052     2.765     0.987     0.922  0.8555 -0.2919  0.4277
 
              Baa    -0.0017    -0.921    -0.329    -0.307  0.2216  0.9695 -0.1043
    18 H(1)   Bbb    -0.0012    -0.658    -0.235    -0.220  0.0050  0.1058  0.9944
              Bcc     0.0030     1.579     0.563     0.527  0.9751 -0.2209  0.0186
 
              Baa    -0.0058    -3.094    -1.104    -1.032  0.2965 -0.0728  0.9522
    19 H(1)   Bbb    -0.0033    -1.753    -0.625    -0.585 -0.2397  0.9595  0.1480
              Bcc     0.0091     4.847     1.729     1.617  0.9245  0.2721 -0.2670
 
              Baa    -0.0044    -2.346    -0.837    -0.783 -0.3578  0.3984  0.8445
    20 H(1)   Bbb    -0.0035    -1.880    -0.671    -0.627 -0.2585  0.8268 -0.4996
              Bcc     0.0079     4.226     1.508     1.410  0.8973  0.3971  0.1928
 

 ---------------------------------------------------------------------------------

 Running external command "gaunbo6 R"
         input file       "/home/rpaton/arbr500/tzvp/fukui/Gau-2305640.EIn"
         output file      "/home/rpaton/arbr500/tzvp/fukui/Gau-2305640.EOu"
         message file     "/home/rpaton/arbr500/tzvp/fukui/Gau-2305640.EMs"
         fchk file        "/home/rpaton/arbr500/tzvp/fukui/Gau-2305640.EFC"
         mat. el file     "/home/rpaton/arbr500/tzvp/fukui/Gau-2305640.EUF"

 Writing WrtUnf unformatted file "/home/rpaton/arbr500/tzvp/fukui/Gau-2305640.EUF"
 Gaussian matrix elements                                         Version   2 NLab=11 Len12L=8 Len4L=8
 Write SHELL TO ATOM MAP                   from file      0 offset           0 length                 162 to matrix element file.
 Write SHELL TYPES                         from file      0 offset           0 length                 162 to matrix element file.
 Write NUMBER OF PRIMITIVES PER SHELL      from file      0 offset           0 length                 162 to matrix element file.
 Write PRIMITIVE EXPONENTS                 from file      0 offset           0 length                 293 to matrix element file.
 Write CONTRACTION COEFFICIENTS            from file      0 offset           0 length                 293 to matrix element file.
 Write P(S=P) CONTRACTION COEFFICIENTS     from file      0 offset           0 length                 293 to matrix element file.
 Write COORDINATES OF EACH SHELL           from file      0 offset           0 length                 486 to matrix element file.
 Write BONDS PER ATOM                      from file      0 offset           0 length                  20 to matrix element file.
 Write BONDED ATOMS                        from file      0 offset           0 length                  42 to matrix element file.
 Write BOND TYPES                          from file      0 offset           0 length                  42 to matrix element file.
 Write ONIOM CHARGE/MULT                   from file      0 offset           0 length                  32 to matrix element file.
 Write ONIOM ATOM LAYERS                   from file      0 offset           0 length                  20 to matrix element file.
 Write ONIOM ATOM MODIFIERS                from file      0 offset           0 length                  20 to matrix element file.
 Write ONIOM ATOM TYPES                    from file      0 offset           0 length                  20 to matrix element file.
 Write ONIOM LINK ATOMS                    from file      0 offset           0 length                  20 to matrix element file.
 Write ONIOM LINK CHARGES                  from file      0 offset           0 length                  20 to matrix element file.
 Write ONIOM LINK DISTANCES                from file      0 offset           0 length                  80 to matrix element file.
 Write SYMINF INTS                         from file      0 offset           0 length                  26 to matrix element file.
 Write ROTTR TO SO                         from file      0 offset           0 length                  12 to matrix element file.
 Write GAUSSIAN SCALARS                    from file    501 offset           0 to matrix element file.
 Write OPTIMIZATION FLAGS                  from file      0 offset           0 length                  20 to matrix element file.
 Write INTEGER ISO                         from file      0 offset           0 length                  20 to matrix element file.
 Write INTEGER SPIN                        from file      0 offset           0 length                  20 to matrix element file.
 Write REAL ZEFFECTIVE                     from file      0 offset           0 length                  20 to matrix element file.
 Write REAL QUADRUPOLEMOMENT               from file      0 offset           0 length                  20 to matrix element file.
 Write REAL GFACTOR                        from file      0 offset           0 length                  20 to matrix element file.
 Write REAL ZNUCLEAR                       from file      0 offset           0 length                  20 to matrix element file.
 Write MULLIKEN CHARGES                    from file      0 offset           0 length                  20 to matrix element file.
 Write TYPE 6 CHARGES                      from file      0 offset           0 length                  20 to matrix element file.
 Write TYPE 7 CHARGES                      from file      0 offset           0 length                  20 to matrix element file.
 Write NUCLEAR GRADIENT                    from file  10584 offset           0 length                  60 to matrix element file.
 Array NUCLEAR FORCE CONSTANTS              on  file  10585 does not exist.
 Write ELECTRIC DIPOLE MOMENT              from file      0 offset           0 length                   3 to matrix element file.
 Write NON-ADIABATIC COUPLING              from file  10810 offset           0 length                  60 to matrix element file.
 Write FINITE EM FIELD                     from file  10521 offset           0 length                  35 to matrix element file.
 Write OVERLAP                             from file  10514 offset           0 length               85078 to matrix element file.
 Write CORE HAMILTONIAN ALPHA              from file  10515 offset           0 length               85078 to matrix element file.
 Write CORE HAMILTONIAN BETA               from file  10515 offset       85078 length               85078 to matrix element file.
 Write KINETIC ENERGY                      from file  10516 offset           0 length               85078 to matrix element file.
 Write ORTHOGONAL BASIS                    from file  10685 offset           0 length              169744 to matrix element file.
 Write DIPOLE INTEGRALS                    from file  10518 offset           0 length              255234 to matrix element file.
 Array DIP VEL INTEGRALS                    on  file  10572 does not exist.
 Array R X DEL INTEGRALS                    on  file  10572 does not exist.
 Write ALPHA ORBITAL ENERGIES              from file      0 offset           0 length                 412 to matrix element file.
 Write BETA ORBITAL ENERGIES               from file      0 offset           0 length                 412 to matrix element file.
 Write ALPHA MO COEFFICIENTS               from file  10524 offset           0 length              169744 to matrix element file.
 Write BETA MO COEFFICIENTS                from file  10526 offset           0 length              169744 to matrix element file.
 Write ALPHA DENSITY MATRIX                from file      0 offset           0 length               85078 to matrix element file.
 Write BETA DENSITY MATRIX                 from file      0 offset           0 length               85078 to matrix element file.
 Write ALPHA FOCK MATRIX                   from file  10536 offset           0 length               85078 to matrix element file.
 Write BETA FOCK MATRIX                    from file  10538 offset           0 length               85078 to matrix element file.
 Write ENERGY-WEIGHTED DENSITY             from file  10571 offset           0 length               85078 to matrix element file.
 Write ALPHA SCF DENSITY MATRIX            from file      0 offset           0 length               85078 to matrix element file.
 Write BETA SCF DENSITY MATRIX             from file      0 offset           0 length               85078 to matrix element file.
 No 2e integrals to process.
 Perform NBO analysis...

 *********************************** NBO 7.0 ***********************************
             N A T U R A L   A T O M I C   O R B I T A L   A N D
          N A T U R A L   B O N D   O R B I T A L   A N A L Y S I S
 **************************** Robert Paton (I101709) ***************************
  (c) Copyright 1996-2019 Board of Regents of the University of Wisconsin System
      on behalf of the Theoretical Chemistry Institute.  All rights reserved.

          Cite this program [NBO 7.0.5 (4-Jun-2019)] as:

          NBO 7.0.  E. D. Glendening, J. K. Badenhoop, A. E. Reed,
          J. E. Carpenter, J. A. Bohmann, C. M. Morales, P. Karafiloglou,
          C. R. Landis, and F. Weinhold, Theoretical Chemistry Institute,
          University of Wisconsin, Madison, WI (2018)

 Filename set to /home/rpaton/arbr500/tzvp/fukui/Gau-2305640

 Job title:  arbr43_wb97xd_redcreated by GaussianPrep


 NATURAL POPULATIONS:  Natural atomic orbital occupancies

  NAO Atom No lang   Type(AO)    Occupancy     Spin
 -----------------------------------------------------
   1   Br  1  s      Cor( 1s)     2.00000     0.00000
   2   Br  1  s      Cor( 2s)     2.00000     0.00000
   3   Br  1  s      Cor( 3s)     1.99999     0.00000
   4   Br  1  s      Val( 4s)     1.85124     0.00025
   5   Br  1  s      Ryd( 5s)     0.00121     0.00002
   6   Br  1  s      Ryd( 6s)     0.00000     0.00000
   7   Br  1  px     Cor( 2p)     2.00000     0.00000
   8   Br  1  px     Cor( 3p)     2.00000     0.00000
   9   Br  1  px     Val( 4p)     1.29382    -0.01197
  10   Br  1  px     Ryd( 5p)     0.00228    -0.00001
  11   Br  1  px     Ryd( 6p)     0.00006     0.00000
  12   Br  1  py     Cor( 2p)     2.00000     0.00000
  13   Br  1  py     Cor( 3p)     2.00000     0.00000
  14   Br  1  py     Val( 4p)     1.93887    -0.00089
  15   Br  1  py     Ryd( 5p)     0.00111     0.00000
  16   Br  1  py     Ryd( 6p)     0.00001     0.00000
  17   Br  1  pz     Cor( 2p)     2.00000     0.00000
  18   Br  1  pz     Cor( 3p)     2.00000     0.00000
  19   Br  1  pz     Val( 4p)     1.96898     0.01039
  20   Br  1  pz     Ryd( 5p)     0.00370     0.00231
  21   Br  1  pz     Ryd( 6p)     0.00005     0.00003
  22   Br  1  dxy    Cor( 3d)     1.99999     0.00000
  23   Br  1  dxy    Ryd( 4d)     0.00104    -0.00002
  24   Br  1  dxy    Ryd( 5d)     0.00008     0.00000
  25   Br  1  dxy    Ryd( 6d)     0.00000     0.00000
  26   Br  1  dxz    Cor( 3d)     2.00000     0.00000
  27   Br  1  dxz    Ryd( 4d)     0.00504     0.00203
  28   Br  1  dxz    Ryd( 5d)     0.00006     0.00000
  29   Br  1  dxz    Ryd( 6d)     0.00000     0.00000
  30   Br  1  dyz    Cor( 3d)     2.00000     0.00000
  31   Br  1  dyz    Ryd( 4d)     0.00159     0.00125
  32   Br  1  dyz    Ryd( 5d)     0.00014     0.00011
  33   Br  1  dyz    Ryd( 6d)     0.00000     0.00000
  34   Br  1  dx2y2  Cor( 3d)     1.99999     0.00000
  35   Br  1  dx2y2  Ryd( 4d)     0.00173     0.00001
  36   Br  1  dx2y2  Ryd( 5d)     0.00008     0.00000
  37   Br  1  dx2y2  Ryd( 6d)     0.00001     0.00000
  38   Br  1  dz2    Cor( 3d)     1.99999     0.00000
  39   Br  1  dz2    Ryd( 4d)     0.00065     0.00002
  40   Br  1  dz2    Ryd( 5d)     0.00004     0.00000
  41   Br  1  dz2    Ryd( 6d)     0.00000     0.00000
  42   Br  1  f(0)   Ryd( 4f)     0.00009     0.00001
  43   Br  1  f(c1)  Ryd( 4f)     0.00008    -0.00001
  44   Br  1  f(s1)  Ryd( 4f)     0.00002     0.00000
  45   Br  1  f(c2)  Ryd( 4f)     0.00009     0.00001
  46   Br  1  f(s2)  Ryd( 4f)     0.00005     0.00003
  47   Br  1  f(c3)  Ryd( 4f)     0.00013     0.00000
  48   Br  1  f(s3)  Ryd( 4f)     0.00012     0.00000

  49    C  2  s      Cor( 1s)     1.99999     0.00000
  50    C  2  s      Val( 2s)     0.94687     0.01002
  51    C  2  s      Ryd( 3s)     0.00091     0.00000
  52    C  2  s      Ryd( 4s)     0.00048    -0.00001
  53    C  2  s      Ryd( 5s)     0.00000     0.00000
  54    C  2  px     Val( 2p)     0.89146     0.00751
  55    C  2  px     Ryd( 3p)     0.00458     0.00001
  56    C  2  px     Ryd( 4p)     0.00148    -0.00002
  57    C  2  py     Val( 2p)     1.05979     0.00333
  58    C  2  py     Ryd( 3p)     0.00339     0.00004
  59    C  2  py     Ryd( 4p)     0.00064     0.00000
  60    C  2  pz     Val( 2p)     1.24738     0.21288
  61    C  2  pz     Ryd( 3p)     0.00470     0.00330
  62    C  2  pz     Ryd( 4p)     0.00112     0.00072
  63    C  2  dxy    Ryd( 3d)     0.00143    -0.00002
  64    C  2  dxy    Ryd( 4d)     0.00033     0.00000
  65    C  2  dxz    Ryd( 3d)     0.00157     0.00066
  66    C  2  dxz    Ryd( 4d)     0.00029     0.00004
  67    C  2  dyz    Ryd( 3d)     0.00044     0.00011
  68    C  2  dyz    Ryd( 4d)     0.00021     0.00002
  69    C  2  dx2y2  Ryd( 3d)     0.00164     0.00004
  70    C  2  dx2y2  Ryd( 4d)     0.00040     0.00000
  71    C  2  dz2    Ryd( 3d)     0.00213    -0.00024
  72    C  2  dz2    Ryd( 4d)     0.00009     0.00000
  73    C  2  f(0)   Ryd( 4f)     0.00112     0.00030
  74    C  2  f(c1)  Ryd( 4f)     0.00059    -0.00004
  75    C  2  f(s1)  Ryd( 4f)     0.00055    -0.00004
  76    C  2  f(c2)  Ryd( 4f)     0.00003     0.00000
  77    C  2  f(s2)  Ryd( 4f)     0.00003     0.00002
  78    C  2  f(c3)  Ryd( 4f)     0.00049     0.00000
  79    C  2  f(s3)  Ryd( 4f)     0.00043     0.00001

  80    C  3  s      Cor( 1s)     1.99999     0.00000
  81    C  3  s      Val( 2s)     0.96019    -0.00638
  82    C  3  s      Ryd( 3s)     0.00094    -0.00001
  83    C  3  s      Ryd( 4s)     0.00007     0.00000
  84    C  3  s      Ryd( 5s)     0.00000     0.00000
  85    C  3  px     Val( 2p)     1.11102    -0.00674
  86    C  3  px     Ryd( 3p)     0.00489    -0.00004
  87    C  3  px     Ryd( 4p)     0.00032    -0.00001
  88    C  3  py     Val( 2p)     1.11220    -0.00663
  89    C  3  py     Ryd( 3p)     0.00332     0.00002
  90    C  3  py     Ryd( 4p)     0.00015    -0.00001
  91    C  3  pz     Val( 2p)     1.03636    -0.07051
  92    C  3  pz     Ryd( 3p)     0.00189    -0.00045
  93    C  3  pz     Ryd( 4p)     0.00028    -0.00003
  94    C  3  dxy    Ryd( 3d)     0.00066    -0.00001
  95    C  3  dxy    Ryd( 4d)     0.00046     0.00000
  96    C  3  dxz    Ryd( 3d)     0.00052     0.00027
  97    C  3  dxz    Ryd( 4d)     0.00013     0.00001
  98    C  3  dyz    Ryd( 3d)     0.00051     0.00035
  99    C  3  dyz    Ryd( 4d)     0.00009    -0.00002
 100    C  3  dx2y2  Ryd( 3d)     0.00207    -0.00002
 101    C  3  dx2y2  Ryd( 4d)     0.00006     0.00000
 102    C  3  dz2    Ryd( 3d)     0.00128     0.00000
 103    C  3  dz2    Ryd( 4d)     0.00003     0.00000
 104    C  3  f(0)   Ryd( 4f)     0.00050    -0.00002
 105    C  3  f(c1)  Ryd( 4f)     0.00045    -0.00001
 106    C  3  f(s1)  Ryd( 4f)     0.00047    -0.00001
 107    C  3  f(c2)  Ryd( 4f)     0.00003     0.00002
 108    C  3  f(s2)  Ryd( 4f)     0.00003     0.00000
 109    C  3  f(c3)  Ryd( 4f)     0.00039     0.00000
 110    C  3  f(s3)  Ryd( 4f)     0.00033     0.00000

 111    C  4  s      Cor( 1s)     1.99999     0.00000
 112    C  4  s      Val( 2s)     0.93409     0.01146
 113    C  4  s      Ryd( 3s)     0.00096    -0.00001
 114    C  4  s      Ryd( 4s)     0.00006     0.00000
 115    C  4  s      Ryd( 5s)     0.00000     0.00000
 116    C  4  px     Val( 2p)     1.04431     0.00477
 117    C  4  px     Ryd( 3p)     0.00462     0.00009
 118    C  4  px     Ryd( 4p)     0.00047     0.00000
 119    C  4  py     Val( 2p)     1.12896     0.00527
 120    C  4  py     Ryd( 3p)     0.00381     0.00003
 121    C  4  py     Ryd( 4p)     0.00061     0.00001
 122    C  4  pz     Val( 2p)     1.23458     0.29955
 123    C  4  pz     Ryd( 3p)     0.01683     0.01545
 124    C  4  pz     Ryd( 4p)     0.00023     0.00018
 125    C  4  dxy    Ryd( 3d)     0.00132    -0.00002
 126    C  4  dxy    Ryd( 4d)     0.00030     0.00000
 127    C  4  dxz    Ryd( 3d)     0.00015    -0.00001
 128    C  4  dxz    Ryd( 4d)     0.00023     0.00003
 129    C  4  dyz    Ryd( 3d)     0.00057     0.00029
 130    C  4  dyz    Ryd( 4d)     0.00009     0.00004
 131    C  4  dx2y2  Ryd( 3d)     0.00062     0.00003
 132    C  4  dx2y2  Ryd( 4d)     0.00045     0.00000
 133    C  4  dz2    Ryd( 3d)     0.00117    -0.00021
 134    C  4  dz2    Ryd( 4d)     0.00002     0.00000
 135    C  4  f(0)   Ryd( 4f)     0.00071     0.00023
 136    C  4  f(c1)  Ryd( 4f)     0.00039    -0.00004
 137    C  4  f(s1)  Ryd( 4f)     0.00047    -0.00006
 138    C  4  f(c2)  Ryd( 4f)     0.00003     0.00001
 139    C  4  f(s2)  Ryd( 4f)     0.00003     0.00002
 140    C  4  f(c3)  Ryd( 4f)     0.00036     0.00001
 141    C  4  f(s3)  Ryd( 4f)     0.00030     0.00000

 142    C  5  s      Cor( 1s)     1.99999     0.00000
 143    C  5  s      Val( 2s)     0.89158     0.00800
 144    C  5  s      Ryd( 3s)     0.00113     0.00005
 145    C  5  s      Ryd( 4s)     0.00013     0.00000
 146    C  5  s      Ryd( 5s)     0.00000     0.00000
 147    C  5  px     Val( 2p)     1.02676     0.00354
 148    C  5  px     Ryd( 3p)     0.00303     0.00000
 149    C  5  px     Ryd( 4p)     0.00037     0.00001
 150    C  5  py     Val( 2p)     1.07553     0.00282
 151    C  5  py     Ryd( 3p)     0.00332     0.00004
 152    C  5  py     Ryd( 4p)     0.00026     0.00000
 153    C  5  pz     Val( 2p)     1.22030     0.20332
 154    C  5  pz     Ryd( 3p)     0.00600     0.00268
 155    C  5  pz     Ryd( 4p)     0.00021     0.00010
 156    C  5  dxy    Ryd( 3d)     0.00093    -0.00002
 157    C  5  dxy    Ryd( 4d)     0.00033     0.00000
 158    C  5  dxz    Ryd( 3d)     0.00032    -0.00001
 159    C  5  dxz    Ryd( 4d)     0.00034     0.00003
 160    C  5  dyz    Ryd( 3d)     0.00063     0.00041
 161    C  5  dyz    Ryd( 4d)     0.00015     0.00003
 162    C  5  dx2y2  Ryd( 3d)     0.00085     0.00004
 163    C  5  dx2y2  Ryd( 4d)     0.00052     0.00001
 164    C  5  dz2    Ryd( 3d)     0.00119    -0.00016
 165    C  5  dz2    Ryd( 4d)     0.00005     0.00000
 166    C  5  f(0)   Ryd( 4f)     0.00076     0.00015
 167    C  5  f(c1)  Ryd( 4f)     0.00054    -0.00005
 168    C  5  f(s1)  Ryd( 4f)     0.00044    -0.00004
 169    C  5  f(c2)  Ryd( 4f)     0.00004     0.00000
 170    C  5  f(s2)  Ryd( 4f)     0.00006     0.00004
 171    C  5  f(c3)  Ryd( 4f)     0.00039     0.00001
 172    C  5  f(s3)  Ryd( 4f)     0.00028     0.00001

 173    C  6  s      Cor( 1s)     1.99999     0.00000
 174    C  6  s      Val( 2s)     0.85367    -0.00599
 175    C  6  s      Ryd( 3s)     0.00227     0.00000
 176    C  6  s      Ryd( 4s)     0.00028     0.00000
 177    C  6  s      Ryd( 5s)     0.00000     0.00000
 178    C  6  px     Val( 2p)     0.93958    -0.00556
 179    C  6  px     Ryd( 3p)     0.00327     0.00000
 180    C  6  px     Ryd( 4p)     0.00022     0.00000
 181    C  6  py     Val( 2p)     0.88512    -0.00450
 182    C  6  py     Ryd( 3p)     0.00623    -0.00001
 183    C  6  py     Ryd( 4p)     0.00025     0.00000
 184    C  6  pz     Val( 2p)     0.97049    -0.04808
 185    C  6  pz     Ryd( 3p)     0.00179    -0.00019
 186    C  6  pz     Ryd( 4p)     0.00020    -0.00002
 187    C  6  dxy    Ryd( 3d)     0.00042    -0.00001
 188    C  6  dxy    Ryd( 4d)     0.00089     0.00000
 189    C  6  dxz    Ryd( 3d)     0.00143     0.00056
[...]
   92. RY (15)Br  1             0.00000     2.43764
   93. RY (16)Br  1             0.00000     1.77198
   94. RY (17)Br  1             0.00000     3.02209
   95. RY (18)Br  1             0.00000     4.72133
   96. RY (19)Br  1             0.00000     3.18090
   97. RY (20)Br  1             0.00000     3.99719
   98. RY (21)Br  1             0.00000     2.63650
   99. RY (22)Br  1             0.00000     2.70105
  100. RY (23)Br  1             0.00000     2.73372
  101. RY (24)Br  1             0.00000     2.37008
  102. RY (25)Br  1             0.00000     2.90248
  103. RY (26)Br  1             0.00000     2.49215
  104. RY (27)Br  1             0.00000     2.62032
  105. RY (28)Br  1             0.00000     1.83008
  106. RY (29)Br  1             0.00000     1.96610
  107. RY (30)Br  1             0.00000     2.70812
  108. RY ( 1) C  2             0.00255     1.60094
  109. RY ( 2) C  2             0.00154     1.46326
  110. RY ( 3) C  2             0.00073     1.20048
  111. RY ( 4) C  2             0.00040     1.35850
  112. RY ( 5) C  2             0.00037     1.87281
  113. RY ( 6) C  2             0.00029     1.66416
  114. RY ( 7) C  2             0.00019     2.11756
  115. RY ( 8) C  2             0.00013     3.63964
  116. RY ( 9) C  2             0.00010     3.29072
  117. RY (10) C  2             0.00003     2.55612
  118. RY (11) C  2             0.00001     3.13207
  119. RY (12) C  2             0.00001     2.85590
  120. RY (13) C  2             0.00000     2.97210
  121. RY (14) C  2             0.00000     2.55186
  122. RY (15) C  2             0.00000     4.88294
  123. RY (16) C  2             0.00000     4.12612
  124. RY (17) C  2             0.00000     3.50310
  125. RY (18) C  2             0.00000     6.36421
  126. RY (19) C  2             0.00000     9.87000
  127. RY (20) C  2             0.00000     2.64656
  128. RY (21) C  2             0.00000     3.34969
  129. RY (22) C  2             0.00000     5.08305
  130. RY (23) C  2             0.00000     4.24960
  131. RY (24) C  2             0.00000     3.50636
  132. RY (25) C  2             0.00000     3.35363
  133. RY (26) C  2             0.00000     3.84414
  134. RY ( 1) C  3             0.00231     1.63422
  135. RY ( 2) C  3             0.00107     1.40133
  136. RY ( 3) C  3             0.00090     0.77814
  137. RY ( 4) C  3             0.00037     1.76276
  138. RY ( 5) C  3             0.00018     3.01597
  139. RY ( 6) C  3             0.00016     2.00477
  140. RY ( 7) C  3             0.00007     2.70887
  141. RY ( 8) C  3             0.00003     2.89767
  142. RY ( 9) C  3             0.00003     2.02765
  143. RY (10) C  3             0.00002     3.06776
  144. RY (11) C  3             0.00000     3.90964
  145. RY (12) C  3             0.00000     3.65008
  146. RY (13) C  3             0.00000     2.38032
  147. RY (14) C  3             0.00000     3.14718
  148. RY (15) C  3             0.00000     3.78941
  149. RY (16) C  3             0.00000    10.28275
  150. RY (17) C  3             0.00000     3.45365
  151. RY (18) C  3             0.00000     2.59068
  152. RY (19) C  3             0.00000     5.64646
  153. RY (20) C  3             0.00000     3.63466
  154. RY (21) C  3             0.00000     3.98073
  155. RY (22) C  3             0.00000     6.43228
  156. RY (23) C  3             0.00000     4.54111
  157. RY (24) C  3             0.00000     4.46062
  158. RY (25) C  3             0.00000     3.52230
  159. RY (26) C  3             0.00000     3.43882
  160. RY ( 1) C  4             0.00217     1.81123
  161. RY ( 2) C  4             0.00086     1.49451
  162. RY ( 3) C  4             0.00069     0.77274
  163. RY ( 4) C  4             0.00037     2.03999
  164. RY ( 5) C  4             0.00020     3.44036
  165. RY ( 6) C  4             0.00014     3.29592
  166. RY ( 7) C  4             0.00004     2.64804
  167. RY ( 8) C  4             0.00003     2.47845
  168. RY ( 9) C  4             0.00002     1.94308
  169. RY (10) C  4             0.00001     2.89894
  170. RY (11) C  4             0.00001     2.46868
  171. RY (12) C  4             0.00000     2.81564
  172. RY (13) C  4             0.00000     2.21043
  173. RY (14) C  4             0.00000     3.21487
  174. RY (15) C  4             0.00000     7.58459
  175. RY (16) C  4             0.00000     7.20499
  176. RY (17) C  4             0.00000     3.45526
  177. RY (18) C  4             0.00000     3.33924
  178. RY (19) C  4             0.00000     3.31914
  179. RY (20) C  4             0.00000     3.83604
  180. RY (21) C  4             0.00000     6.45718
  181. RY (22) C  4             0.00000     3.72510
  182. RY (23) C  4             0.00000     7.49631
  183. RY (24) C  4             0.00000     2.90124
  184. RY (25) C  4             0.00000     3.96172
  185. RY (26) C  4             0.00000     3.84365
  186. RY ( 1) C  5             0.00176     1.82714
  187. RY ( 2) C  5             0.00164     1.21031
  188. RY ( 3) C  5             0.00145     1.34353
  189. RY ( 4) C  5             0.00030     1.46048
  190. RY ( 5) C  5             0.00018     3.27804
  191. RY ( 6) C  5             0.00015     3.04024
  192. RY ( 7) C  5             0.00013     3.34507
  193. RY ( 8) C  5             0.00011     3.13595
  194. RY ( 9) C  5             0.00010     2.62459
  195. RY (10) C  5             0.00008     2.77441
  196. RY (11) C  5             0.00003     3.18119
  197. RY (12) C  5             0.00003     3.91675
  198. RY (13) C  5             0.00002     3.13944
  199. RY (14) C  5             0.00002     2.86969
  200. RY (15) C  5             0.00001     2.93812
  201. RY (16) C  5             0.00001     2.75220
  202. RY (17) C  5             0.00000     3.06442
  203. RY (18) C  5             0.00000     4.40929
  204. RY (19) C  5             0.00000     3.75772
  205. RY (20) C  5             0.00000    15.31232
  206. RY (21) C  5             0.00000     2.86836
  207. RY (22) C  5             0.00000     4.01827
  208. RY (23) C  5             0.00000     3.87988
  209. RY (24) C  5             0.00000     4.04206
  210. RY (25) C  5             0.00000     3.94065
  211. RY (26) C  5             0.00000     6.08868
  212. RY ( 1) C  6             0.00272     1.59709
  213. RY ( 2) C  6             0.00167     1.58433
  214. RY ( 3) C  6             0.00113     1.69159
  215. RY ( 4) C  6             0.00088     2.11452
  216. RY ( 5) C  6             0.00040     1.83236
  217. RY ( 6) C  6             0.00026     3.04353
  218. RY ( 7) C  6             0.00023     2.78995
  219. RY ( 8) C  6             0.00014     2.86706
  220. RY ( 9) C  6             0.00011     2.93520
  221. RY (10) C  6             0.00005     3.12819
  222. RY (11) C  6             0.00005     3.02220
  223. RY (12) C  6             0.00003     2.34438
  224. RY (13) C  6             0.00002     3.54898
  225. RY (14) C  6             0.00001     2.75573
  226. RY (15) C  6             0.00001     3.41199
  227. RY (16) C  6             0.00000     3.30009
  228. RY (17) C  6             0.00000     3.58930
  229. RY (18) C  6             0.00000     5.68260
  230. RY (19) C  6             0.00000     2.89069
  231. RY (20) C  6             0.00000     9.26043
  232. RY (21) C  6             0.00000     7.79593
  233. RY (22) C  6             0.00000     3.71749
  234. RY (23) C  6             0.00000     3.89345
  235. RY (24) C  6             0.00000     3.59198
  236. RY (25) C  6             0.00000     3.87177
  237. RY (26) C  6             0.00000     7.90811
  238. RY ( 1) C  7             0.00199     1.48237
  239. RY ( 2) C  7             0.00184     1.30735
  240. RY ( 3) C  7             0.00099     0.68591
  241. RY ( 4) C  7             0.00049     1.88172
  242. RY ( 5) C  7             0.00027     2.02698
  243. RY ( 6) C  7             0.00018     2.53758
  244. RY ( 7) C  7             0.00010     2.72623
  245. RY ( 8) C  7             0.00009     2.61618
  246. RY ( 9) C  7             0.00007     2.26116
  247. RY (10) C  7             0.00003     3.88641
  248. RY (11) C  7             0.00002     3.47150
  249. RY (12) C  7             0.00001     3.16906
  250. RY (13) C  7             0.00001     2.73117
  251. RY (14) C  7             0.00001     2.58552
  252. RY (15) C  7             0.00000     3.96823
  253. RY (16) C  7             0.00000     3.15831
  254. RY (17) C  7             0.00000     9.20161
  255. RY (18) C  7             0.00000     3.40597
  256. RY (19) C  7             0.00000     3.50156
  257. RY (20) C  7             0.00000     3.67201
  258. RY (21) C  7             0.00000     3.35509
  259. RY (22) C  7             0.00000     3.35428
  260. RY (23) C  7             0.00000     6.62583
  261. RY (24) C  7             0.00000     9.27311
  262. RY (25) C  7             0.00000     4.22125
  263. RY (26) C  7             0.00000     3.48842
  264. RY ( 1) O  8             0.00216     0.94373
  265. RY ( 2) O  8             0.00158     1.11243
  266. RY ( 3) O  8             0.00024     1.68394
  267. RY ( 4) O  8             0.00017     2.44235
  268. RY ( 5) O  8             0.00008     3.99209
  269. RY ( 6) O  8             0.00004     2.92145
  270. RY ( 7) O  8             0.00003     2.59228
  271. RY ( 8) O  8             0.00003     2.37183
  272. RY ( 9) O  8             0.00002     4.59475
  273. RY (10) O  8             0.00001     5.70091
  274. RY (11) O  8             0.00001     5.11030
  275. RY (12) O  8             0.00000     4.31175
  276. RY (13) O  8             0.00000     5.35429
  277. RY (14) O  8             0.00000    18.69650
  278. RY (15) O  8             0.00000     5.10059
  279. RY (16) O  8             0.00000    11.29080
  280. RY (17) O  8             0.00000     5.01764
  281. RY (18) O  8             0.00000     4.85992
  282. RY (19) O  8             0.00000     8.68893
  283. RY (20) O  8             0.00000     8.36763
  284. RY (21) O  8             0.00000     5.98914
  285. RY (22) O  8             0.00000     8.39862
  286. RY (23) O  8             0.00000     6.49245
  287. RY (24) O  8             0.00000     5.90784
  288. RY (25) O  8             0.00000     5.30447
  289. RY (26) O  8             0.00000    13.88532
  290. RY ( 1) C  9             0.00173     1.34101
  291. RY ( 2) C  9             0.00115     1.50353
  292. RY ( 3) C  9             0.00092     1.83914
  293. RY ( 4) C  9             0.00034     1.99278
  294. RY ( 5) C  9             0.00017     1.75551
  295. RY ( 6) C  9             0.00011     3.04491
  296. RY ( 7) C  9             0.00006     3.10953
  297. RY ( 8) C  9             0.00004     1.76297
  298. RY ( 9) C  9             0.00002     2.17642
  299. RY (10) C  9             0.00002     2.46941
  300. RY (11) C  9             0.00001     2.41217
  301. RY (12) C  9             0.00001     3.18897
  302. RY (13) C  9             0.00001     2.73831
  303. RY (14) C  9             0.00000     2.81958
  304. RY (15) C  9             0.00000     4.40962
  305. RY (16) C  9             0.00000     4.54168
  306. RY (17) C  9             0.00000     6.71504
  307. RY (18) C  9             0.00000     4.83185
  308. RY (19) C  9             0.00000     3.12146
  309. RY (20) C  9             0.00000     3.27537
  310. RY (21) C  9             0.00000     4.45015
  311. RY (22) C  9             0.00000     4.91847
  312. RY (23) C  9             0.00000     8.23923
  313. RY (24) C  9             0.00000     3.79106
  314. RY (25) C  9             0.00000     3.70055
  315. RY (26) C  9             0.00000     3.40401
  316. RY ( 1) C 10             0.00089     1.37895
  317. RY ( 2) C 10             0.00048     1.52498
  318. RY ( 3) C 10             0.00029     1.20758
  319. RY ( 4) C 10             0.00024     1.81487
  320. RY ( 5) C 10             0.00014     2.02357
  321. RY ( 6) C 10             0.00010     3.02398
  322. RY ( 7) C 10             0.00006     2.85966
  323. RY ( 8) C 10             0.00004     3.83198
  324. RY ( 9) C 10             0.00003     2.19530
  325. RY (10) C 10             0.00002     1.98330
  326. RY (11) C 10             0.00001     2.14286
  327. RY (12) C 10             0.00001     2.32906
  328. RY (13) C 10             0.00001     2.54538
  329. RY (14) C 10             0.00000     3.29777
  330. RY (15) C 10             0.00000     3.47537
  331. RY (16) C 10             0.00000     4.39424
  332. RY (17) C 10             0.00000     8.69154
  333. RY (18) C 10             0.00000     4.25061
  334. RY (19) C 10             0.00000     3.60836
  335. RY (20) C 10             0.00000     3.04462
  336. RY (21) C 10             0.00000     4.04033
  337. RY (22) C 10             0.00000     3.64708
  338. RY (23) C 10             0.00000     9.25770
  339. RY (24) C 10             0.00000     4.50323
  340. RY (25) C 10             0.00000     3.74154
  341. RY (26) C 10             0.00000     3.24247
  342. RY ( 1) C 11             0.00143     1.35787
  343. RY ( 2) C 11             0.00068     1.64305
  344. RY ( 3) C 11             0.00041     1.85515
  345. RY ( 4) C 11             0.00023     2.30714
  346. RY ( 5) C 11             0.00015     1.73621
  347. RY ( 6) C 11             0.00010     2.17367
  348. RY ( 7) C 11             0.00006     2.48286
  349. RY ( 8) C 11             0.00004     3.42605
  350. RY ( 9) C 11             0.00003     2.21080
  351. RY (10) C 11             0.00002     2.55977
  352. RY (11) C 11             0.00002     2.81948
  353. RY (12) C 11             0.00001     2.12010
  354. RY (13) C 11             0.00001     3.27903
  355. RY (14) C 11             0.00001     3.02920
  356. RY (15) C 11             0.00000     4.45777
  357. RY (16) C 11             0.00000     3.61693
  358. RY (17) C 11             0.00000     2.54548
  359. RY (18) C 11             0.00000     4.78619
  360. RY (19) C 11             0.00000     9.77315
  361. RY (20) C 11             0.00000     9.41463
  362. RY (21) C 11             0.00000     4.08184
  363. RY (22) C 11             0.00000     3.62731
  364. RY (23) C 11             0.00000     4.46382
  365. RY (24) C 11             0.00000     3.06114
  366. RY (25) C 11             0.00000     3.54752
  367. RY (26) C 11             0.00000     3.13777
  368. RY ( 1) H 12             0.00042     0.70144
  369. RY ( 2) H 12             0.00009     2.38384
  370. RY ( 3) H 12             0.00005     2.33793
  371. RY ( 4) H 12             0.00004     2.72745
  372. RY ( 5) H 12             0.00000     3.19970
  373. RY ( 1) H 13             0.00039     0.77308
  374. RY ( 2) H 13             0.00007     2.40556
  375. RY ( 3) H 13             0.00005     2.32407
  376. RY ( 4) H 13             0.00003     2.80215
  377. RY ( 5) H 13             0.00000     3.21439
  378. RY ( 1) H 14             0.00064     0.70533
  379. RY ( 2) H 14             0.00007     2.42615
  380. RY ( 3) H 14             0.00005     2.38827
  381. RY ( 4) H 14             0.00003     2.77263
  382. RY ( 5) H 14             0.00001     3.25484
  383. RY ( 1) H 15             0.00030     0.85542
  384. RY ( 2) H 15             0.00007     2.51902
  385. RY ( 3) H 15             0.00004     2.45240
  386. RY ( 4) H 15             0.00001     2.35537
  387. RY ( 5) H 15             0.00000     2.78530
  388. RY ( 1) H 16             0.00099     0.70510
  389. RY ( 2) H 16             0.00006     2.49724
  390. RY ( 3) H 16             0.00002     2.46417
  391. RY ( 4) H 16             0.00002     2.53330
  392. RY ( 5) H 16             0.00000     2.81407
  393. RY ( 1) H 17             0.00053     0.86225
  394. RY ( 2) H 17             0.00004     2.56683
  395. RY ( 3) H 17             0.00002     2.61106
  396. RY ( 4) H 17             0.00001     2.55308
  397. RY ( 5) H 17             0.00000     2.54132
  398. RY ( 1) H 18             0.00034     0.80200
  399. RY ( 2) H 18             0.00005     2.57249
  400. RY ( 3) H 18             0.00004     2.66658
  401. RY ( 4) H 18             0.00001     2.46471
  402. RY ( 5) H 18             0.00000     2.60464
  403. RY ( 1) H 19             0.00067     0.78076
  404. RY ( 2) H 19             0.00006     2.60464
  405. RY ( 3) H 19             0.00003     2.64061
  406. RY ( 4) H 19             0.00001     2.57659
  407. RY ( 5) H 19             0.00000     2.65561
  408. RY ( 1) H 20             0.00046     0.85290
  409. RY ( 2) H 20             0.00006     2.63185
  410. RY ( 3) H 20             0.00004     2.63589
  411. RY ( 4) H 20             0.00001     2.57261
  412. RY ( 5) H 20             0.00000     2.59796
          -------------------------------
                 Total Lewis   52.19366  ( 98.4786%)
           Valence non-Lewis    0.74652  (  1.4085%)
           Rydberg non-Lewis    0.05981  (  0.1129%)
          -------------------------------
               Total unit  1   53.00000  (100.0000%)
              Charge unit  1    0.00000

 $CHOOSE
  ALPHA
   LONE 1 3 4 1 7 1 8 2 END
   BOND S 1 2 D 2 3 S 2 7 S 3 4 S 3 12 S 4 5 S 4 13 D 5 6 S 5 11 S 6 7 S 6 8
        S 7 14 S 8 9 S 9 10 S 9 15 S 9 16 S 10 11 S 10 17 S 10 18 S 11 19
        S 11 20 END
  END
  BETA
   LONE 1 3 8 2 END
   BOND S 1 2 S 2 3 D 2 7 D 3 4 S 3 12 S 4 5 S 4 13 D 5 6 S 5 11 S 6 7 S 6 8
        S 7 14 S 8 9 S 9 10 S 9 15 S 9 16 S 10 11 S 10 17 S 10 18 S 11 19
        S 11 20 END
  END
 $END

 NBO analysis completed in 7.43 CPU seconds (8 wall seconds)
 Maximum scratch memory used by NBO was 2110326 words (16.10 MB)
 Maximum scratch memory used by G16NBO was 350146 words (2.67 MB)

 Opening RunExU unformatted file "/home/rpaton/arbr500/tzvp/fukui/Gau-2305640.EUF"
 Read unf file /home/rpaton/arbr500/tzvp/fukui/Gau-2305640.EUF:
 Label Gaussian matrix elements                                         IVers= 2 NLab= 2 Version=ES64L-G16RevC.01
 Title arbr43_wb97xd_redcreated by GaussianPrep                        
 NAtoms=    20 NBasis=   412 NBsUse=   412 ICharg=    -1 Multip=     2 NE=   107 Len12L=8 Len4L=8 IOpCl= 1 ICGU=112
 GAUSSIAN SCALARS                    NI= 1 NR= 1 NTot=       1 LenBuf=    2 NRI=1 N=    1000
 NPA CHARGES                         NI= 0 NR= 1 NTot=      20 LenBuf= 2048 NRI=1 N=      20
 Recovered energy= -2997.78960031     dipole=      0.837690290150     -0.285482234109     -0.004292986580
 Unable to Open any file for archive entry.
 1\1\GINC-DYNAMO\SP\UwB97XD\def2TZVP\C9H9Br1O1(1-,2)\RPATON\29-Sep-2024
 \0\\# pop=(nbo6,hirshfeld) wb97xd/def2tzvp\\arbr43_wb97xd_redcreated b
 y GaussianPrep\\-1,2\Br,0,3.001159,-0.254439,-0.027323\C,0,1.158595,0.
 191327,0.010306\C,0,0.780986,1.524508,0.058661\C,0,-0.569136,1.822566,
 0.078626\C,0,-1.547533,0.83566,0.058941\C,0,-1.130991,-0.495298,0.0206
 87\C,0,0.222553,-0.820393,-0.009521\O,0,-1.991688,-1.541486,-0.013253\
 C,0,-3.352834,-1.264637,0.282233\C,0,-3.837664,-0.013268,-0.42085\C,0,
 -3.015786,1.176702,0.057574\H,0,1.523788,2.309056,0.073429\H,0,-0.8792
 03,2.861374,0.102313\H,0,0.511954,-1.86117,-0.04546\H,0,-3.902605,-2.1
 49099,-0.035318\H,0,-3.466004,-1.158178,1.368123\H,0,-3.72434,-0.14542
 4,-1.499687\H,0,-4.899073,0.133675,-0.215463\H,0,-3.329252,1.454899,1.
 068814\H,0,-3.191457,2.049106,-0.574362\\Version=ES64L-G16RevC.01\Stat
 e=2-A\HF=-2997.7896003\S2=0.763213\S2-1=0.\S2A=0.750106\RMSD=3.128e-09
 \Dipole=-0.8376903,-0.2854822,0.004293\Quadrupole=-5.8618153,1.3988334
 ,4.4629819,1.8804635,-0.1330583,-0.3971582\PG=C01 [X(C9H9Br1O1)]\\@
 The archive entry for this job was punched.


 IN THE UNIVERSE THE DIFFICULT THINGS ARE DONE AS IF THEY WERE EASY.

                                                          -- LAO-TSU
 Job cpu time:       0 days  1 hours 23 minutes 33.5 seconds.
 Elapsed time:       0 days  0 hours  3 minutes 30.3 seconds.
 File lengths (MBytes):  RWF=    166 Int=      0 D2E=      0 Chk=     13 Scr=      1
 Normal termination of Gaussian 16 at Sun Sep 29 00:06:26 2024.
