 Entering Gaussian System, Link 0=/usr/local/Gaussian/G16C/g16/g16
 Input=arbr39_wb97xd_oxd.com
 Output=arbr39_wb97xd_oxd.log
 Initial command:
 /usr/local/Gaussian/G16C/g16/l1.exe "/home/rpaton/opt/tzvp/fukui/Gau-3362101.inp" -scrdir="/home/rpaton/opt/tzvp/fukui/"
 Entering Link 1 = /usr/local/Gaussian/G16C/g16/l1.exe PID=   3362102.
  
 Copyright (c) 1988-2019, Gaussian, Inc.  All Rights Reserved.
  
 This is part of the Gaussian(R) 16 program.  It is based on
 the Gaussian(R) 09 system (copyright 2009, Gaussian, Inc.),
 the Gaussian(R) 03 system (copyright 2003, Gaussian, Inc.),
 the Gaussian(R) 98 system (copyright 1998, Gaussian, Inc.),
 the Gaussian(R) 94 system (copyright 1995, Gaussian, Inc.),
 the Gaussian 92(TM) system (copyright 1992, Gaussian, Inc.),
 the Gaussian 90(TM) system (copyright 1990, Gaussian, Inc.),
 the Gaussian 88(TM) system (copyright 1988, Gaussian, Inc.),
 the Gaussian 86(TM) system (copyright 1986, Carnegie Mellon
 University), and the Gaussian 82(TM) system (copyright 1983,
 Carnegie Mellon University). Gaussian is a federally registered
 trademark of Gaussian, Inc.
  
 This software contains proprietary and confidential information,
 including trade secrets, belonging to Gaussian, Inc.
  
 This software is provided under written license and may be
 used, copied, transmitted, or stored only in accord with that
 written license.
  
 The following legend is applicable only to US Government
 contracts under FAR:
  
                    RESTRICTED RIGHTS LEGEND
  
 Use, reproduction and disclosure by the US Government is
 subject to restrictions as set forth in subparagraphs (a)
 and (c) of the Commercial Computer Software - Restricted
 Rights clause in FAR 52.227-19.
  
 Gaussian, Inc.
 340 Quinnipiac St., Bldg. 40, Wallingford CT 06492
  
  
 ---------------------------------------------------------------
 Warning -- This program may not be used in any manner that
 competes with the business of Gaussian, Inc. or will provide
 assistance to any competitor of Gaussian, Inc.  The licensee
 of this program is prohibited from giving any competitor of
 Gaussian, Inc. access to this program.  By using this program,
 the user acknowledges that Gaussian, Inc. is engaged in the
 business of creating and licensing software in the field of
 computational chemistry and represents and warrants to the
 licensee that it is not a competitor of Gaussian, Inc. and that
 it will not use this program in any manner prohibited above.
 ---------------------------------------------------------------
  

 Cite this work as:
 Gaussian 16, Revision C.01,
 M. J. Frisch, G. W. Trucks, H. B. Schlegel, G. E. Scuseria, 
 M. A. Robb, J. R. Cheeseman, G. Scalmani, V. Barone, 
 G. A. Petersson, H. Nakatsuji, X. Li, M. Caricato, A. V. Marenich, 
 J. Bloino, B. G. Janesko, R. Gomperts, B. Mennucci, H. P. Hratchian, 
 J. V. Ortiz, A. F. Izmaylov, J. L. Sonnenberg, D. Williams-Young, 
 F. Ding, F. Lipparini, F. Egidi, J. Goings, B. Peng, A. Petrone, 
 T. Henderson, D. Ranasinghe, V. G. Zakrzewski, J. Gao, N. Rega, 
 G. Zheng, W. Liang, M. Hada, M. Ehara, K. Toyota, R. Fukuda, 
 J. Hasegawa, M. Ishida, T. Nakajima, Y. Honda, O. Kitao, H. Nakai, 
 T. Vreven, K. Throssell, J. A. Montgomery, Jr., J. E. Peralta, 
 F. Ogliaro, M. J. Bearpark, J. J. Heyd, E. N. Brothers, K. N. Kudin, 
 V. N. Staroverov, T. A. Keith, R. Kobayashi, J. Normand, 
 K. Raghavachari, A. P. Rendell, J. C. Burant, S. S. Iyengar, 
 J. Tomasi, M. Cossi, J. M. Millam, M. Klene, C. Adamo, R. Cammi, 
 J. W. Ochterski, R. L. Martin, K. Morokuma, O. Farkas, 
 J. B. Foresman, and D. J. Fox, Gaussian, Inc., Wallingford CT, 2019.
 
 ******************************************
 Gaussian 16:  ES64L-G16RevC.01  3-Jul-2019
                25-Sep-2024 
 ******************************************
 %chk=arbr39_wb97xd_oxd.chk
 %mem=48GB
 %nprocshared=24
 Will use up to   24 processors via shared memory.
 --------------------------------------
 # pop=(nbo6,hirshfeld) wb97xd/def2tzvp
 --------------------------------------
 1/38=1,172=1/1;
 2/12=2,17=6,18=5,40=1/2;
 3/5=44,7=101,11=2,25=1,30=1,74=-58/1,2,3;
 4//1;
 5/5=2,38=5/2;
 6/7=2,8=2,9=2,10=2,28=1,40=1,79=1,113=1,114=1,124=3103,126=1/1,12;
 99/5=1,9=1/99;
 ----------------------------------------
 arbr39_wb97xd_oxdcreated by GaussianPrep
 ----------------------------------------
 Symbolic Z-matrix:
 Charge =  1 Multiplicity = 2
 O                     1.72094  -2.19294   0.00013 
 C                     1.61133  -0.99325   0.00101 
 C                     0.35136  -0.21803   0.00047 
 C                    -0.94866  -0.70405   0.00028 
 C                    -1.97127   0.22202   0.00003 
 Br                   -3.77218  -0.36649  -0.00015 
 C                    -1.70798   1.59153  -0.00005 
 C                    -0.40287   2.05396   0.00007 
 C                     0.63805   1.13641   0.00029 
 C                     2.12215   1.39311   0.00019 
 C                     2.76888  -0.00365   0.00018 
 C                     3.86798  -0.2447    1.07021 
 C                     4.94084   0.02843  -0.00078 
 C                     3.86704  -0.24516  -1.07071 
 H                    -1.13724  -1.76939   0.00042 
 H                    -2.53261   2.29163  -0.00026 
 H                    -0.20973   3.11982  -0.00009 
 H                     2.41261   1.97619   0.8773 
 H                     2.41244   1.97606  -0.87706 
 H                     3.841     0.39638   1.95122 
 H                     3.86561  -1.29024   1.37933 
 H                     5.82507  -0.6067   -0.00103 
 H                     5.25669   1.0724   -0.00115 
 H                     3.8393    0.39554  -1.95198 
 H                     3.86442  -1.29084  -1.37937 
 
                          Input orientation:                          
 ---------------------------------------------------------------------
 Center     Atomic      Atomic             Coordinates (Angstroms)
 Number     Number       Type             X           Y           Z
 ---------------------------------------------------------------------
      1          8           0        1.720941   -2.192944    0.000132
      2          6           0        1.611331   -0.993249    0.001006
      3          6           0        0.351364   -0.218033    0.000468
      4          6           0       -0.948663   -0.704047    0.000275
      5          6           0       -1.971272    0.222022    0.000026
      6         35           0       -3.772177   -0.366488   -0.000154
      7          6           0       -1.707982    1.591534   -0.000054
      8          6           0       -0.402866    2.053964    0.000067
      9          6           0        0.638049    1.136408    0.000292
     10          6           0        2.122149    1.393110    0.000193
     11          6           0        2.768880   -0.003648    0.000180
     12          6           0        3.867979   -0.244700    1.070207
     13          6           0        4.940841    0.028426   -0.000781
     14          6           0        3.867042   -0.245160   -1.070709
     15          1           0       -1.137236   -1.769394    0.000418
     16          1           0       -2.532610    2.291633   -0.000259
     17          1           0       -0.209725    3.119816   -0.000093
     18          1           0        2.412607    1.976191    0.877301
     19          1           0        2.412443    1.976061   -0.877057
     20          1           0        3.840998    0.396383    1.951219
     21          1           0        3.865614   -1.290240    1.379328
     22          1           0        5.825074   -0.606700   -0.001027
     23          1           0        5.256690    1.072396   -0.001147
     24          1           0        3.839300    0.395537   -1.951978
     25          1           0        3.864416   -1.290836   -1.379372
 ---------------------------------------------------------------------
                    Distance matrix (angstroms):
                    1          2          3          4          5
     1  O    0.000000
     2  C    1.204692   0.000000
     3  C    2.403334   1.479350   0.000000
     4  C    3.056730   2.576278   1.387905   0.000000
     5  C    4.411859   3.783111   2.363956   1.379613   0.000000
     6  Br   5.788807   5.419870   4.126213   2.843621   1.894625
     7  C    5.106837   4.207011   2.741430   2.417904   1.394591
     8  C    4.748345   3.652738   2.393916   2.811498   2.411620
     9  C    3.501034   2.341520   1.384449   2.430006   2.764897
    10  C    3.608428   2.440419   2.394047   3.718596   4.257645
    11  C    2.427178   1.522902   2.427003   3.782947   4.745521
    12  C    3.090386   2.606909   3.675817   4.955380   5.954827
    13  C    3.911808   3.482737   4.596090   5.934878   6.914824
    14  C    3.089711   2.606999   3.675343   4.954654   5.954044
    15  H    2.889389   2.856050   2.150035   1.081908   2.159017
    16  H    6.180949   5.287977   3.823052   3.388656   2.144386
    17  H    5.652689   4.498172   3.384680   3.894606   3.391203
    18  H    4.316192   3.198048   3.135630   4.387595   4.802615
    19  H    4.316044   3.198371   3.135625   4.387451   4.802383
    20  H    3.873757   3.271975   4.044809   5.287531   6.133518
    21  H    2.704936   2.658903   3.924390   5.042090   6.185358
    22  H    4.400009   4.231436   5.487492   6.774437   7.840267
    23  H    4.812896   4.189933   5.072222   6.454623   7.277814
    24  H    3.872778   3.272112   4.044034   5.286300   6.132143
    25  H    2.703944   2.659021   3.923825   5.041178   6.184394
                    6          7          8          9         10
     6  Br   0.000000
     7  C    2.845128   0.000000
     8  C    4.148595   1.384619   0.000000
     9  C    4.659269   2.389770   1.387593   0.000000
    10  C    6.151363   3.835267   2.610063   1.506137   0.000000
    11  C    6.551113   4.752568   3.780706   2.416644   1.539219
    12  C    7.715730   5.967290   4.966807   3.672142   2.622074
    13  C    8.721963   6.830092   5.714719   4.443157   3.131675
    14  C    7.714822   5.966627   4.966351   3.671807   2.622101
    15  H    2.985140   3.409045   3.893246   3.405190   4.541478
    16  H    2.932939   1.081735   2.142964   3.374555   4.740688
    17  H    4.984514   2.140192   1.083210   2.156995   2.901577
    18  H    6.671553   4.230481   2.949996   2.150218   1.092551
    19  H    6.671283   4.230236   2.949810   2.150170   1.092552
    20  H    7.896218   6.002252   4.956304   3.822648   2.784674
    21  H    7.816146   6.424351   5.595175   4.267029   3.484545
    22  H    9.600257   7.847239   6.772472   5.472080   4.208431
    23  H    9.142802   6.983993   5.744045   4.619085   3.150906
    24  H    7.894611   6.001063   4.955485   3.822075   2.784732
    25  H    7.814999   6.423566   5.594661   4.266665   3.484575
                   11         12         13         14         15
    11  C    0.000000
    12  C    1.552766   0.000000
    13  C    2.172198   1.540340   0.000000
    14  C    1.552769   2.140916   1.540337   0.000000
    15  H    4.286677   5.340535   6.338389   5.339794   0.000000
    16  H    5.777033   6.967526   7.808622   6.966831   4.294067
    17  H    4.316030   5.393809   6.007081   5.393451   4.976409
    18  H    2.194546   2.662269   3.310103   3.293103   5.234474
    19  H    2.194502   3.292750   3.309673   2.662176   5.234369
    20  H    2.261861   1.089907   2.270540   3.089386   5.768798
    21  H    2.181787   1.090282   2.190820   2.663621   5.211477
    22  H    3.115124   2.260267   1.088693   2.260270   7.058727
    23  H    2.710548   2.193413   1.090703   2.193408   6.997004
    24  H    2.261873   3.089390   2.270536   1.089907   5.767555
    25  H    2.181792   2.663616   2.190812   1.090283   5.210505
                   16         17         18         19         20
    16  H    0.000000
    17  H    2.466107   0.000000
    18  H    5.032374   2.992378   0.000000
    19  H    5.032088   2.992157   1.754358   0.000000
    20  H    6.929871   5.256716   2.385245   3.540522   0.000000
    21  H    7.461256   6.161151   3.610101   4.227494   1.781113
    22  H    8.845972   7.092653   4.368949   4.368539   2.958716
    23  H    7.884144   5.837262   3.110840   3.110236   2.504578
    24  H    6.928609   5.256059   3.541008   2.385253   3.903197
    25  H    7.460427   6.160754   4.227740   3.610147   3.733643
                   21         22         23         24         25
    21  H    0.000000
    22  H    2.492407   0.000000
    23  H    3.069667   1.772688   0.000000
    24  H    3.733649   2.958714   2.504571   0.000000
    25  H    2.758700   2.492400   3.069657   1.781113   0.000000
 Stoichiometry    C12H11BrO(1+,2)
 Framework group  C1[X(C12H11BrO)]
 Deg. of freedom    69
 Full point group                 C1      NOp   1
 Largest Abelian subgroup         C1      NOp   1
 Largest concise Abelian subgroup C1      NOp   1
                         Standard orientation:                         
 ---------------------------------------------------------------------
 Center     Atomic      Atomic             Coordinates (Angstroms)
 Number     Number       Type             X           Y           Z
 ---------------------------------------------------------------------
      1          8           0       -1.720941   -2.192944   -0.000132
      2          6           0       -1.611331   -0.993249   -0.001006
      3          6           0       -0.351364   -0.218033   -0.000468
      4          6           0        0.948663   -0.704047   -0.000275
      5          6           0        1.971272    0.222022   -0.000026
      6         35           0        3.772177   -0.366488    0.000154
      7          6           0        1.707982    1.591534    0.000054
      8          6           0        0.402866    2.053964   -0.000067
      9          6           0       -0.638049    1.136408   -0.000292
     10          6           0       -2.122149    1.393110   -0.000193
     11          6           0       -2.768880   -0.003648   -0.000180
     12          6           0       -3.867979   -0.244700   -1.070207
     13          6           0       -4.940841    0.028426    0.000781
     14          6           0       -3.867042   -0.245160    1.070709
     15          1           0        1.137236   -1.769394   -0.000418
     16          1           0        2.532610    2.291633    0.000259
     17          1           0        0.209725    3.119816    0.000093
     18          1           0       -2.412607    1.976191   -0.877301
     19          1           0       -2.412443    1.976061    0.877057
     20          1           0       -3.840998    0.396383   -1.951219
     21          1           0       -3.865614   -1.290240   -1.379328
     22          1           0       -5.825074   -0.606700    0.001027
     23          1           0       -5.256690    1.072396    0.001147
     24          1           0       -3.839300    0.395537    1.951978
     25          1           0       -3.864416   -1.290836    1.379372
 ---------------------------------------------------------------------
 Rotational constants (GHZ):           1.6890298           0.2228875           0.2033308
 Standard basis: def2TZVP (5D, 7F)
 There are   589 symmetry adapted cartesian basis functions of A   symmetry.
 There are   517 symmetry adapted basis functions of A   symmetry.
   517 basis functions,   865 primitive gaussians,   589 cartesian basis functions
    63 alpha electrons       62 beta electrons
       nuclear repulsion energy      1115.8831907815 Hartrees.
 NAtoms=   25 NActive=   25 NUniq=   25 SFac= 1.00D+00 NAtFMM=   60 NAOKFM=F Big=F
 Integral buffers will be    131072 words long.
 Raffenetti 2 integral format.
 Two-electron integral symmetry is turned on.
 Nuclear repulsion after empirical dispersion term =     1115.8650507607 Hartrees.
 One-electron integrals computed using PRISM.
   1 Symmetry operations used in ECPInt.
 ECPInt:  NShTT=   20706 NPrTT=   67180 LenC2=   19152 LenP2D=   45818.
 LDataN:  DoStor=T MaxTD1= 6 Len=  172
 NBasis=   517 RedAO= T EigKep=  6.06D-06  NBF=   517
 NBsUse=   517 1.00D-06 EigRej= -1.00D+00 NBFU=   517
 ExpMin= 9.52D-02 ExpMax= 5.65D+05 ExpMxC= 5.46D+03 IAcc=3 IRadAn=         5 AccDes= 0.00D+00
 Harris functional with IExCor= 4639 and IRadAn=       5 diagonalized for initial guess.
 HarFok:  IExCor= 4639 AccDes= 0.00D+00 IRadAn=         5 IDoV= 1 UseB2=F ITyADJ=14
 ICtDFT=  3500011 ScaDFX=  1.000000  1.000000  1.000000  1.000000
 FoFCou: FMM=F IPFlag=           0 FMFlag=      100000 FMFlg1=           0
         NFxFlg=           0 DoJE=T BraDBF=F KetDBF=T FulRan=T
         wScrn=  0.000000 ICntrl=       500 IOpCl=  0 I1Cent=   200000004 NGrid=           0
         NMat0=    1 NMatS0=      1 NMatT0=    0 NMatD0=    1 NMtDS0=    0 NMtDT0=    0
 Petite list used in FoFCou.
 Initial guess <Sx>= 0.0000 <Sy>= 0.0000 <Sz>= 0.5000 <S**2>= 0.7500 S= 0.5000
 Requested convergence on RMS density matrix=1.00D-08 within 128 cycles.
 Requested convergence on MAX density matrix=1.00D-06.
 Requested convergence on             energy=1.00D-06.
 No special actions if energy rises.
 Integral accuracy reduced to 1.0D-05 until final iterations.
 Initial convergence to 1.0D-05 achieved.  Increase integral accuracy.
 SCF Done:  E(UwB97XD) =  -3113.01598418     A.U. after   34 cycles
            NFock= 34  Conv=0.37D-08     -V/T= 2.0020
 <Sx>= 0.0000 <Sy>= 0.0000 <Sz>= 0.5000 <S**2>= 0.7581 S= 0.5040
 <L.S>= 0.000000000000E+00
 Annihilation of the first spin contaminant:
 S**2 before annihilation     0.7581,   after     0.7500

 **********************************************************************

            Population analysis using the SCF Density.

 **********************************************************************

 Orbital symmetries:
 Alpha Orbitals:
       Occupied  (A) (A) (A) (A) (A) (A) (A) (A) (A) (A) (A) (A)
                 (A) (A) (A) (A) (A) (A) (A) (A) (A) (A) (A) (A)
                 (A) (A) (A) (A) (A) (A) (A) (A) (A) (A) (A) (A)
                 (A) (A) (A) (A) (A) (A) (A) (A) (A) (A) (A) (A)
                 (A) (A) (A) (A) (A) (A) (A) (A) (A) (A) (A) (A)
                 (A) (A) (A)
       Virtual   (A) (A) (A) (A) (A) (A) (A) (A) (A) (A) (A) (A)
                 (A) (A) (A) (A) (A) (A) (A) (A) (A) (A) (A) (A)
                 (A) (A) (A) (A) (A) (A) (A) (A) (A) (A) (A) (A)
                 (A) (A) (A) (A) (A) (A) (A) (A) (A) (A) (A) (A)
                 (A) (A) (A) (A) (A) (A) (A) (A) (A) (A) (A) (A)
                 (A) (A) (A) (A) (A) (A) (A) (A) (A) (A) (A) (A)
                 (A) (A) (A) (A) (A) (A) (A) (A) (A) (A) (A) (A)
                 (A) (A) (A) (A) (A) (A) (A) (A) (A) (A) (A) (A)
                 (A) (A) (A) (A) (A) (A) (A) (A) (A) (A) (A) (A)
                 (A) (A) (A) (A) (A) (A) (A) (A) (A) (A) (A) (A)
                 (A) (A) (A) (A) (A) (A) (A) (A) (A) (A) (A) (A)
                 (A) (A) (A) (A) (A) (A) (A) (A) (A) (A) (A) (A)
                 (A) (A) (A) (A) (A) (A) (A) (A) (A) (A) (A) (A)
                 (A) (A) (A) (A) (A) (A) (A) (A) (A) (A) (A) (A)
                 (A) (A) (A) (A) (A) (A) (A) (A) (A) (A) (A) (A)
                 (A) (A) (A) (A) (A) (A) (A) (A) (A) (A) (A) (A)
                 (A) (A) (A) (A) (A) (A) (A) (A) (A) (A) (A) (A)
                 (A) (A) (A) (A) (A) (A) (A) (A) (A) (A) (A) (A)
                 (A) (A) (A) (A) (A) (A) (A) (A) (A) (A) (A) (A)
                 (A) (A) (A) (A) (A) (A) (A) (A) (A) (A) (A) (A)
                 (A) (A) (A) (A) (A) (A) (A) (A) (A) (A) (A) (A)
                 (A) (A) (A) (A) (A) (A) (A) (A) (A) (A) (A) (A)
                 (A) (A) (A) (A) (A) (A) (A) (A) (A) (A) (A) (A)
                 (A) (A) (A) (A) (A) (A) (A) (A) (A) (A) (A) (A)
                 (A) (A) (A) (A) (A) (A) (A) (A) (A) (A) (A) (A)
                 (A) (A) (A) (A) (A) (A) (A) (A) (A) (A) (A) (A)
                 (A) (A) (A) (A) (A) (A) (A) (A) (A) (A) (A) (A)
                 (A) (A) (A) (A) (A) (A) (A) (A) (A) (A) (A) (A)
                 (A) (A) (A) (A) (A) (A) (A) (A) (A) (A) (A) (A)
                 (A) (A) (A) (A) (A) (A) (A) (A) (A) (A) (A) (A)
                 (A) (A) (A) (A) (A) (A) (A) (A) (A) (A) (A) (A)
                 (A) (A) (A) (A) (A) (A) (A) (A) (A) (A) (A) (A)
                 (A) (A) (A) (A) (A) (A) (A) (A) (A) (A) (A) (A)
                 (A) (A) (A) (A) (A) (A) (A) (A) (A) (A) (A) (A)
                 (A) (A) (A) (A) (A) (A) (A) (A) (A) (A) (A) (A)
                 (A) (A) (A) (A) (A) (A) (A) (A) (A) (A) (A) (A)
                 (A) (A) (A) (A) (A) (A) (A) (A) (A) (A) (A) (A)
                 (A) (A) (A) (A) (A) (A) (A) (A) (A) (A)
 Beta  Orbitals:
       Occupied  (A) (A) (A) (A) (A) (A) (A) (A) (A) (A) (A) (A)
                 (A) (A) (A) (A) (A) (A) (A) (A) (A) (A) (A) (A)
                 (A) (A) (A) (A) (A) (A) (A) (A) (A) (A) (A) (A)
                 (A) (A) (A) (A) (A) (A) (A) (A) (A) (A) (A) (A)
                 (A) (A) (A) (A) (A) (A) (A) (A) (A) (A) (A) (A)
                 (A) (A)
       Virtual   (A) (A) (A) (A) (A) (A) (A) (A) (A) (A) (A) (A)
                 (A) (A) (A) (A) (A) (A) (A) (A) (A) (A) (A) (A)
                 (A) (A) (A) (A) (A) (A) (A) (A) (A) (A) (A) (A)
                 (A) (A) (A) (A) (A) (A) (A) (A) (A) (A) (A) (A)
                 (A) (A) (A) (A) (A) (A) (A) (A) (A) (A) (A) (A)
                 (A) (A) (A) (A) (A) (A) (A) (A) (A) (A) (A) (A)
                 (A) (A) (A) (A) (A) (A) (A) (A) (A) (A) (A) (A)
                 (A) (A) (A) (A) (A) (A) (A) (A) (A) (A) (A) (A)
                 (A) (A) (A) (A) (A) (A) (A) (A) (A) (A) (A) (A)
                 (A) (A) (A) (A) (A) (A) (A) (A) (A) (A) (A) (A)
                 (A) (A) (A) (A) (A) (A) (A) (A) (A) (A) (A) (A)
                 (A) (A) (A) (A) (A) (A) (A) (A) (A) (A) (A) (A)
                 (A) (A) (A) (A) (A) (A) (A) (A) (A) (A) (A) (A)
                 (A) (A) (A) (A) (A) (A) (A) (A) (A) (A) (A) (A)
                 (A) (A) (A) (A) (A) (A) (A) (A) (A) (A) (A) (A)
                 (A) (A) (A) (A) (A) (A) (A) (A) (A) (A) (A) (A)
                 (A) (A) (A) (A) (A) (A) (A) (A) (A) (A) (A) (A)
                 (A) (A) (A) (A) (A) (A) (A) (A) (A) (A) (A) (A)
                 (A) (A) (A) (A) (A) (A) (A) (A) (A) (A) (A) (A)
                 (A) (A) (A) (A) (A) (A) (A) (A) (A) (A) (A) (A)
                 (A) (A) (A) (A) (A) (A) (A) (A) (A) (A) (A) (A)
                 (A) (A) (A) (A) (A) (A) (A) (A) (A) (A) (A) (A)
                 (A) (A) (A) (A) (A) (A) (A) (A) (A) (A) (A) (A)
                 (A) (A) (A) (A) (A) (A) (A) (A) (A) (A) (A) (A)
                 (A) (A) (A) (A) (A) (A) (A) (A) (A) (A) (A) (A)
                 (A) (A) (A) (A) (A) (A) (A) (A) (A) (A) (A) (A)
                 (A) (A) (A) (A) (A) (A) (A) (A) (A) (A) (A) (A)
                 (A) (A) (A) (A) (A) (A) (A) (A) (A) (A) (A) (A)
                 (A) (A) (A) (A) (A) (A) (A) (A) (A) (A) (A) (A)
                 (A) (A) (A) (A) (A) (A) (A) (A) (A) (A) (A) (A)
                 (A) (A) (A) (A) (A) (A) (A) (A) (A) (A) (A) (A)
                 (A) (A) (A) (A) (A) (A) (A) (A) (A) (A) (A) (A)
                 (A) (A) (A) (A) (A) (A) (A) (A) (A) (A) (A) (A)
                 (A) (A) (A) (A) (A) (A) (A) (A) (A) (A) (A) (A)
                 (A) (A) (A) (A) (A) (A) (A) (A) (A) (A) (A) (A)
                 (A) (A) (A) (A) (A) (A) (A) (A) (A) (A) (A) (A)
                 (A) (A) (A) (A) (A) (A) (A) (A) (A) (A) (A) (A)
                 (A) (A) (A) (A) (A) (A) (A) (A) (A) (A) (A)
 The electronic state is 2-A.
 Alpha  occ. eigenvalues -- -483.25600 -62.80409 -56.59558 -56.59162 -56.59148
 Alpha  occ. eigenvalues --  -19.54802 -10.60844 -10.51474 -10.50134 -10.49920
 Alpha  occ. eigenvalues --  -10.48607 -10.47251 -10.46691 -10.46624 -10.45818
 Alpha  occ. eigenvalues --  -10.45437 -10.45437 -10.43592  -8.94502  -6.76745
 Alpha  occ. eigenvalues --   -6.75479  -6.75432  -2.87120  -2.86753  -2.86719
 Alpha  occ. eigenvalues --   -2.85696  -2.85695  -1.43473  -1.18103  -1.14061
 Alpha  occ. eigenvalues --   -1.08826  -1.04508  -1.01952  -0.97044  -0.95465
 Alpha  occ. eigenvalues --   -0.93018  -0.89671  -0.86693  -0.84269  -0.81034
 Alpha  occ. eigenvalues --   -0.78714  -0.77584  -0.75480  -0.74175  -0.72881
 Alpha  occ. eigenvalues --   -0.71361  -0.70477  -0.69785  -0.67530  -0.64643
 Alpha  occ. eigenvalues --   -0.64286  -0.63866  -0.63188  -0.60248  -0.60114
 Alpha  occ. eigenvalues --   -0.58894  -0.56451  -0.56021  -0.55872  -0.54577
 Alpha  occ. eigenvalues --   -0.51426  -0.49714  -0.46436
 Alpha virt. eigenvalues --   -0.19811  -0.11264  -0.07666  -0.05606  -0.02799
 Alpha virt. eigenvalues --   -0.01153  -0.00917   0.01282   0.01573   0.02288
 Alpha virt. eigenvalues --    0.02413   0.04200   0.05494   0.05793   0.06389
 Alpha virt. eigenvalues --    0.07016   0.07849   0.08004   0.08962   0.09419
 Alpha virt. eigenvalues --    0.10281   0.10493   0.11758   0.12561   0.12649
 Alpha virt. eigenvalues --    0.13803   0.14195   0.15026   0.15557   0.16240
 Alpha virt. eigenvalues --    0.16549   0.17302   0.17885   0.18000   0.19210
 Alpha virt. eigenvalues --    0.19236   0.21699   0.21792   0.22058   0.23082
 Alpha virt. eigenvalues --    0.23386   0.23748   0.24445   0.24540   0.25477
 Alpha virt. eigenvalues --    0.26326   0.27531   0.27538   0.27878   0.28721
 Alpha virt. eigenvalues --    0.29256   0.30881   0.31186   0.31443   0.32284
 Alpha virt. eigenvalues --    0.33293   0.33944   0.33955   0.34893   0.36043
 Alpha virt. eigenvalues --    0.36329   0.36962   0.36970   0.37971   0.38215
 Alpha virt. eigenvalues --    0.38529   0.38674   0.39622   0.40631   0.41023
 Alpha virt. eigenvalues --    0.41545   0.42170   0.42758   0.43107   0.44088
 Alpha virt. eigenvalues --    0.44749   0.45969   0.48040   0.48466   0.48751
 Alpha virt. eigenvalues --    0.48860   0.49549   0.50747   0.53069   0.53163
 Alpha virt. eigenvalues --    0.53735   0.56591   0.58102   0.58357   0.60338
 Alpha virt. eigenvalues --    0.60679   0.60746   0.61697   0.63536   0.63703
 Alpha virt. eigenvalues --    0.65519   0.66031   0.66885   0.69319   0.69645
 Alpha virt. eigenvalues --    0.71058   0.72644   0.73244   0.73673   0.74478
 Alpha virt. eigenvalues --    0.75121   0.78328   0.78671   0.81260   0.82883
 Alpha virt. eigenvalues --    0.83426   0.84044   0.84915   0.85093   0.87075
 Alpha virt. eigenvalues --    0.87430   0.88900   0.89621   0.90248   0.91828
 Alpha virt. eigenvalues --    0.92585   0.92807   0.94373   0.94686   0.96430
 Alpha virt. eigenvalues --    0.97122   0.98816   1.00133   1.00808   1.01176
 Alpha virt. eigenvalues --    1.03107   1.04130   1.05530   1.06141   1.06460
 Alpha virt. eigenvalues --    1.08017   1.10260   1.10737   1.11954   1.12295
 Alpha virt. eigenvalues --    1.13311   1.13930   1.14998   1.16001   1.18312
 Alpha virt. eigenvalues --    1.18510   1.18921   1.21802   1.22363   1.24126
 Alpha virt. eigenvalues --    1.24517   1.25935   1.29051   1.29154   1.30187
 Alpha virt. eigenvalues --    1.30951   1.31191   1.31652   1.35400   1.35730
 Alpha virt. eigenvalues --    1.36647   1.37365   1.38880   1.40070   1.41238
 Alpha virt. eigenvalues --    1.42982   1.43361   1.45710   1.47088   1.47179
 Alpha virt. eigenvalues --    1.49151   1.49931   1.50181   1.51217   1.51980
 Alpha virt. eigenvalues --    1.53188   1.53993   1.54553   1.56077   1.56448
 Alpha virt. eigenvalues --    1.56572   1.58586   1.58644   1.59191   1.60691
 Alpha virt. eigenvalues --    1.61106   1.61252   1.64348   1.64714   1.65656
 Alpha virt. eigenvalues --    1.67065   1.68426   1.68632   1.70452   1.72064
 Alpha virt. eigenvalues --    1.72600   1.73228   1.74345   1.75474   1.77120
 Alpha virt. eigenvalues --    1.78555   1.78854   1.80417   1.80563   1.83087
 Alpha virt. eigenvalues --    1.84168   1.85676   1.87018   1.87804   1.89193
 Alpha virt. eigenvalues --    1.90676   1.91999   1.95134   1.95363   1.98020
 Alpha virt. eigenvalues --    1.98960   1.99378   2.04001   2.05155   2.05598
 Alpha virt. eigenvalues --    2.06826   2.08806   2.08955   2.10704   2.13045
 Alpha virt. eigenvalues --    2.13079   2.13667   2.17823   2.20387   2.21961
 Alpha virt. eigenvalues --    2.22157   2.23650   2.25418   2.26903   2.29189
 Alpha virt. eigenvalues --    2.29668   2.32026   2.34122   2.34390   2.34538
 Alpha virt. eigenvalues --    2.37228   2.39928   2.41289   2.41636   2.42710
 Alpha virt. eigenvalues --    2.44511   2.46356   2.47495   2.48626   2.49951
 Alpha virt. eigenvalues --    2.50243   2.52655   2.53826   2.53908   2.55015
 Alpha virt. eigenvalues --    2.55633   2.55717   2.57259   2.57849   2.59971
 Alpha virt. eigenvalues --    2.60893   2.62061   2.63223   2.63278   2.65366
 Alpha virt. eigenvalues --    2.65728   2.67654   2.68782   2.69311   2.71130
 Alpha virt. eigenvalues --    2.71421   2.72437   2.73509   2.74371   2.76427
 Alpha virt. eigenvalues --    2.76814   2.78986   2.79447   2.80452   2.82033
 Alpha virt. eigenvalues --    2.82502   2.83617   2.84630   2.85526   2.85704
 Alpha virt. eigenvalues --    2.87405   2.89713   2.91429   2.91580   2.92855
 Alpha virt. eigenvalues --    2.93509   2.94064   2.95867   2.96590   2.98330
 Alpha virt. eigenvalues --    2.99605   3.00587   3.02732   3.05574   3.06458
 Alpha virt. eigenvalues --    3.06833   3.06859   3.08688   3.09294   3.09354
 Alpha virt. eigenvalues --    3.10620   3.12211   3.12881   3.14808   3.15376
 Alpha virt. eigenvalues --    3.17070   3.18335   3.18478   3.19470   3.20830
 Alpha virt. eigenvalues --    3.21910   3.22434   3.23526   3.25110   3.25613
 Alpha virt. eigenvalues --    3.27070   3.28022   3.29025   3.29185   3.30919
 Alpha virt. eigenvalues --    3.33250   3.34649   3.35316   3.35514   3.37172
 Alpha virt. eigenvalues --    3.37749   3.39265   3.40297   3.40985   3.42073
 Alpha virt. eigenvalues --    3.44713   3.45520   3.47593   3.48525   3.49702
 Alpha virt. eigenvalues --    3.50264   3.50440   3.52360   3.53602   3.55014
 Alpha virt. eigenvalues --    3.58598   3.60134   3.60860   3.63443   3.65887
 Alpha virt. eigenvalues --    3.68049   3.68320   3.68890   3.71094   3.72672
 Alpha virt. eigenvalues --    3.73516   3.76000   3.76849   3.77553   3.81134
 Alpha virt. eigenvalues --    3.81613   3.83157   3.89748   3.92639   3.93031
 Alpha virt. eigenvalues --    3.94238   3.95193   3.97040   3.98262   3.99057
 Alpha virt. eigenvalues --    4.00064   4.00871   4.03490   4.04123   4.05590
 Alpha virt. eigenvalues --    4.05632   4.09788   4.10072   4.11129   4.13354
 Alpha virt. eigenvalues --    4.14516   4.15724   4.15899   4.16126   4.18820
 Alpha virt. eigenvalues --    4.20776   4.23385   4.24372   4.24547   4.25926
 Alpha virt. eigenvalues --    4.26636   4.28344   4.30181   4.35909   4.36707
 Alpha virt. eigenvalues --    4.39025   4.40650   4.41017   4.42823   4.43644
 Alpha virt. eigenvalues --    4.46872   4.52514   4.52602   4.55445   4.59572
 Alpha virt. eigenvalues --    4.62635   4.63166   4.66583   4.66962   4.68653
 Alpha virt. eigenvalues --    4.74812   4.77895   4.78992   4.84257   4.85936
 Alpha virt. eigenvalues --    4.88062   4.93004   4.96711   4.98476   5.00814
 Alpha virt. eigenvalues --    5.02055   5.06904   5.09937   5.19888   5.22717
 Alpha virt. eigenvalues --    5.24397   5.35021   5.41958   5.45935   5.48765
 Alpha virt. eigenvalues --    5.61778   5.69865   6.02704   6.18455   6.32406
 Alpha virt. eigenvalues --    6.41498   6.57574   6.65800   6.89969   6.95320
 Alpha virt. eigenvalues --    7.73792  22.05216  22.34575  22.45935  22.51844
 Alpha virt. eigenvalues --   22.54395  22.63434  22.68907  22.74837  22.85848
 Alpha virt. eigenvalues --   22.94740  23.35990  23.56651  43.83257
  Beta  occ. eigenvalues -- -483.25599 -62.80408 -56.59555 -56.59161 -56.59146
  Beta  occ. eigenvalues --  -19.53202 -10.60867 -10.51202 -10.50114 -10.49662
  Beta  occ. eigenvalues --  -10.48610 -10.47258 -10.46691 -10.46642 -10.45801
  Beta  occ. eigenvalues --  -10.45425 -10.45425 -10.43553  -8.94500  -6.76741
  Beta  occ. eigenvalues --   -6.75478  -6.75429  -2.87117  -2.86751  -2.86716
  Beta  occ. eigenvalues --   -2.85694  -2.85694  -1.39868  -1.17480  -1.13699
  Beta  occ. eigenvalues --   -1.08548  -1.04130  -1.01718  -0.96098  -0.95088
  Beta  occ. eigenvalues --   -0.92916  -0.88890  -0.85954  -0.83006  -0.79748
  Beta  occ. eigenvalues --   -0.77857  -0.74937  -0.74432  -0.74056  -0.72343
  Beta  occ. eigenvalues --   -0.71072  -0.70061  -0.69083  -0.65474  -0.64373
  Beta  occ. eigenvalues --   -0.64157  -0.63025  -0.61603  -0.59896  -0.58805
  Beta  occ. eigenvalues --   -0.57519  -0.55959  -0.55683  -0.54368  -0.51317
  Beta  occ. eigenvalues --   -0.49700  -0.46430
  Beta virt. eigenvalues --   -0.32032  -0.19402  -0.11299  -0.07458  -0.05508
  Beta virt. eigenvalues --   -0.02746  -0.00962  -0.00705   0.01361   0.01619
  Beta virt. eigenvalues --    0.02308   0.02513   0.04290   0.05586   0.05868
  Beta virt. eigenvalues --    0.06480   0.07063   0.08013   0.08172   0.09067
  Beta virt. eigenvalues --    0.09553   0.10276   0.10629   0.11835   0.12663
  Beta virt. eigenvalues --    0.12888   0.13858   0.14392   0.15316   0.15827
  Beta virt. eigenvalues --    0.16257   0.16572   0.17688   0.17999   0.18238
  Beta virt. eigenvalues --    0.19276   0.19317   0.21833   0.21862   0.22307
  Beta virt. eigenvalues --    0.23127   0.23519   0.23791   0.24560   0.24612
  Beta virt. eigenvalues --    0.25580   0.26539   0.27642   0.27853   0.28244
  Beta virt. eigenvalues --    0.28813   0.29566   0.30900   0.31330   0.31673
  Beta virt. eigenvalues --    0.32315   0.33392   0.34004   0.34083   0.35081
  Beta virt. eigenvalues --    0.36080   0.36510   0.36985   0.37168   0.38164
  Beta virt. eigenvalues --    0.38256   0.38576   0.38785   0.39730   0.40867
  Beta virt. eigenvalues --    0.41118   0.41602   0.42281   0.42979   0.43139
  Beta virt. eigenvalues --    0.44160   0.44996   0.46271   0.48148   0.48554
  Beta virt. eigenvalues --    0.48843   0.49050   0.49821   0.50843   0.53234
  Beta virt. eigenvalues --    0.53315   0.53821   0.56782   0.58246   0.58438
  Beta virt. eigenvalues --    0.60372   0.60725   0.60861   0.61821   0.63674
  Beta virt. eigenvalues --    0.63724   0.65635   0.66185   0.67285   0.69570
  Beta virt. eigenvalues --    0.69708   0.71179   0.72812   0.73268   0.73839
  Beta virt. eigenvalues --    0.74740   0.75187   0.78547   0.78850   0.81465
  Beta virt. eigenvalues --    0.82944   0.83501   0.84442   0.85078   0.85187
  Beta virt. eigenvalues --    0.87119   0.87522   0.88943   0.89693   0.90346
  Beta virt. eigenvalues --    0.91898   0.92635   0.92976   0.94526   0.94810
  Beta virt. eigenvalues --    0.96514   0.97280   0.98886   1.00389   1.00886
  Beta virt. eigenvalues --    1.01445   1.03251   1.04195   1.05659   1.06310
  Beta virt. eigenvalues --    1.06582   1.08139   1.10661   1.10856   1.12063
  Beta virt. eigenvalues --    1.12438   1.13394   1.13986   1.15238   1.16082
  Beta virt. eigenvalues --    1.18462   1.18634   1.19098   1.21964   1.22542
  Beta virt. eigenvalues --    1.24311   1.24659   1.26499   1.29188   1.29274
  Beta virt. eigenvalues --    1.30308   1.30984   1.31375   1.31661   1.35556
  Beta virt. eigenvalues --    1.36017   1.36755   1.37594   1.39146   1.40133
  Beta virt. eigenvalues --    1.41506   1.43145   1.43506   1.45808   1.47124
  Beta virt. eigenvalues --    1.47540   1.49440   1.49947   1.50310   1.51304
  Beta virt. eigenvalues --    1.52016   1.53298   1.54160   1.54721   1.56246
  Beta virt. eigenvalues --    1.56636   1.56942   1.58686   1.59118   1.59260
  Beta virt. eigenvalues --    1.60809   1.61252   1.61714   1.64551   1.64925
  Beta virt. eigenvalues --    1.65976   1.67120   1.68510   1.68833   1.70576
  Beta virt. eigenvalues --    1.72221   1.72673   1.73392   1.74387   1.75624
  Beta virt. eigenvalues --    1.77215   1.79068   1.79326   1.80647   1.80679
  Beta virt. eigenvalues --    1.83347   1.84298   1.85734   1.87212   1.87887
  Beta virt. eigenvalues --    1.89272   1.90926   1.92173   1.95471   1.95502
  Beta virt. eigenvalues --    1.98270   1.99287   1.99489   2.04353   2.05389
  Beta virt. eigenvalues --    2.05982   2.07081   2.08873   2.09267   2.11090
  Beta virt. eigenvalues --    2.13129   2.13320   2.13819   2.18332   2.21234
  Beta virt. eigenvalues --    2.22243   2.22486   2.23779   2.25584   2.27177
  Beta virt. eigenvalues --    2.29280   2.29857   2.32235   2.34314   2.34550
  Beta virt. eigenvalues --    2.34954   2.37539   2.40462   2.41414   2.41770
  Beta virt. eigenvalues --    2.42906   2.44705   2.46530   2.47684   2.48767
  Beta virt. eigenvalues --    2.50286   2.50474   2.52811   2.53987   2.54111
  Beta virt. eigenvalues --    2.55148   2.55743   2.55867   2.57586   2.57954
  Beta virt. eigenvalues --    2.60108   2.61061   2.62355   2.63325   2.63553
  Beta virt. eigenvalues --    2.65449   2.65880   2.67755   2.68871   2.69475
  Beta virt. eigenvalues --    2.71254   2.71574   2.72608   2.73574   2.74699
  Beta virt. eigenvalues --    2.76572   2.76942   2.79103   2.79629   2.80525
  Beta virt. eigenvalues --    2.82170   2.82934   2.83914   2.84725   2.85863
  Beta virt. eigenvalues --    2.86233   2.87702   2.90118   2.91720   2.91734
  Beta virt. eigenvalues --    2.92983   2.93587   2.94296   2.96022   2.96855
  Beta virt. eigenvalues --    2.98714   2.99706   3.00673   3.02935   3.06158
  Beta virt. eigenvalues --    3.06558   3.06905   3.07070   3.08882   3.09445
  Beta virt. eigenvalues --    3.09477   3.10752   3.12603   3.13187   3.15394
  Beta virt. eigenvalues --    3.15493   3.17236   3.18540   3.18643   3.19701
  Beta virt. eigenvalues --    3.21014   3.22374   3.22583   3.24056   3.25267
  Beta virt. eigenvalues --    3.25697   3.27531   3.28339   3.29100   3.29452
  Beta virt. eigenvalues --    3.30956   3.33648   3.34852   3.35601   3.35746
  Beta virt. eigenvalues --    3.37278   3.37904   3.39347   3.40465   3.41013
  Beta virt. eigenvalues --    3.42189   3.44957   3.45690   3.47695   3.48589
  Beta virt. eigenvalues --    3.49817   3.50300   3.50691   3.53008   3.53835
  Beta virt. eigenvalues --    3.55140   3.58834   3.60271   3.61214   3.63758
  Beta virt. eigenvalues --    3.66118   3.68208   3.68473   3.69098   3.71267
  Beta virt. eigenvalues --    3.72795   3.74051   3.76296   3.76960   3.77786
  Beta virt. eigenvalues --    3.81264   3.81809   3.83367   3.89891   3.92898
  Beta virt. eigenvalues --    3.93174   3.94352   3.95343   3.97302   3.98319
  Beta virt. eigenvalues --    3.99138   4.00249   4.01063   4.03741   4.04285
  Beta virt. eigenvalues --    4.05715   4.05856   4.10052   4.10357   4.11319
  Beta virt. eigenvalues --    4.13476   4.14715   4.15913   4.16084   4.16240
  Beta virt. eigenvalues --    4.18908   4.21028   4.23496   4.24473   4.24706
  Beta virt. eigenvalues --    4.26356   4.26991   4.28565   4.30398   4.35999
  Beta virt. eigenvalues --    4.37108   4.39253   4.40893   4.41387   4.42964
  Beta virt. eigenvalues --    4.44268   4.47145   4.52755   4.52776   4.55734
  Beta virt. eigenvalues --    4.59847   4.63147   4.63335   4.66759   4.67265
  Beta virt. eigenvalues --    4.69147   4.75077   4.78218   4.79290   4.84394
  Beta virt. eigenvalues --    4.86247   4.88376   4.93295   4.97201   4.99666
  Beta virt. eigenvalues --    5.04822   5.05083   5.07459   5.10719   5.20128
  Beta virt. eigenvalues --    5.23185   5.24829   5.35412   5.42329   5.48721
  Beta virt. eigenvalues --    5.49049   5.63221   5.71546   6.03833   6.24218
  Beta virt. eigenvalues --    6.33861   6.47234   6.61170   6.67177   6.93746
  Beta virt. eigenvalues --    6.97816   7.73804  22.05301  22.34603  22.45998
  Beta virt. eigenvalues --   22.51869  22.54421  22.63454  22.68952  22.74885
  Beta virt. eigenvalues --   22.86210  22.94799  23.36015  23.56818  43.84878
          Condensed to atoms (all electrons):
               1          2          3          4          5          6
     1  O    7.636346   0.479888  -0.057278   0.006557   0.000776  -0.000013
     2  C    0.479888   4.878546   0.306977  -0.088483  -0.001469  -0.001404
     3  C   -0.057278   0.306977   5.206947   0.241159   0.067995   0.019930
     4  C    0.006557  -0.088483   0.241159   5.457259   0.342676  -0.088022
     5  C    0.000776  -0.001469   0.067995   0.342676   4.846643   0.415174
     6  Br  -0.000013  -0.001404   0.019930  -0.088022   0.415174  34.691422
     7  C    0.000172  -0.001302  -0.085917  -0.000981   0.339461  -0.088353
     8  C   -0.000199   0.008364  -0.005527  -0.062119   0.094055   0.018416
     9  C    0.005464  -0.044642   0.407114  -0.066169  -0.087288  -0.001300
    10  C    0.003440  -0.054160  -0.082662   0.019433  -0.005185  -0.000005
    11  C   -0.019731   0.242900  -0.041479   0.012699  -0.001269   0.000003
    12  C   -0.009813  -0.001821   0.009205  -0.000396   0.000112   0.000001
    13  C    0.001990   0.005465  -0.003496   0.000105  -0.000014  -0.000000
    14  C   -0.009781  -0.001955   0.009085  -0.000395   0.000112   0.000001
    15  H    0.002475  -0.004978  -0.049902   0.428116  -0.034983  -0.004500
    16  H    0.000000   0.000142  -0.003602   0.016038  -0.056915  -0.004517
    17  H    0.000001   0.000032   0.014189  -0.002465   0.007899  -0.000110
    18  H   -0.000016   0.001902   0.000942  -0.000063   0.000089  -0.000001
    19  H   -0.000015   0.001997   0.000853  -0.000065   0.000089  -0.000001
    20  H    0.000151  -0.001018   0.001917   0.000027  -0.000004   0.000000
    21  H    0.002938  -0.011950  -0.000227  -0.000057  -0.000007  -0.000000
    22  H   -0.000083  -0.000080   0.000053  -0.000000   0.000000   0.000000
    23  H   -0.000024  -0.000595  -0.000110  -0.000003   0.000001   0.000000
    24  H    0.000150  -0.000964   0.001917   0.000027  -0.000004   0.000000
    25  H    0.002955  -0.012069  -0.000268  -0.000057  -0.000007  -0.000000
               7          8          9         10         11         12
     1  O    0.000172  -0.000199   0.005464   0.003440  -0.019731  -0.009813
     2  C   -0.001302   0.008364  -0.044642  -0.054160   0.242900  -0.001821
     3  C   -0.085917  -0.005527   0.407114  -0.082662  -0.041479   0.009205
     4  C   -0.000981  -0.062119  -0.066169   0.019433   0.012699  -0.000396
     5  C    0.339461   0.094055  -0.087288  -0.005185  -0.001269   0.000112
     6  Br  -0.088353   0.018416  -0.001300  -0.000005   0.000003   0.000001
     7  C    5.088282   0.323987   0.068235   0.005744   0.001784   0.000041
     8  C    0.323987   5.182834   0.344830  -0.084220  -0.000181  -0.000929
     9  C    0.068235   0.344830   5.133242   0.357980  -0.029076  -0.011998
    10  C    0.005744  -0.084220   0.357980   4.927133   0.362557  -0.002491
    11  C    0.001784  -0.000181  -0.029076   0.362557   5.006268   0.239323
    12  C    0.000041  -0.000929  -0.011998  -0.002491   0.239323   5.017933
    13  C    0.000002   0.000127   0.003950   0.002486  -0.068981   0.311748
    14  C    0.000041  -0.000926  -0.012018  -0.002408   0.239652  -0.083529
    15  H    0.014038  -0.004882   0.012070  -0.000022   0.000455  -0.000029
    16  H    0.444118  -0.054035   0.011795  -0.000062   0.000017  -0.000001
    17  H   -0.042635   0.444503  -0.054540  -0.004114  -0.000161  -0.000035
    18  H    0.000102  -0.000190  -0.017855   0.391053  -0.024396   0.002978
    19  H    0.000105  -0.000164  -0.017847   0.391189  -0.024535  -0.001858
    20  H    0.000004  -0.000213  -0.002877  -0.002919  -0.040967   0.425805
    21  H    0.000000   0.000076   0.001043   0.003607   0.007977   0.379208
    22  H    0.000000  -0.000004  -0.000039  -0.000398   0.000745  -0.016765
    23  H   -0.000001   0.000031   0.001220  -0.001912   0.012644  -0.035303
    24  H    0.000004  -0.000213  -0.002882  -0.002897  -0.041074   0.015838
    25  H    0.000000   0.000077   0.001050   0.003601   0.008249  -0.015999
              13         14         15         16         17         18
     1  O    0.001990  -0.009781   0.002475   0.000000   0.000001  -0.000016
     2  C    0.005465  -0.001955  -0.004978   0.000142   0.000032   0.001902
     3  C   -0.003496   0.009085  -0.049902  -0.003602   0.014189   0.000942
     4  C    0.000105  -0.000395   0.428116   0.016038  -0.002465  -0.000063
     5  C   -0.000014   0.000112  -0.034983  -0.056915   0.007899   0.000089
     6  Br  -0.000000   0.000001  -0.004500  -0.004517  -0.000110  -0.000001
     7  C    0.000002   0.000041   0.014038   0.444118  -0.042635   0.000102
     8  C    0.000127  -0.000926  -0.004882  -0.054035   0.444503  -0.000190
     9  C    0.003950  -0.012018   0.012070   0.011795  -0.054540  -0.017855
    10  C    0.002486  -0.002408  -0.000022  -0.000062  -0.004114   0.391053
    11  C   -0.068981   0.239652   0.000455   0.000017  -0.000161  -0.024396
    12  C    0.311748  -0.083529  -0.000029  -0.000001  -0.000035   0.002978
    13  C    4.881184   0.311817   0.000002   0.000000   0.000002  -0.002006
    14  C    0.311817   5.017556  -0.000030  -0.000001  -0.000035  -0.001857
    15  H    0.000002  -0.000030   0.456248   0.000127  -0.000001   0.000007
    16  H    0.000000  -0.000001   0.000127   0.464001  -0.004952  -0.000004
    17  H    0.000002  -0.000035  -0.000001  -0.004952   0.474539   0.000373
    18  H   -0.002006  -0.001857   0.000007  -0.000004   0.000373   0.493510
    19  H   -0.002015   0.002975   0.000007  -0.000004   0.000370  -0.015253
    20  H   -0.033567   0.015818   0.000000  -0.000000  -0.000003  -0.000123
    21  H   -0.009571  -0.015938   0.000002   0.000000   0.000001   0.000534
    22  H    0.412822  -0.016773   0.000000   0.000000  -0.000000  -0.000008
    23  H    0.422185  -0.035297  -0.000000  -0.000000   0.000002   0.000079
    24  H   -0.033592   0.425861   0.000000  -0.000000  -0.000003   0.000380
    25  H   -0.009555   0.379103   0.000002   0.000000   0.000001  -0.000190
              19         20         21         22         23         24
     1  O   -0.000015   0.000151   0.002938  -0.000083  -0.000024   0.000150
     2  C    0.001997  -0.001018  -0.011950  -0.000080  -0.000595  -0.000964
     3  C    0.000853   0.001917  -0.000227   0.000053  -0.000110   0.001917
     4  C   -0.000065   0.000027  -0.000057  -0.000000  -0.000003   0.000027
     5  C    0.000089  -0.000004  -0.000007   0.000000   0.000001  -0.000004
     6  Br  -0.000001   0.000000  -0.000000   0.000000   0.000000   0.000000
     7  C    0.000105   0.000004   0.000000   0.000000  -0.000001   0.000004
     8  C   -0.000164  -0.000213   0.000076  -0.000004   0.000031  -0.000213
     9  C   -0.017847  -0.002877   0.001043  -0.000039   0.001220  -0.002882
    10  C    0.391189  -0.002919   0.003607  -0.000398  -0.001912  -0.002897
    11  C   -0.024535  -0.040967   0.007977   0.000745   0.012644  -0.041074
    12  C   -0.001858   0.425805   0.379208  -0.016765  -0.035303   0.015838
    13  C   -0.002015  -0.033567  -0.009571   0.412822   0.422185  -0.033592
    14  C    0.002975   0.015818  -0.015938  -0.016773  -0.035297   0.425861
    15  H    0.000007   0.000000   0.000002   0.000000  -0.000000   0.000000
    16  H   -0.000004  -0.000000   0.000000   0.000000  -0.000000  -0.000000
    17  H    0.000370  -0.000003   0.000001  -0.000000   0.000002  -0.000003
    18  H   -0.015253  -0.000123   0.000534  -0.000008   0.000079   0.000380
    19  H    0.493446   0.000380  -0.000190  -0.000008   0.000081  -0.000132
    20  H    0.000380   0.500852  -0.012439   0.000816  -0.004640  -0.000326
    21  H   -0.000190  -0.012439   0.513296  -0.006226   0.002710  -0.000519
    22  H   -0.000008   0.000816  -0.006226   0.485372  -0.011270   0.000817
    23  H    0.000081  -0.004640   0.002710  -0.011270   0.510456  -0.004640
    24  H   -0.000132  -0.000326  -0.000519   0.000817  -0.004640   0.500860
    25  H    0.000536  -0.000519   0.002220  -0.006228   0.002710  -0.012453
              25
     1  O    0.002955
     2  C   -0.012069
     3  C   -0.000268
     4  C   -0.000057
     5  C   -0.000007
     6  Br  -0.000000
     7  C    0.000000
     8  C    0.000077
     9  C    0.001050
    10  C    0.003601
    11  C    0.008249
    12  C   -0.015999
    13  C   -0.009555
    14  C    0.379103
    15  H    0.000002
    16  H    0.000000
    17  H    0.000001
    18  H   -0.000190
    19  H    0.000536
    20  H   -0.000519
    21  H    0.002220
    22  H   -0.006228
    23  H    0.002710
    24  H   -0.012453
    25  H    0.513394
          Atomic-Atomic Spin Densities.
               1          2          3          4          5          6
     1  O    0.741544  -0.085104  -0.020838   0.009863   0.000447   0.000029
     2  C   -0.085104   0.044868   0.000068  -0.003655  -0.001156   0.000120
     3  C   -0.020838   0.000068   0.196120  -0.033794  -0.000378  -0.000624
     4  C    0.009863  -0.003655  -0.033794   0.015225   0.001870  -0.003115
     5  C    0.000447  -0.001156  -0.000378   0.001870   0.011552   0.001031
     6  Br   0.000029   0.000120  -0.000624  -0.003115   0.001031   0.007333
     7  C    0.000095  -0.000300  -0.001050   0.000765  -0.003808   0.000720
     8  C   -0.000210  -0.000073   0.001507  -0.004068   0.001667  -0.000075
     9  C    0.000432   0.005290  -0.007012   0.008722  -0.001938  -0.000050
    10  C    0.001323  -0.020130   0.012301  -0.002149   0.000096  -0.000012
    11  C    0.009838   0.038514  -0.012230   0.003703   0.000042   0.000014
    12  C   -0.002776   0.004588   0.001778  -0.000060  -0.000007  -0.000000
    13  C    0.000147   0.000050  -0.000780   0.000030   0.000001   0.000000
    14  C   -0.002784   0.004593   0.001763  -0.000059  -0.000007  -0.000000
    15  H    0.001879  -0.000416  -0.004084   0.002257  -0.000493   0.000726
    16  H   -0.000000  -0.000017  -0.000067   0.000093   0.000371  -0.000075
    17  H    0.000001   0.000071   0.000313  -0.000005  -0.000146   0.000002
    18  H   -0.000039   0.001281  -0.000910   0.000138  -0.000013   0.000000
    19  H   -0.000039   0.001284  -0.000915   0.000139  -0.000013   0.000000
    20  H   -0.000135   0.000277  -0.000226   0.000020  -0.000000   0.000000
    21  H    0.002935  -0.003367   0.000909  -0.000117  -0.000001  -0.000000
    22  H    0.000086  -0.000117   0.000050  -0.000001  -0.000000  -0.000000
    23  H    0.000024  -0.000003   0.000043  -0.000002   0.000000  -0.000000
    24  H   -0.000135   0.000275  -0.000224   0.000020  -0.000000   0.000000
    25  H    0.002933  -0.003364   0.000909  -0.000117  -0.000001  -0.000000
               7          8          9         10         11         12
     1  O    0.000095  -0.000210   0.000432   0.001323   0.009838  -0.002776
     2  C   -0.000300  -0.000073   0.005290  -0.020130   0.038514   0.004588
     3  C   -0.001050   0.001507  -0.007012   0.012301  -0.012230   0.001778
     4  C    0.000765  -0.004068   0.008722  -0.002149   0.003703  -0.000060
     5  C   -0.003808   0.001667  -0.001938   0.000096   0.000042  -0.000007
     6  Br   0.000720  -0.000075  -0.000050  -0.000012   0.000014  -0.000000
     7  C   -0.009800  -0.003617   0.003343  -0.000046   0.000102   0.000000
     8  C   -0.003617   0.019012  -0.002691   0.001444  -0.001779  -0.000008
     9  C    0.003343  -0.002691  -0.007734  -0.000057  -0.003598  -0.000698
    10  C   -0.000046   0.001444  -0.000057   0.010253   0.009817   0.000057
    11  C    0.000102  -0.001779  -0.003598   0.009817   0.123983  -0.011235
    12  C    0.000000  -0.000008  -0.000698   0.000057  -0.011235   0.012420
    13  C    0.000000  -0.000009   0.000264  -0.001396  -0.003758   0.003511
    14  C    0.000000  -0.000008  -0.000694   0.000037  -0.011220   0.005845
    15  H    0.000453  -0.000272   0.000418  -0.000084   0.000145  -0.000004
    16  H   -0.000114  -0.000224   0.000054   0.000012  -0.000006   0.000000
    17  H   -0.000545   0.000399  -0.000190  -0.000140   0.000121  -0.000005
    18  H   -0.000009  -0.000467   0.000849  -0.002758   0.000348   0.000032
    19  H   -0.000009  -0.000470   0.000846  -0.002769   0.000359   0.000095
    20  H    0.000001  -0.000017   0.000057  -0.000571  -0.000201   0.001277
    21  H   -0.000001   0.000020   0.000029   0.000788   0.003927  -0.004074
    22  H    0.000000   0.000000  -0.000013   0.000144   0.000844  -0.001552
    23  H   -0.000000   0.000003  -0.000029   0.000333   0.000527  -0.000419
    24  H    0.000001  -0.000017   0.000056  -0.000565  -0.000202   0.000126
    25  H   -0.000001   0.000020   0.000029   0.000787   0.003929  -0.001695
              13         14         15         16         17         18
     1  O    0.000147  -0.002784   0.001879  -0.000000   0.000001  -0.000039
     2  C    0.000050   0.004593  -0.000416  -0.000017   0.000071   0.001281
     3  C   -0.000780   0.001763  -0.004084  -0.000067   0.000313  -0.000910
     4  C    0.000030  -0.000059   0.002257   0.000093  -0.000005   0.000138
     5  C    0.000001  -0.000007  -0.000493   0.000371  -0.000146  -0.000013
     6  Br   0.000000  -0.000000   0.000726  -0.000075   0.000002   0.000000
     7  C    0.000000   0.000000   0.000453  -0.000114  -0.000545  -0.000009
     8  C   -0.000009  -0.000008  -0.000272  -0.000224   0.000399  -0.000467
     9  C    0.000264  -0.000694   0.000418   0.000054  -0.000190   0.000849
    10  C   -0.001396   0.000037  -0.000084   0.000012  -0.000140  -0.002758
    11  C   -0.003758  -0.011220   0.000145  -0.000006   0.000121   0.000348
    12  C    0.003511   0.005845  -0.000004   0.000000  -0.000005   0.000032
    13  C    0.015465   0.003522   0.000001  -0.000000   0.000002   0.000222
    14  C    0.003522   0.012373  -0.000004   0.000000  -0.000005   0.000097
    15  H    0.000001  -0.000004   0.002567  -0.000009   0.000003   0.000003
    16  H   -0.000000   0.000000  -0.000009   0.000410  -0.000096  -0.000002
    17  H    0.000002  -0.000005   0.000003  -0.000096   0.002617   0.000107
    18  H    0.000222   0.000097   0.000003  -0.000002   0.000107   0.002848
    19  H    0.000224   0.000032   0.000003  -0.000002   0.000108   0.001078
    20  H   -0.000043   0.000127   0.000001  -0.000000   0.000001   0.000163
    21  H   -0.000073  -0.001697  -0.000006   0.000000  -0.000000  -0.000102
    22  H    0.001735  -0.001553  -0.000000   0.000000  -0.000000  -0.000014
    23  H   -0.000241  -0.000421  -0.000000   0.000000  -0.000000  -0.000081
    24  H   -0.000046   0.001274   0.000001  -0.000000   0.000001   0.000033
    25  H   -0.000071  -0.004077  -0.000006   0.000000  -0.000000  -0.000031
              19         20         21         22         23         24
     1  O   -0.000039  -0.000135   0.002935   0.000086   0.000024  -0.000135
     2  C    0.001284   0.000277  -0.003367  -0.000117  -0.000003   0.000275
     3  C   -0.000915  -0.000226   0.000909   0.000050   0.000043  -0.000224
     4  C    0.000139   0.000020  -0.000117  -0.000001  -0.000002   0.000020
     5  C   -0.000013  -0.000000  -0.000001  -0.000000   0.000000  -0.000000
     6  Br   0.000000   0.000000  -0.000000  -0.000000  -0.000000   0.000000
     7  C   -0.000009   0.000001  -0.000001   0.000000  -0.000000   0.000001
     8  C   -0.000470  -0.000017   0.000020   0.000000   0.000003  -0.000017
     9  C    0.000846   0.000057   0.000029  -0.000013  -0.000029   0.000056
    10  C   -0.002769  -0.000571   0.000788   0.000144   0.000333  -0.000565
    11  C    0.000359  -0.000201   0.003927   0.000844   0.000527  -0.000202
    12  C    0.000095   0.001277  -0.004074  -0.001552  -0.000419   0.000126
    13  C    0.000224  -0.000043  -0.000073   0.001735  -0.000241  -0.000046
    14  C    0.000032   0.000127  -0.001697  -0.001553  -0.000421   0.001274
    15  H    0.000003   0.000001  -0.000006  -0.000000  -0.000000   0.000001
    16  H   -0.000002  -0.000000   0.000000   0.000000   0.000000  -0.000000
    17  H    0.000108   0.000001  -0.000000  -0.000000  -0.000000   0.000001
    18  H    0.001078   0.000163  -0.000102  -0.000014  -0.000081   0.000033
    19  H    0.002898   0.000033  -0.000031  -0.000014  -0.000081   0.000162
    20  H    0.000033   0.000260  -0.000732   0.000001  -0.000005   0.000003
    21  H   -0.000031  -0.000732   0.004900   0.000445   0.000153  -0.000041
    22  H   -0.000014   0.000001   0.000445   0.008170   0.000135   0.000001
    23  H   -0.000081  -0.000005   0.000153   0.000135  -0.000097  -0.000005
    24  H    0.000162   0.000003  -0.000041   0.000001  -0.000005   0.000253
    25  H   -0.000102  -0.000042   0.000559   0.000444   0.000153  -0.000729
              25
     1  O    0.002933
     2  C   -0.003364
     3  C    0.000909
     4  C   -0.000117
     5  C   -0.000001
     6  Br  -0.000000
     7  C   -0.000001
     8  C    0.000020
     9  C    0.000029
    10  C    0.000787
    11  C    0.003929
    12  C   -0.001695
    13  C   -0.000071
    14  C   -0.004077
    15  H   -0.000006
    16  H    0.000000
    17  H   -0.000000
    18  H   -0.000031
    19  H   -0.000102
    20  H   -0.000042
    21  H    0.000559
    22  H    0.000444
    23  H    0.000153
    24  H   -0.000729
    25  H    0.004893
 Mulliken charges and spin densities:
               1          2
     1  O   -0.046350   0.659514
     2  C    0.300678  -0.016425
     3  C    0.042188   0.132630
     4  C   -0.214820  -0.004297
     5  C    0.072065   0.009111
     6  Br   0.043280   0.006023
     7  C   -0.066927  -0.013820
     8  C   -0.203497   0.010065
     9  C    0.000540  -0.004313
    10  C   -0.224767   0.006716
    11  C    0.156578   0.151986
    12  C   -0.221225   0.007198
    13  C   -0.191089   0.018756
    14  C   -0.221082   0.007134
    15  H    0.185776   0.003080
    16  H    0.187855   0.000329
    17  H    0.167142   0.002613
    18  H    0.170011   0.002773
    19  H    0.170060   0.002817
    20  H    0.153845   0.000248
    21  H    0.143512   0.004423
    22  H    0.157257   0.008790
    23  H    0.141676  -0.000014
    24  H    0.153846   0.000242
    25  H    0.143448   0.004420
 Sum of Mulliken charges =   1.00000   1.00000
 Mulliken charges and spin densities with hydrogens summed into heavy atoms:
               1          2
     1  O   -0.046350   0.659514
     2  C    0.300678  -0.016425
     3  C    0.042188   0.132630
     4  C   -0.029043  -0.001216
     5  C    0.072065   0.009111
     6  Br   0.043280   0.006023
     7  C    0.120928  -0.013491
     8  C   -0.036355   0.012678
     9  C    0.000540  -0.004313
    10  C    0.115304   0.012307
    11  C    0.156578   0.151986
    12  C    0.076132   0.011868
    13  C    0.107844   0.027532
    14  C    0.076213   0.011796
 Electronic spatial extent (au):  <R**2>=           4792.9503
 Charge=              1.0000 electrons
 Dipole moment (field-independent basis, Debye):
    X=             -7.5822    Y=              1.8174    Z=             -0.0008  Tot=              7.7970
 Quadrupole moment (field-independent basis, Debye-Ang):
   XX=            -45.9528   YY=            -76.3629   ZZ=            -89.5174
   XY=              1.5636   XZ=              0.0010   YZ=              0.0030
 Traceless Quadrupole moment (field-independent basis, Debye-Ang):
   XX=             24.6582   YY=             -5.7519   ZZ=            -18.9063
   XY=              1.5636   XZ=              0.0010   YZ=              0.0030
 Octapole moment (field-independent basis, Debye-Ang**2):
  XXX=            -17.9315  YYY=              4.5394  ZZZ=              0.0084  XYY=             32.2946
  XXY=             -6.7235  XXZ=              0.0109  XZZ=             19.1254  YZZ=             -7.0760
  YYZ=              0.0023  XYZ=             -0.0005
 Hexadecapole moment (field-independent basis, Debye-Ang**3):
 XXXX=          -3692.6572 YYYY=           -637.4406 ZZZZ=           -210.1886 XXXY=            -14.9633
 XXXZ=             -0.0074 YYYX=            -19.9260 YYYZ=              0.0074 ZZZX=              0.0143
 ZZZY=              0.0013 XXYY=           -811.1493 XXZZ=           -769.6983 YYZZ=           -155.2284
 XXYZ=              0.0008 YYXZ=              0.0096 ZZXY=            -14.2711
 N-N= 1.115865050761D+03 E-N=-9.616976734272D+03  KE= 3.106807556143D+03
 There are a total of      575672 grid points.
 ElSum from          density=      125.0000167734
 ElSum from atomic densities=      126.0000565225

 Hirshfeld populations at iteration   1 (CX, CA, CB, DipXYZ):
               1          2          3          4          5          6
     1  O    0.000000   4.282988   3.691484   0.002388   0.008603   0.000044
     2  C    0.000000   2.926646   2.849855  -0.018445  -0.044774  -0.000478
     3  C    0.000000   3.050823   2.946054  -0.024026  -0.062687   0.000045
     4  C    0.000000   3.005375   3.002274  -0.010197  -0.066434   0.000009
     5  C    0.000000   2.990982   2.984113   0.048223  -0.002966   0.000004
     6  Br   0.000000  17.479006  17.473052   0.076727  -0.014948   0.000010
     7  C    0.000000   2.986839   2.996517   0.048950   0.063493   0.000003
     8  C    0.000000   3.008907   3.001253  -0.018076   0.080267   0.000000
     9  C    0.000000   2.983297   2.979604  -0.042345   0.053744   0.000012
    10  C    0.000000   3.021003   3.011329  -0.014923   0.027002   0.000006
    11  C    0.000000   3.040388   2.914366   0.037907   0.001072  -0.000018
    12  C    0.000000   3.020979   3.006362  -0.029401   0.010260  -0.042897
    13  C    0.000000   3.024334   3.005014  -0.051799  -0.007733   0.000022
    14  C    0.000000   3.020953   3.006380  -0.029362   0.010249   0.042925
    15  H    0.000000   0.463637   0.461595   0.022321  -0.172082  -0.000024
    16  H    0.000000   0.460403   0.461023   0.116499   0.130302   0.000033
    17  H    0.000000   0.463139   0.460901  -0.025302   0.175177   0.000027
    18  H    0.000000   0.467544   0.465051  -0.042547   0.100608  -0.126243
    19  H    0.000000   0.467546   0.465024  -0.042527   0.100604   0.126267
    20  H    0.000000   0.471175   0.470362  -0.010554   0.089512  -0.136381
    21  H    0.000000   0.474197   0.470791  -0.019319  -0.148558  -0.058524
    22  H    0.000000   0.471257   0.464131  -0.138967  -0.093093   0.000039
    23  H    0.000000   0.473222   0.472311  -0.059235   0.149960   0.000059
    24  H    0.000000   0.471171   0.470366  -0.010436   0.089450   0.136431
    25  H    0.000000   0.474198   0.470794  -0.019289  -0.148568   0.058479
       Tot   0.000000  63.000008  62.000008  -0.253736   0.328461  -0.000148

 Dip from Atomic Chgs             -2.729301   0.386537  -0.000165
         Total Dipole             -2.983037   0.714998  -0.000313

 Hirshfeld charges, spin densities, dipoles, and CM5 charges using IRadAn=      5:
              Q-H        S-H        Dx         Dy         Dz        Q-CM5   
     1  O    0.025528   0.591503   0.002388   0.008603   0.000044  -0.022811
     2  C    0.223499   0.076790  -0.018445  -0.044774  -0.000478   0.256926
     3  C    0.003123   0.104768  -0.024026  -0.062687   0.000045   0.000526
     4  C   -0.007649   0.003101  -0.010197  -0.066434   0.000009  -0.057611
     5  C    0.024905   0.006869   0.048223  -0.002966   0.000004   0.003674
     6  Br   0.047942   0.005954   0.076727  -0.014948   0.000010   0.062978
     7  C    0.016644  -0.009678   0.048950   0.063493   0.000003  -0.037216
     8  C   -0.010160   0.007654  -0.018076   0.080267   0.000000  -0.063339
     9  C    0.037099   0.003692  -0.042345   0.053744   0.000012   0.026384
    10  C   -0.032332   0.009674  -0.014923   0.027002   0.000006  -0.129755
    11  C    0.045247   0.126022   0.037907   0.001072  -0.000018   0.027932
    12  C   -0.027341   0.014617  -0.029401   0.010260  -0.042897  -0.130779
    13  C   -0.029348   0.019321  -0.051799  -0.007733   0.000022  -0.136744
    14  C   -0.027333   0.014572  -0.029362   0.010249   0.042925  -0.130771
    15  H    0.074768   0.002042   0.022321  -0.172082  -0.000024   0.133690
    16  H    0.078574  -0.000619   0.116499   0.130302   0.000033   0.135819
    17  H    0.075961   0.002238  -0.025302   0.175177   0.000027   0.132460
    18  H    0.067405   0.002493  -0.042547   0.100608  -0.126243   0.123957
    19  H    0.067430   0.002522  -0.042527   0.100604   0.126267   0.123984
    20  H    0.058463   0.000813  -0.010554   0.089512  -0.136381   0.112950
    21  H    0.055012   0.003406  -0.019319  -0.148558  -0.058524   0.113480
    22  H    0.064612   0.007127  -0.138967  -0.093093   0.000039   0.118222
    23  H    0.054467   0.000912  -0.059235   0.149960   0.000059   0.109597
    24  H    0.058463   0.000805  -0.010436   0.089450   0.136431   0.112951
    25  H    0.055007   0.003404  -0.019289  -0.148568   0.058479   0.113480
       Tot   0.999983   1.000000  -0.253736   0.328461  -0.000148   0.999983
 Hirshfeld charges and spin densities with hydrogens summed into heavy atoms:
              Q-H        S-H       Q-CM5   
     1  O    0.025528   0.591503  -0.022811
     2  C    0.223499   0.076790   0.256926
     3  C    0.003123   0.104768   0.000526
     4  C    0.067119   0.005143   0.076079
     5  C    0.024905   0.006869   0.003674
     6  Br   0.047942   0.005954   0.062978
     7  C    0.095217  -0.010298   0.098602
     8  C    0.065800   0.009892   0.069121
     9  C    0.037099   0.003692   0.026384
    10  C    0.102502   0.014689   0.118186
    11  C    0.045247   0.126022   0.027932
    12  C    0.086133   0.018835   0.095651
    13  C    0.089731   0.027359   0.091075
    14  C    0.086137   0.018781   0.095661
 
 EQQ= 0.750979497608E-01 EQD=-0.307380185087E-01 EDD= 0.108883601049E-01
 EQQ+QD+DD= 0.552482913571E-01
 
                          Isotropic Fermi Contact Couplings
        Atom                 a.u.       MegaHertz       Gauss      10(-4) cm-1
     1  O(17)              0.06156     -37.31919     -13.31642     -12.44834
     2  C(13)             -0.06362     -71.52289     -25.52114     -23.85747
     3  C(13)              0.05166      58.07580      20.72289      19.37200
     4  C(13)             -0.00384      -4.32110      -1.54188      -1.44136
     5  C(13)              0.00589       6.62274       2.36316       2.20911
     6  Br(79)            -0.00380      -4.26594      -1.52219      -1.42297
     7  C(13)             -0.00104      -1.17029      -0.41759      -0.39037
     8  C(13)              0.00318       3.57498       1.27564       1.19248
     9  C(13)             -0.00576      -6.47124      -2.30910      -2.15857
    10  C(13)             -0.00492      -5.53307      -1.97434      -1.84563
    11  C(13)              0.00227       2.55284       0.91092       0.85154
    12  C(13)             -0.00530      -5.95783      -2.12590      -1.98732
    13  C(13)              0.01110      12.47924       4.45290       4.16263
    14  C(13)             -0.00530      -5.95424      -2.12462      -1.98612
    15  H(1)               0.00062       2.77633       0.99066       0.92608
    16  H(1)               0.00019       0.83769       0.29891       0.27942
    17  H(1)               0.00115       5.13068       1.83075       1.71141
    18  H(1)               0.00130       5.81192       2.07384       1.93865
    19  H(1)               0.00132       5.91401       2.11027       1.97270
    20  H(1)               0.00017       0.74969       0.26751       0.25007
    21  H(1)               0.00081       3.63968       1.29873       1.21407
    22  H(1)               0.00444      19.86734       7.08916       6.62703
    23  H(1)               0.00001       0.02973       0.01061       0.00992
    24  H(1)               0.00016       0.73417       0.26197       0.24489
    25  H(1)               0.00081       3.63041       1.29542       1.21098
 --------------------------------------------------------
       Center         ----  Spin Dipole Couplings  ----
                      3XX-RR        3YY-RR        3ZZ-RR
 --------------------------------------------------------
     1   Atom        2.606318     -1.397839     -1.208479
     2   Atom        0.116638      0.015616     -0.132255
     3   Atom        0.063521      0.040137     -0.103658
     4   Atom        0.031290     -0.004133     -0.027157
     5   Atom        0.002841     -0.002281     -0.000560
     6   Atom        0.061338     -0.034361     -0.026977
     7   Atom        0.010412      0.009342     -0.019754
     8   Atom       -0.004359      0.002503      0.001856
     9   Atom        0.000418      0.036727     -0.037145
    10   Atom       -0.009764      0.023771     -0.014007
    11   Atom        0.101136      0.048940     -0.150076
    12   Atom        0.028660     -0.015097     -0.013563
    13   Atom        0.037891     -0.018936     -0.018954
    14   Atom        0.028583     -0.015062     -0.013521
    15   Atom        0.010847     -0.003953     -0.006895
    16   Atom        0.000590      0.000435     -0.001025
    17   Atom       -0.001123      0.002773     -0.001650
    18   Atom       -0.003280      0.004370     -0.001090
    19   Atom       -0.003280      0.004363     -0.001083
    20   Atom       -0.000624     -0.002129      0.002753
    21   Atom        0.003981     -0.002946     -0.001035
    22   Atom        0.003661      0.000465     -0.004126
    23   Atom        0.002081      0.001986     -0.004067
    24   Atom       -0.000627     -0.002129      0.002756
    25   Atom        0.003980     -0.002954     -0.001026
 --------------------------------------------------------
                        XY            XZ            YZ
 --------------------------------------------------------
     1   Atom       -0.435659      0.001556     -0.000018
     2   Atom       -0.037932     -0.000025     -0.000066
     3   Atom        0.173761     -0.000302     -0.000266
     4   Atom        0.000359      0.000030      0.000009
     5   Atom        0.009819      0.000049      0.000045
     6   Atom        0.048246      0.000544      0.000127
     7   Atom        0.002215      0.000018     -0.000004
     8   Atom        0.007990     -0.000000      0.000001
     9   Atom       -0.010591     -0.000061      0.000143
    10   Atom        0.005410      0.000017      0.000042
    11   Atom       -0.220901     -0.000074      0.000054
    12   Atom       -0.007395      0.008478     -0.001950
    13   Atom       -0.009927     -0.000035      0.000004
    14   Atom       -0.007367     -0.008449      0.001952
    15   Atom       -0.000479     -0.000002     -0.000001
    16   Atom        0.000138      0.000001      0.000001
    17   Atom        0.000871      0.000000      0.000000
    18   Atom       -0.000165      0.000716     -0.002884
    19   Atom       -0.000169     -0.000720      0.002885
    20   Atom       -0.001671      0.002696     -0.003738
    21   Atom       -0.002155      0.008642      0.000093
    22   Atom        0.001658     -0.000003      0.000000
    23   Atom       -0.002993     -0.000004      0.000003
    24   Atom       -0.001672     -0.002698      0.003732
    25   Atom       -0.002162     -0.008647     -0.000087
 --------------------------------------------------------


 ---------------------------------------------------------------------------------
              Anisotropic Spin Dipole Couplings in Principal Axis System
 ---------------------------------------------------------------------------------

       Atom             a.u.   MegaHertz   Gauss  10(-4) cm-1        Axes

              Baa    -1.4447   104.537    37.301    34.870  0.1069  0.9943 -0.0006
     1 O(17)  Bbb    -1.2085    87.445    31.202    29.168 -0.0003  0.0007  1.0000
              Bcc     2.6532  -191.982   -68.504   -64.038  0.9943 -0.1069  0.0004
 
              Baa    -0.1323   -17.747    -6.333    -5.920  0.0002  0.0005  1.0000
     2 C(13)  Bbb     0.0030     0.397     0.142     0.132  0.3165  0.9486 -0.0005
              Bcc     0.1293    17.350     6.191     5.787  0.9486 -0.3165 -0.0000
 
              Baa    -0.1223   -16.415    -5.857    -5.475 -0.6830  0.7305 -0.0006
     3 C(13)  Bbb    -0.1037   -13.910    -4.963    -4.640  0.0005  0.0013  1.0000
              Bcc     0.2260    30.325    10.821    10.115  0.7305  0.6830 -0.0012
 
              Baa    -0.0272    -3.644    -1.300    -1.216 -0.0005 -0.0004  1.0000
     4 C(13)  Bbb    -0.0041    -0.555    -0.198    -0.185 -0.0101  0.9999  0.0004
              Bcc     0.0313     4.199     1.498     1.401  0.9999  0.0101  0.0005
 
              Baa    -0.0099    -1.324    -0.472    -0.442 -0.6114  0.7913 -0.0006
     5 C(13)  Bbb    -0.0006    -0.075    -0.027    -0.025 -0.0052 -0.0032  1.0000
              Bcc     0.0104     1.399     0.499     0.467  0.7913  0.6114  0.0060
 
              Baa    -0.0545    -7.305    -2.607    -2.437 -0.3846  0.9231  0.0033
     6 Br(79) Bbb    -0.0270    -3.619    -1.291    -1.207 -0.0034 -0.0050  1.0000
              Bcc     0.0814    10.924     3.898     3.644  0.9231  0.3846  0.0051
 
              Baa    -0.0198    -2.651    -0.946    -0.884 -0.0006  0.0002  1.0000
     7 C(13)  Bbb     0.0076     1.020     0.364     0.340 -0.6186  0.7857 -0.0005
              Bcc     0.0122     1.631     0.582     0.544  0.7857  0.6186  0.0004
 
              Baa    -0.0096    -1.291    -0.461    -0.431  0.8350 -0.5502  0.0001
     8 C(13)  Bbb     0.0019     0.249     0.089     0.083 -0.0001 -0.0001  1.0000
              Bcc     0.0078     1.042     0.372     0.348  0.5502  0.8350  0.0001
 
              Baa    -0.0371    -4.985    -1.779    -1.663  0.0011 -0.0018  1.0000
     9 C(13)  Bbb    -0.0024    -0.328    -0.117    -0.109  0.9653  0.2610 -0.0006
              Bcc     0.0396     5.313     1.896     1.772 -0.2610  0.9653  0.0020
 
              Baa    -0.0140    -1.880    -0.671    -0.627 -0.0032 -0.0007  1.0000
    10 C(13)  Bbb    -0.0106    -1.424    -0.508    -0.475  0.9878 -0.1554  0.0031
              Bcc     0.0246     3.304     1.179     1.102  0.1554  0.9878  0.0012
 
              Baa    -0.1501   -20.139    -7.186    -6.718  0.0024  0.0024  1.0000
    11 C(13)  Bbb    -0.1474   -19.780    -7.058    -6.598  0.6643  0.7474 -0.0033
              Bcc     0.2975    39.918    14.244    13.315  0.7474 -0.6643 -0.0002
 
              Baa    -0.0165    -2.219    -0.792    -0.740  0.0805  0.9232  0.3759
    12 C(13)  Bbb    -0.0150    -2.014    -0.719    -0.672 -0.2352 -0.3489  0.9072
              Bcc     0.0315     4.233     1.511     1.412  0.9686 -0.1615  0.1890
 
              Baa    -0.0206    -2.767    -0.987    -0.923  0.1673  0.9859  0.0013
    13 C(13)  Bbb    -0.0190    -2.543    -0.908    -0.848  0.0004 -0.0014  1.0000
              Bcc     0.0396     5.311     1.895     1.771  0.9859 -0.1673 -0.0006
 
              Baa    -0.0165    -2.214    -0.790    -0.739  0.0800  0.9225 -0.3777
    14 C(13)  Bbb    -0.0150    -2.007    -0.716    -0.670  0.2352  0.3507  0.9065
              Bcc     0.0315     4.221     1.506     1.408  0.9686 -0.1613 -0.1889
 
              Baa    -0.0069    -3.679    -1.313    -1.227  0.0001  0.0003  1.0000
    15 H(1)   Bbb    -0.0040    -2.117    -0.755    -0.706  0.0323  0.9995 -0.0003
              Bcc     0.0109     5.796     2.068     1.933  0.9995 -0.0323 -0.0001
 
              Baa    -0.0010    -0.547    -0.195    -0.182 -0.0008 -0.0006  1.0000
    16 H(1)   Bbb     0.0004     0.189     0.068     0.063 -0.5049  0.8632  0.0001
              Bcc     0.0007     0.358     0.128     0.119  0.8632  0.5049  0.0010
 
              Baa    -0.0017    -0.880    -0.314    -0.294 -0.0005  0.0001  1.0000
    17 H(1)   Bbb    -0.0013    -0.698    -0.249    -0.233  0.9780 -0.2086  0.0005
              Bcc     0.0030     1.579     0.563     0.527  0.2086  0.9780  0.0000
 
              Baa    -0.0036    -1.911    -0.682    -0.637  0.9029 -0.1299 -0.4097
    18 H(1)   Bbb    -0.0021    -1.094    -0.391    -0.365  0.4270  0.3796  0.8207
              Bcc     0.0056     3.005     1.072     1.002 -0.0489  0.9160 -0.3982
 
              Baa    -0.0036    -1.911    -0.682    -0.638  0.9029 -0.1296  0.4099
    19 H(1)   Bbb    -0.0020    -1.092    -0.390    -0.364 -0.4270 -0.3805  0.8203
              Bcc     0.0056     3.003     1.072     1.002 -0.0496  0.9157  0.3989
 
              Baa    -0.0042    -2.223    -0.793    -0.742  0.0767  0.8894  0.4506
    20 H(1)   Bbb    -0.0021    -1.105    -0.394    -0.369  0.9047  0.1279 -0.4064
              Bcc     0.0062     3.328     1.188     1.110  0.4192 -0.4388  0.7948
 
              Baa    -0.0079    -4.223    -1.507    -1.408 -0.5973 -0.2731  0.7541
    21 H(1)   Bbb    -0.0028    -1.474    -0.526    -0.492 -0.0685  0.9542  0.2914
              Bcc     0.0107     5.697     2.033     1.900  0.7991 -0.1224  0.5886
 
              Baa    -0.0041    -2.202    -0.786    -0.734  0.0004 -0.0002  1.0000
    22 H(1)   Bbb    -0.0002    -0.128    -0.046    -0.043 -0.3911  0.9203  0.0004
              Bcc     0.0044     2.329     0.831     0.777  0.9203  0.3911 -0.0003
 
              Baa    -0.0041    -2.170    -0.774    -0.724  0.0005 -0.0002  1.0000
    23 H(1)   Bbb    -0.0010    -0.512    -0.183    -0.171  0.7015  0.7127 -0.0002
              Bcc     0.0050     2.682     0.957     0.895  0.7127 -0.7015 -0.0005
 
              Baa    -0.0042    -2.221    -0.792    -0.741  0.0777  0.8898 -0.4497
    24 H(1)   Bbb    -0.0021    -1.107    -0.395    -0.369  0.9045  0.1268  0.4071
              Bcc     0.0062     3.328     1.187     1.110 -0.4193  0.4384  0.7950
 
              Baa    -0.0079    -4.223    -1.507    -1.409  0.5976  0.2736  0.7537
    25 H(1)   Bbb    -0.0028    -1.479    -0.528    -0.493 -0.0685  0.9540 -0.2920
              Bcc     0.0107     5.702     2.035     1.902  0.7988 -0.1229 -0.5889
 

 ---------------------------------------------------------------------------------

 Running external command "gaunbo6 R"
         input file       "/home/rpaton/opt/tzvp/fukui/Gau-3362102.EIn"
         output file      "/home/rpaton/opt/tzvp/fukui/Gau-3362102.EOu"
         message file     "/home/rpaton/opt/tzvp/fukui/Gau-3362102.EMs"
         fchk file        "/home/rpaton/opt/tzvp/fukui/Gau-3362102.EFC"
         mat. el file     "/home/rpaton/opt/tzvp/fukui/Gau-3362102.EUF"

 Writing WrtUnf unformatted file "/home/rpaton/opt/tzvp/fukui/Gau-3362102.EUF"
 Gaussian matrix elements                                         Version   2 NLab=11 Len12L=8 Len4L=8
 Write SHELL TO ATOM MAP                   from file      0 offset           0 length                 203 to matrix element file.
 Write SHELL TYPES                         from file      0 offset           0 length                 203 to matrix element file.
 Write NUMBER OF PRIMITIVES PER SHELL      from file      0 offset           0 length                 203 to matrix element file.
 Write PRIMITIVE EXPONENTS                 from file      0 offset           0 length                 365 to matrix element file.
 Write CONTRACTION COEFFICIENTS            from file      0 offset           0 length                 365 to matrix element file.
 Write P(S=P) CONTRACTION COEFFICIENTS     from file      0 offset           0 length                 365 to matrix element file.
 Write COORDINATES OF EACH SHELL           from file      0 offset           0 length                 609 to matrix element file.
 Write BONDS PER ATOM                      from file      0 offset           0 length                  25 to matrix element file.
 Write BONDED ATOMS                        from file      0 offset           0 length                  54 to matrix element file.
 Write BOND TYPES                          from file      0 offset           0 length                  54 to matrix element file.
 Write ONIOM CHARGE/MULT                   from file      0 offset           0 length                  32 to matrix element file.
 Write ONIOM ATOM LAYERS                   from file      0 offset           0 length                  25 to matrix element file.
 Write ONIOM ATOM MODIFIERS                from file      0 offset           0 length                  25 to matrix element file.
[...]
  205. RY ( 7) C  5             0.00014     3.51097
  206. RY ( 8) C  5             0.00012     3.00308
  207. RY ( 9) C  5             0.00010     0.90428
  208. RY (10) C  5             0.00003     2.01223
  209. RY (11) C  5             0.00001     2.52197
  210. RY (12) C  5             0.00001     2.73572
  211. RY (13) C  5             0.00000     2.71524
  212. RY (14) C  5             0.00000     2.63426
  213. RY (15) C  5             0.00000     3.12491
  214. RY (16) C  5             0.00000     2.08316
  215. RY (17) C  5             0.00000     3.09614
  216. RY (18) C  5             0.00000     3.14106
  217. RY (19) C  5             0.00000     5.49125
  218. RY (20) C  5             0.00000     2.66371
  219. RY (21) C  5             0.00000     3.44373
  220. RY (22) C  5             0.00000     3.58515
  221. RY (23) C  5             0.00000     1.88802
  222. RY (24) C  5             0.00000     2.95523
  223. RY (25) C  5             0.00000    15.14476
  224. RY (26) C  5             0.00000     3.33246
  225. RY ( 1)Br  6             0.00124     0.65831
  226. RY ( 2)Br  6             0.00045     0.99708
  227. RY ( 3)Br  6             0.00010     0.81197
  228. RY ( 4)Br  6             0.00004     0.86884
  229. RY ( 5)Br  6             0.00003     0.41704
  230. RY ( 6)Br  6             0.00002     1.15321
  231. RY ( 7)Br  6             0.00001     1.02726
  232. RY ( 8)Br  6             0.00000     1.33793
  233. RY ( 9)Br  6             0.00000     1.33710
  234. RY (10)Br  6             0.00000     0.85048
  235. RY (11)Br  6             0.00000     3.56811
  236. RY (12)Br  6             0.00000     1.67888
  237. RY (13)Br  6             0.00000     2.76707
  238. RY (14)Br  6             0.00000     2.03306
  239. RY (15)Br  6             0.00000     2.67141
  240. RY (16)Br  6             0.00000     1.76694
  241. RY (17)Br  6             0.00000     2.28630
  242. RY (18)Br  6             0.00000     4.47440
  243. RY (19)Br  6             0.00000     1.61877
  244. RY (20)Br  6             0.00000     1.94264
  245. RY (21)Br  6             0.00000     3.43640
  246. RY (22)Br  6             0.00000     2.90952
  247. RY (23)Br  6             0.00000     3.80079
  248. RY (24)Br  6             0.00000     1.78203
  249. RY (25)Br  6             0.00000     2.31461
  250. RY (26)Br  6             0.00000     2.37408
  251. RY (27)Br  6             0.00000     2.18953
  252. RY (28)Br  6             0.00000     1.64309
  253. RY (29)Br  6             0.00000     2.53391
  254. RY (30)Br  6             0.00000     2.14326
  255. RY ( 1) C  7             0.00230     1.29360
  256. RY ( 2) C  7             0.00092     1.08099
  257. RY ( 3) C  7             0.00045     0.78377
  258. RY ( 4) C  7             0.00036     1.72978
  259. RY ( 5) C  7             0.00015     1.82440
  260. RY ( 6) C  7             0.00014     2.01881
  261. RY ( 7) C  7             0.00009     1.70136
  262. RY ( 8) C  7             0.00009     2.32684
  263. RY ( 9) C  7             0.00003     2.70645
  264. RY (10) C  7             0.00002     2.71504
  265. RY (11) C  7             0.00001     2.99296
  266. RY (12) C  7             0.00000     2.77682
  267. RY (13) C  7             0.00000     1.63106
  268. RY (14) C  7             0.00000     2.85653
  269. RY (15) C  7             0.00000     3.97971
  270. RY (16) C  7             0.00000    12.28658
  271. RY (17) C  7             0.00000     3.02868
  272. RY (18) C  7             0.00000     1.45363
  273. RY (19) C  7             0.00000     5.77227
  274. RY (20) C  7             0.00000     3.10109
  275. RY (21) C  7             0.00000     3.45531
  276. RY (22) C  7             0.00000     2.38185
  277. RY (23) C  7             0.00000     3.45841
  278. RY (24) C  7             0.00000     3.08509
  279. RY (25) C  7             0.00000     2.96135
  280. RY (26) C  7             0.00000     7.73970
  281. RY ( 1) C  8             0.00193     1.61340
  282. RY ( 2) C  8             0.00078     1.28882
  283. RY ( 3) C  8             0.00045     0.52544
  284. RY ( 4) C  8             0.00029     1.61376
  285. RY ( 5) C  8             0.00014     2.54171
  286. RY ( 6) C  8             0.00014     3.11694
  287. RY ( 7) C  8             0.00005     2.34788
  288. RY ( 8) C  8             0.00002     1.94705
  289. RY ( 9) C  8             0.00002     2.04442
  290. RY (10) C  8             0.00002     3.04782
  291. RY (11) C  8             0.00001     1.93845
  292. RY (12) C  8             0.00001     1.10178
  293. RY (13) C  8             0.00001     2.84186
  294. RY (14) C  8             0.00000     3.40626
  295. RY (15) C  8             0.00000     2.57876
  296. RY (16) C  8             0.00000     3.09835
  297. RY (17) C  8             0.00000     2.92914
  298. RY (18) C  8             0.00000    16.68152
  299. RY (19) C  8             0.00000     5.24166
  300. RY (20) C  8             0.00000     3.05417
  301. RY (21) C  8             0.00000     3.19264
  302. RY (22) C  8             0.00000     4.22417
  303. RY (23) C  8             0.00000     1.83808
  304. RY (24) C  8             0.00000     3.04131
  305. RY (25) C  8             0.00000     3.27675
  306. RY (26) C  8             0.00000     3.35896
  307. RY ( 1) C  9             0.00193     1.62006
  308. RY ( 2) C  9             0.00092     1.45249
  309. RY ( 3) C  9             0.00074     0.82964
  310. RY ( 4) C  9             0.00034     2.31323
  311. RY ( 5) C  9             0.00026     1.85921
  312. RY ( 6) C  9             0.00016     3.45090
  313. RY ( 7) C  9             0.00014     2.46038
  314. RY ( 8) C  9             0.00010     2.77497
  315. RY ( 9) C  9             0.00007     2.80417
  316. RY (10) C  9             0.00005     2.55588
  317. RY (11) C  9             0.00004     3.17848
  318. RY (12) C  9             0.00003     3.17164
  319. RY (13) C  9             0.00002     2.70156
  320. RY (14) C  9             0.00001     2.60253
  321. RY (15) C  9             0.00001     3.61317
  322. RY (16) C  9             0.00001     1.68173
  323. RY (17) C  9             0.00000     2.59205
  324. RY (18) C  9             0.00000     1.90746
  325. RY (19) C  9             0.00000     3.28701
  326. RY (20) C  9             0.00000     2.74654
  327. RY (21) C  9             0.00000    17.78126
  328. RY (22) C  9             0.00000     5.07082
  329. RY (23) C  9             0.00000     3.16765
  330. RY (24) C  9             0.00000     4.00713
  331. RY (25) C  9             0.00000     3.09918
  332. RY (26) C  9             0.00000     3.20300
  333. RY ( 1) C 10             0.00080     1.21104
  334. RY ( 2) C 10             0.00071     1.09389
  335. RY ( 3) C 10             0.00059     1.06172
  336. RY ( 4) C 10             0.00020     2.04475
  337. RY ( 5) C 10             0.00019     1.87403
  338. RY ( 6) C 10             0.00016     1.95974
  339. RY ( 7) C 10             0.00008     1.46878
  340. RY ( 8) C 10             0.00006     2.12790
  341. RY ( 9) C 10             0.00004     3.01416
  342. RY (10) C 10             0.00003     2.46772
  343. RY (11) C 10             0.00003     1.99605
  344. RY (12) C 10             0.00002     1.88429
  345. RY (13) C 10             0.00001     3.23302
  346. RY (14) C 10             0.00001     3.52828
  347. RY (15) C 10             0.00001     2.28826
  348. RY (16) C 10             0.00000     2.57871
  349. RY (17) C 10             0.00000     3.87098
  350. RY (18) C 10             0.00000     3.25109
  351. RY (19) C 10             0.00000     3.08420
  352. RY (20) C 10             0.00000    13.78627
  353. RY (21) C 10             0.00000     8.66208
  354. RY (22) C 10             0.00000     3.82945
  355. RY (23) C 10             0.00000     3.28836
  356. RY (24) C 10             0.00000     2.72192
  357. RY (25) C 10             0.00000     2.38286
  358. RY (26) C 10             0.00000     3.97021
  359. RY ( 1) C 11             0.00189     1.23270
  360. RY ( 2) C 11             0.00123     1.38141
  361. RY ( 3) C 11             0.00076     1.28688
  362. RY ( 4) C 11             0.00064     1.63395
  363. RY ( 5) C 11             0.00022     3.18709
  364. RY ( 6) C 11             0.00020     3.09880
  365. RY ( 7) C 11             0.00013     1.62309
  366. RY ( 8) C 11             0.00013     3.28602
  367. RY ( 9) C 11             0.00007     2.51175
  368. RY (10) C 11             0.00006     3.22990
  369. RY (11) C 11             0.00004     2.40294
  370. RY (12) C 11             0.00004     3.24174
  371. RY (13) C 11             0.00002     3.14616
  372. RY (14) C 11             0.00002     3.52046
  373. RY (15) C 11             0.00002     3.56420
  374. RY (16) C 11             0.00001     3.33968
  375. RY (17) C 11             0.00001     2.79360
  376. RY (18) C 11             0.00000     3.29659
  377. RY (19) C 11             0.00000     4.29308
  378. RY (20) C 11             0.00000     3.25578
  379. RY (21) C 11             0.00000     2.05362
  380. RY (22) C 11             0.00000     3.51298
  381. RY (23) C 11             0.00000     2.51620
  382. RY (24) C 11             0.00000     3.41755
  383. RY (25) C 11             0.00000     3.62501
  384. RY (26) C 11             0.00000    16.20164
  385. RY ( 1) C 12             0.00086     1.33623
  386. RY ( 2) C 12             0.00050     1.35320
  387. RY ( 3) C 12             0.00022     1.32879
  388. RY ( 4) C 12             0.00014     2.58446
  389. RY ( 5) C 12             0.00010     2.26644
  390. RY ( 6) C 12             0.00006     1.71739
  391. RY ( 7) C 12             0.00005     2.32270
  392. RY ( 8) C 12             0.00003     1.73708
  393. RY ( 9) C 12             0.00002     1.77555
  394. RY (10) C 12             0.00002     2.43513
  395. RY (11) C 12             0.00001     2.77013
  396. RY (12) C 12             0.00001     2.32201
  397. RY (13) C 12             0.00000     2.41118
  398. RY (14) C 12             0.00000     2.98327
  399. RY (15) C 12             0.00000     2.43156
  400. RY (16) C 12             0.00000    11.22320
  401. RY (17) C 12             0.00000     2.61526
  402. RY (18) C 12             0.00000     4.04343
  403. RY (19) C 12             0.00000     2.48251
  404. RY (20) C 12             0.00000     4.25836
  405. RY (21) C 12             0.00000     2.93050
  406. RY (22) C 12             0.00000     3.94567
  407. RY (23) C 12             0.00000     5.12939
  408. RY (24) C 12             0.00000     3.51212
  409. RY (25) C 12             0.00000     6.42231
  410. RY (26) C 12             0.00000     2.80573
  411. RY ( 1) C 13             0.00077     1.51857
  412. RY ( 2) C 13             0.00048     1.48736
  413. RY ( 3) C 13             0.00011     3.10079
  414. RY ( 4) C 13             0.00010     1.79378
  415. RY ( 5) C 13             0.00006     2.36905
  416. RY ( 6) C 13             0.00003     2.01261
  417. RY ( 7) C 13             0.00003     2.67572
  418. RY ( 8) C 13             0.00002     2.44621
  419. RY ( 9) C 13             0.00001     1.39836
  420. RY (10) C 13             0.00001     1.30523
  421. RY (11) C 13             0.00000     1.15739
  422. RY (12) C 13             0.00000     3.99116
  423. RY (13) C 13             0.00000     6.62497
  424. RY (14) C 13             0.00000     3.47517
  425. RY (15) C 13             0.00000     3.26387
  426. RY (16) C 13             0.00000     3.09450
  427. RY (17) C 13             0.00000     2.32276
  428. RY (18) C 13             0.00000     2.40147
  429. RY (19) C 13             0.00000     6.27041
  430. RY (20) C 13             0.00000     3.40634
  431. RY (21) C 13             0.00000     3.11975
  432. RY (22) C 13             0.00000     4.23810
  433. RY (23) C 13             0.00000     3.38242
  434. RY (24) C 13             0.00000     2.73232
  435. RY (25) C 13             0.00000     5.86987
  436. RY (26) C 13             0.00000     5.20425
  437. RY ( 1) C 14             0.00086     1.33619
  438. RY ( 2) C 14             0.00050     1.35293
  439. RY ( 3) C 14             0.00022     1.32881
  440. RY ( 4) C 14             0.00014     2.58437
  441. RY ( 5) C 14             0.00010     2.26681
  442. RY ( 6) C 14             0.00006     1.71517
  443. RY ( 7) C 14             0.00005     2.32531
  444. RY ( 8) C 14             0.00003     1.73566
  445. RY ( 9) C 14             0.00002     1.77574
  446. RY (10) C 14             0.00002     2.43401
  447. RY (11) C 14             0.00001     2.76902
  448. RY (12) C 14             0.00001     2.32154
  449. RY (13) C 14             0.00000     2.41058
  450. RY (14) C 14             0.00000     2.98291
  451. RY (15) C 14             0.00000     2.43293
  452. RY (16) C 14             0.00000    11.20370
  453. RY (17) C 14             0.00000     2.61725
  454. RY (18) C 14             0.00000     5.14773
  455. RY (19) C 14             0.00000     2.48033
  456. RY (20) C 14             0.00000     4.24537
  457. RY (21) C 14             0.00000     2.93006
  458. RY (22) C 14             0.00000     3.95831
  459. RY (23) C 14             0.00000     3.99145
  460. RY (24) C 14             0.00000     3.52690
  461. RY (25) C 14             0.00000     6.46500
  462. RY (26) C 14             0.00000     2.80513
  463. RY ( 1) H 15             0.00031     0.55454
  464. RY ( 2) H 15             0.00005     2.07268
  465. RY ( 3) H 15             0.00005     1.97428
  466. RY ( 4) H 15             0.00003     2.37898
  467. RY ( 5) H 15             0.00000     2.92066
  468. RY ( 1) H 16             0.00017     0.67016
  469. RY ( 2) H 16             0.00005     1.87197
  470. RY ( 3) H 16             0.00004     2.05758
  471. RY ( 4) H 16             0.00003     2.36618
  472. RY ( 5) H 16             0.00000     2.87074
  473. RY ( 1) H 17             0.00014     0.68114
  474. RY ( 2) H 17             0.00005     1.85305
  475. RY ( 3) H 17             0.00005     2.07170
  476. RY ( 4) H 17             0.00002     2.43763
  477. RY ( 5) H 17             0.00000     2.90267
  478. RY ( 1) H 18             0.00027     0.96469
  479. RY ( 2) H 18             0.00006     2.30209
  480. RY ( 3) H 18             0.00003     2.24871
  481. RY ( 4) H 18             0.00001     2.56042
  482. RY ( 5) H 18             0.00000     1.83270
  483. RY ( 1) H 19             0.00027     0.96472
  484. RY ( 2) H 19             0.00006     2.30206
  485. RY ( 3) H 19             0.00003     2.24871
  486. RY ( 4) H 19             0.00001     2.56056
  487. RY ( 5) H 19             0.00000     1.83261
  488. RY ( 1) H 20             0.00017     0.91766
  489. RY ( 2) H 20             0.00005     2.20557
  490. RY ( 3) H 20             0.00002     2.21132
  491. RY ( 4) H 20             0.00002     2.28170
  492. RY ( 5) H 20             0.00000     2.08898
  493. RY ( 1) H 21             0.00020     0.91689
  494. RY ( 2) H 21             0.00006     2.21078
  495. RY ( 3) H 21             0.00002     2.07535
  496. RY ( 4) H 21             0.00001     2.33207
  497. RY ( 5) H 21             0.00000     2.24874
  498. RY ( 1) H 22             0.00011     0.93793
  499. RY ( 2) H 22             0.00005     2.20585
  500. RY ( 3) H 22             0.00002     2.14569
  501. RY ( 4) H 22             0.00001     2.17575
  502. RY ( 5) H 22             0.00000     2.29018
  503. RY ( 1) H 23             0.00019     0.80456
  504. RY ( 2) H 23             0.00006     2.20947
  505. RY ( 3) H 23             0.00002     2.10520
  506. RY ( 4) H 23             0.00001     2.22229
  507. RY ( 5) H 23             0.00000     2.47612
  508. RY ( 1) H 24             0.00017     0.91757
  509. RY ( 2) H 24             0.00005     2.20554
  510. RY ( 3) H 24             0.00002     2.21136
  511. RY ( 4) H 24             0.00002     2.28168
  512. RY ( 5) H 24             0.00000     2.08907
  513. RY ( 1) H 25             0.00020     0.91680
  514. RY ( 2) H 25             0.00006     2.21076
  515. RY ( 3) H 25             0.00002     2.07544
  516. RY ( 4) H 25             0.00001     2.33160
  517. RY ( 5) H 25             0.00000     2.24925
          -------------------------------
                 Total Lewis   60.76730  ( 98.0118%)
           Valence non-Lewis    1.16735  (  1.8828%)
           Rydberg non-Lewis    0.06536  (  0.1054%)
          -------------------------------
               Total unit  1   62.00000  (100.0000%)
              Charge unit  1    1.00000

 $CHOOSE
  ALPHA
   LONE 1 2 6 3 END
   BOND D 1 2 S 2 3 S 2 11 S 3 4 D 3 9 D 4 5 S 4 15 S 5 6 S 5 7 D 7 8 S 7 16
        S 8 9 S 8 17 S 9 10 S 10 11 S 10 18 S 10 19 S 11 12 S 11 14 S 12 13
        S 12 20 S 12 21 S 13 14 S 13 22 S 13 23 S 14 24 S 14 25 END
  END
  BETA
   LONE 1 1 6 3 END
   BOND D 1 2 S 2 3 S 2 11 S 3 4 D 3 9 D 4 5 S 4 15 S 5 6 S 5 7 D 7 8 S 7 16
        S 8 9 S 8 17 S 9 10 S 10 11 S 10 18 S 10 19 S 11 12 S 11 14 S 12 13
        S 12 20 S 12 21 S 13 14 S 13 22 S 13 23 S 14 24 S 14 25 END
  END
 $END

 NBO analysis completed in 14.00 CPU seconds (14 wall seconds)
 Maximum scratch memory used by NBO was 2924329 words (22.31 MB)
 Maximum scratch memory used by G16NBO was 545907 words (4.16 MB)

 Opening RunExU unformatted file "/home/rpaton/opt/tzvp/fukui/Gau-3362102.EUF"
 Read unf file /home/rpaton/opt/tzvp/fukui/Gau-3362102.EUF:
 Label Gaussian matrix elements                                         IVers= 2 NLab= 2 Version=ES64L-G16RevC.01
 Title arbr39_wb97xd_oxdcreated by GaussianPrep                        
 NAtoms=    25 NBasis=   517 NBsUse=   517 ICharg=     1 Multip=     2 NE=   125 Len12L=8 Len4L=8 IOpCl= 1 ICGU=112
 GAUSSIAN SCALARS                    NI= 1 NR= 1 NTot=       1 LenBuf=    2 NRI=1 N=    1000
 NPA CHARGES                         NI= 0 NR= 1 NTot=      25 LenBuf= 2048 NRI=1 N=      25
 Recovered energy= -3113.01598418     dipole=     -2.983064932532      0.715028513729     -0.000313833083
 Unable to Open any file for archive entry.
 1\1\GINC-DYNAMO\SP\UwB97XD\def2TZVP\C12H11Br1O1(1+,2)\RPATON\25-Sep-20
 24\0\\# pop=(nbo6,hirshfeld) wb97xd/def2tzvp\\arbr39_wb97xd_oxdcreated
  by GaussianPrep\\1,2\O,0,1.720941,-2.192944,0.000132\C,0,1.611331,-0.
 993249,0.001006\C,0,0.351364,-0.218033,0.000468\C,0,-0.948663,-0.70404
 7,0.000275\C,0,-1.971272,0.222022,0.000026\Br,0,-3.772177,-0.366488,-0
 .000154\C,0,-1.707982,1.591534,-0.000054\C,0,-0.402866,2.053964,0.0000
 67\C,0,0.638049,1.136408,0.000292\C,0,2.122149,1.39311,0.000193\C,0,2.
 76888,-0.003648,0.00018\C,0,3.867979,-0.2447,1.070207\C,0,4.940841,0.0
 28426,-0.000781\C,0,3.867042,-0.24516,-1.070709\H,0,-1.137236,-1.76939
 4,0.000418\H,0,-2.53261,2.291633,-0.000259\H,0,-0.209725,3.119816,-0.0
 00093\H,0,2.412607,1.976191,0.877301\H,0,2.412443,1.976061,-0.877057\H
 ,0,3.840998,0.396383,1.951219\H,0,3.865614,-1.29024,1.379328\H,0,5.825
 074,-0.6067,-0.001027\H,0,5.25669,1.072396,-0.001147\H,0,3.8393,0.3955
 37,-1.951978\H,0,3.864416,-1.290836,-1.379372\\Version=ES64L-G16RevC.0
 1\State=2-A\HF=-3113.0159842\S2=0.758088\S2-1=0.\S2A=0.75005\RMSD=3.70
 1e-09\Dipole=2.9830649,0.7150286,0.0003138\Quadrupole=18.3327775,-4.27
 63728,-14.0564047,-1.1625222,0.0007456,-0.0022122\PG=C01 [X(C12H11Br1O
 1)]\\@
 The archive entry for this job was punched.


 The earth never tires,
 The earth is rude, silent, incomprehensible at first,
 Nature is rude and incomprehensible at first,
 Be not discouraged, keep on,
 There are divine things well envelop'd,
 I swear to you there are divine things more beautiful than words can tell.
                                 -- Walt Whitman
 Job cpu time:       0 days  2 hours 17 minutes  3.8 seconds.
 Elapsed time:       0 days  0 hours  5 minutes 45.0 seconds.
 File lengths (MBytes):  RWF=    258 Int=      0 D2E=      0 Chk=     20 Scr=      1
 Normal termination of Gaussian 16 at Wed Sep 25 00:36:57 2024.
