 Entering Gaussian System, Link 0=/usr/local/Gaussian/G16C/g16/g16
 Input=arbr47_wb97xd_red.com
 Output=arbr47_wb97xd_red.log
 Initial command:
 /usr/local/Gaussian/G16C/g16/l1.exe "/home/rpaton/arbr500/tzvp/fukui/Gau-2306699.inp" -scrdir="/home/rpaton/arbr500/tzvp/fukui/"
 Entering Link 1 = /usr/local/Gaussian/G16C/g16/l1.exe PID=   2306700.
  
 Copyright (c) 1988-2019, Gaussian, Inc.  All Rights Reserved.
  
 This is part of the Gaussian(R) 16 program.  It is based on
 the Gaussian(R) 09 system (copyright 2009, Gaussian, Inc.),
 the Gaussian(R) 03 system (copyright 2003, Gaussian, Inc.),
 the Gaussian(R) 98 system (copyright 1998, Gaussian, Inc.),
 the Gaussian(R) 94 system (copyright 1995, Gaussian, Inc.),
 the Gaussian 92(TM) system (copyright 1992, Gaussian, Inc.),
 the Gaussian 90(TM) system (copyright 1990, Gaussian, Inc.),
 the Gaussian 88(TM) system (copyright 1988, Gaussian, Inc.),
 the Gaussian 86(TM) system (copyright 1986, Carnegie Mellon
 University), and the Gaussian 82(TM) system (copyright 1983,
 Carnegie Mellon University). Gaussian is a federally registered
 trademark of Gaussian, Inc.
  
 This software contains proprietary and confidential information,
 including trade secrets, belonging to Gaussian, Inc.
  
 This software is provided under written license and may be
 used, copied, transmitted, or stored only in accord with that
 written license.
  
 The following legend is applicable only to US Government
 contracts under FAR:
  
                    RESTRICTED RIGHTS LEGEND
  
 Use, reproduction and disclosure by the US Government is
 subject to restrictions as set forth in subparagraphs (a)
 and (c) of the Commercial Computer Software - Restricted
 Rights clause in FAR 52.227-19.
  
 Gaussian, Inc.
 340 Quinnipiac St., Bldg. 40, Wallingford CT 06492
  
  
 ---------------------------------------------------------------
 Warning -- This program may not be used in any manner that
 competes with the business of Gaussian, Inc. or will provide
 assistance to any competitor of Gaussian, Inc.  The licensee
 of this program is prohibited from giving any competitor of
 Gaussian, Inc. access to this program.  By using this program,
 the user acknowledges that Gaussian, Inc. is engaged in the
 business of creating and licensing software in the field of
 computational chemistry and represents and warrants to the
 licensee that it is not a competitor of Gaussian, Inc. and that
 it will not use this program in any manner prohibited above.
 ---------------------------------------------------------------
  

 Cite this work as:
 Gaussian 16, Revision C.01,
 M. J. Frisch, G. W. Trucks, H. B. Schlegel, G. E. Scuseria, 
 M. A. Robb, J. R. Cheeseman, G. Scalmani, V. Barone, 
 G. A. Petersson, H. Nakatsuji, X. Li, M. Caricato, A. V. Marenich, 
 J. Bloino, B. G. Janesko, R. Gomperts, B. Mennucci, H. P. Hratchian, 
 J. V. Ortiz, A. F. Izmaylov, J. L. Sonnenberg, D. Williams-Young, 
 F. Ding, F. Lipparini, F. Egidi, J. Goings, B. Peng, A. Petrone, 
 T. Henderson, D. Ranasinghe, V. G. Zakrzewski, J. Gao, N. Rega, 
 G. Zheng, W. Liang, M. Hada, M. Ehara, K. Toyota, R. Fukuda, 
 J. Hasegawa, M. Ishida, T. Nakajima, Y. Honda, O. Kitao, H. Nakai, 
 T. Vreven, K. Throssell, J. A. Montgomery, Jr., J. E. Peralta, 
 F. Ogliaro, M. J. Bearpark, J. J. Heyd, E. N. Brothers, K. N. Kudin, 
 V. N. Staroverov, T. A. Keith, R. Kobayashi, J. Normand, 
 K. Raghavachari, A. P. Rendell, J. C. Burant, S. S. Iyengar, 
 J. Tomasi, M. Cossi, J. M. Millam, M. Klene, C. Adamo, R. Cammi, 
 J. W. Ochterski, R. L. Martin, K. Morokuma, O. Farkas, 
 J. B. Foresman, and D. J. Fox, Gaussian, Inc., Wallingford CT, 2019.
 
 ******************************************
 Gaussian 16:  ES64L-G16RevC.01  3-Jul-2019
                29-Sep-2024 
 ******************************************
 %chk=arbr47_wb97xd_red.chk
 %mem=48GB
 %nprocshared=24
 Will use up to   24 processors via shared memory.
 --------------------------------------
 # pop=(nbo6,hirshfeld) wb97xd/def2tzvp
 --------------------------------------
 1/38=1,172=1/1;
 2/12=2,17=6,18=5,40=1/2;
 3/5=44,7=101,11=2,25=1,30=1,74=-58/1,2,3;
 4//1;
 5/5=2,38=5/2;
 6/7=2,8=2,9=2,10=2,28=1,40=1,79=1,113=1,114=1,124=3103,126=1/1,12;
 99/5=1,9=1/99;
 ----------------------------------------
 arbr47_wb97xd_redcreated by GaussianPrep
 ----------------------------------------
 Symbolic Z-matrix:
 Charge = -1 Multiplicity = 2
 O                    -4.17553  -1.58103   0.48728 
 C                    -3.31794  -0.82264   0.12645 
 C                    -3.43773   0.67027   0.38728 
 O                    -2.49013   1.46664  -0.29675 
 C                    -1.20055   1.03303  -0.19448 
 C                    -0.18853   1.96231  -0.02133 
 C                     1.1267    1.53679   0.05623 
 C                     1.41022   0.18308  -0.02733 
 Br                    3.20565  -0.40706   0.10295 
 C                     0.40045  -0.74658  -0.20725 
 C                    -0.91619  -0.32372  -0.30933 
 C                    -2.05791  -1.25916  -0.5863 
 H                    -4.42541   1.00633   0.07619 
 H                    -3.34903   0.8202    1.47048 
 H                    -0.44002   3.01172   0.05423 
 H                     1.92393   2.25399   0.19351 
 H                     0.636    -1.80034  -0.28287 
 H                    -1.83598  -2.29266  -0.32463 
 H                    -2.29305  -1.23753  -1.65815 
 
                          Input orientation:                          
 ---------------------------------------------------------------------
 Center     Atomic      Atomic             Coordinates (Angstroms)
 Number     Number       Type             X           Y           Z
 ---------------------------------------------------------------------
      1          8           0       -4.175534   -1.581028    0.487284
      2          6           0       -3.317935   -0.822637    0.126449
      3          6           0       -3.437733    0.670273    0.387283
      4          8           0       -2.490127    1.466638   -0.296746
      5          6           0       -1.200551    1.033028   -0.194482
      6          6           0       -0.188530    1.962311   -0.021326
      7          6           0        1.126695    1.536791    0.056234
      8          6           0        1.410215    0.183084   -0.027332
      9         35           0        3.205651   -0.407056    0.102950
     10          6           0        0.400452   -0.746576   -0.207247
     11          6           0       -0.916190   -0.323723   -0.309332
     12          6           0       -2.057913   -1.259155   -0.586299
     13          1           0       -4.425410    1.006333    0.076188
     14          1           0       -3.349032    0.820197    1.470481
     15          1           0       -0.440022    3.011724    0.054228
     16          1           0        1.923928    2.253991    0.193511
     17          1           0        0.636002   -1.800343   -0.282868
     18          1           0       -1.835980   -2.292657   -0.324631
     19          1           0       -2.293051   -1.237529   -1.658147
 ---------------------------------------------------------------------
                    Distance matrix (angstroms):
                    1          2          3          4          5
     1  O    0.000000
     2  C    1.200348   0.000000
     3  C    2.371225   1.520252   0.000000
     4  O    3.569813   2.470858   1.414231   0.000000
     5  C    4.018534   2.833691   2.339877   1.364361   0.000000
     6  C    5.358184   4.191772   3.520461   2.370421   1.384824
     7  C    6.166055   5.032551   4.657730   3.634683   2.394308
     8  C    5.880265   4.836375   4.889975   4.114944   2.750717
     9  Br   7.483837   6.536852   6.736174   6.009357   4.645097
    10  C    4.703013   3.734105   4.134319   3.641672   2.393818
    11  C    3.583118   2.491425   2.798478   2.383868   1.390980
    12  C    2.395934   1.512023   2.564071   2.774995   2.478446
    13  H    2.631706   2.138728   1.088679   2.023927   3.236308
    14  H    2.723172   2.122803   1.097116   2.068501   2.726421
    15  H    5.935904   4.794781   3.818323   2.591024   2.134361
    16  H    7.210902   6.078426   5.594025   4.510450   3.376930
    17  H    4.877716   4.093540   4.811275   4.521730   3.377681
    18  H    2.576652   2.135561   3.442585   3.815886   3.388346
    19  H    2.874823   2.099358   3.022216   3.033937   2.913984
                    6          7          8          9         10
     6  C    0.000000
     7  C    1.384521   0.000000
     8  C    2.392001   1.385601   0.000000
     9  Br   4.141233   2.846539   1.894421   0.000000
    10  C    2.778405   2.410522   1.384290   2.842646   0.000000
    11  C    2.416276   2.787208   2.397611   4.143247   1.386641
    12  C    3.767178   4.286244   3.797421   5.376453   2.539680
    13  H    4.344486   5.577424   5.894317   7.760894   5.142176
    14  H    3.676776   4.748235   5.029890   6.807361   4.396383
    15  H    1.081769   2.151751   3.381011   4.998136   3.859998
    16  H    2.143294   1.081111   2.145071   2.955027   3.388951
    17  H    3.860806   3.390020   2.144455   2.948423   1.082417
    18  H    4.572837   4.856663   4.093344   5.399663   2.721355
    19  H    4.164993   4.725528   4.288575   5.833256   3.098565
                   11         12         13         14         15
    11  C    0.000000
    12  C    1.501757   0.000000
    13  H    3.772572   3.343107   0.000000
    14  H    3.224129   3.197036   1.771239   0.000000
    15  H    3.388823   4.611752   4.461546   3.907800   0.000000
    16  H    3.868298   5.367062   6.471824   5.611642   2.486326
    17  H    2.142524   2.764441   5.798641   5.081531   4.942413
    18  H    2.173235   1.088968   4.212973   3.898925   5.498062
    19  H    2.133094   1.097550   3.548209   3.890713   4.941872
                   16         17         18         19
    16  H    0.000000
    17  H    4.280574   0.000000
    18  H    5.922617   2.520875   0.000000
    19  H    5.779469   3.284433   1.760816   0.000000
 Stoichiometry    C9H7BrO2(1-,2)
 Framework group  C1[X(C9H7BrO2)]
 Deg. of freedom    51
 Full point group                 C1      NOp   1
 Largest Abelian subgroup         C1      NOp   1
 Largest concise Abelian subgroup C1      NOp   1
                         Standard orientation:                         
 ---------------------------------------------------------------------
 Center     Atomic      Atomic             Coordinates (Angstroms)
 Number     Number       Type             X           Y           Z
 ---------------------------------------------------------------------
      1          8           0        4.175534   -1.581028   -0.487284
      2          6           0        3.317935   -0.822637   -0.126449
      3          6           0        3.437733    0.670273   -0.387283
      4          8           0        2.490127    1.466638    0.296746
      5          6           0        1.200551    1.033028    0.194482
      6          6           0        0.188530    1.962311    0.021326
      7          6           0       -1.126695    1.536791   -0.056234
      8          6           0       -1.410215    0.183084    0.027332
      9         35           0       -3.205651   -0.407056   -0.102950
     10          6           0       -0.400452   -0.746576    0.207247
     11          6           0        0.916190   -0.323723    0.309332
     12          6           0        2.057913   -1.259155    0.586299
     13          1           0        4.425410    1.006333   -0.076188
     14          1           0        3.349032    0.820197   -1.470481
     15          1           0        0.440022    3.011724   -0.054228
     16          1           0       -1.923928    2.253991   -0.193511
     17          1           0       -0.636002   -1.800343    0.282868
     18          1           0        1.835980   -2.292657    0.324631
     19          1           0        2.293051   -1.237529    1.658147
 ---------------------------------------------------------------------
 Rotational constants (GHZ):           1.9361063           0.3082250           0.2714253
 Standard basis: def2TZVP (5D, 7F)
 There are   493 symmetry adapted cartesian basis functions of A   symmetry.
 There are   431 symmetry adapted basis functions of A   symmetry.
   431 basis functions,   731 primitive gaussians,   493 cartesian basis functions
    57 alpha electrons       56 beta electrons
       nuclear repulsion energy       908.8638546998 Hartrees.
 NAtoms=   19 NActive=   19 NUniq=   19 SFac= 1.00D+00 NAtFMM=   60 NAOKFM=F Big=F
 Integral buffers will be    131072 words long.
 Raffenetti 2 integral format.
 Two-electron integral symmetry is turned on.
 Nuclear repulsion after empirical dispersion term =      908.8527924377 Hartrees.
 One-electron integrals computed using PRISM.
   1 Symmetry operations used in ECPInt.
 ECPInt:  NShTT=   13695 NPrTT=   45780 LenC2=   12865 LenP2D=   32001.
 LDataN:  DoStor=T MaxTD1= 6 Len=  172
 NBasis=   431 RedAO= T EigKep=  7.27D-06  NBF=   431
 NBsUse=   431 1.00D-06 EigRej= -1.00D+00 NBFU=   431
 ExpMin= 9.52D-02 ExpMax= 5.65D+05 ExpMxC= 5.46D+03 IAcc=3 IRadAn=         5 AccDes= 0.00D+00
 Harris functional with IExCor= 4639 and IRadAn=       5 diagonalized for initial guess.
 HarFok:  IExCor= 4639 AccDes= 0.00D+00 IRadAn=         5 IDoV= 1 UseB2=F ITyADJ=14
 ICtDFT=  3500011 ScaDFX=  1.000000  1.000000  1.000000  1.000000
 FoFCou: FMM=F IPFlag=           0 FMFlag=      100000 FMFlg1=           0
         NFxFlg=           0 DoJE=T BraDBF=F KetDBF=T FulRan=T
         wScrn=  0.000000 ICntrl=       500 IOpCl=  0 I1Cent=   200000004 NGrid=           0
         NMat0=    1 NMatS0=      1 NMatT0=    0 NMatD0=    1 NMtDS0=    0 NMtDT0=    0
 Petite list used in FoFCou.
 Initial guess <Sx>= 0.0000 <Sy>= 0.0000 <Sz>= 0.5000 <S**2>= 0.7500 S= 0.5000
 Requested convergence on RMS density matrix=1.00D-08 within 128 cycles.
 Requested convergence on MAX density matrix=1.00D-06.
 Requested convergence on             energy=1.00D-06.
 No special actions if energy rises.
 Integral accuracy reduced to 1.0D-05 until final iterations.
 Initial convergence to 1.5D-05 achieved.  Increase integral accuracy.
 Restarting incremental Fock formation.
 SCF Done:  E(UwB97XD) =  -3071.82124179     A.U. after   42 cycles
            NFock= 42  Conv=0.42D-08     -V/T= 2.0018
 <Sx>= 0.0000 <Sy>= 0.0000 <Sz>= 0.5000 <S**2>= 0.7599 S= 0.5049
 <L.S>= 0.000000000000E+00
 Annihilation of the first spin contaminant:
 S**2 before annihilation     0.7599,   after     0.7501

 **********************************************************************

            Population analysis using the SCF Density.

 **********************************************************************

 Orbital symmetries:
 Alpha Orbitals:
       Occupied  (A) (A) (A) (A) (A) (A) (A) (A) (A) (A) (A) (A)
                 (A) (A) (A) (A) (A) (A) (A) (A) (A) (A) (A) (A)
                 (A) (A) (A) (A) (A) (A) (A) (A) (A) (A) (A) (A)
                 (A) (A) (A) (A) (A) (A) (A) (A) (A) (A) (A) (A)
                 (A) (A) (A) (A) (A) (A) (A) (A) (A)
       Virtual   (A) (A) (A) (A) (A) (A) (A) (A) (A) (A) (A) (A)
                 (A) (A) (A) (A) (A) (A) (A) (A) (A) (A) (A) (A)
                 (A) (A) (A) (A) (A) (A) (A) (A) (A) (A) (A) (A)
                 (A) (A) (A) (A) (A) (A) (A) (A) (A) (A) (A) (A)
                 (A) (A) (A) (A) (A) (A) (A) (A) (A) (A) (A) (A)
                 (A) (A) (A) (A) (A) (A) (A) (A) (A) (A) (A) (A)
                 (A) (A) (A) (A) (A) (A) (A) (A) (A) (A) (A) (A)
                 (A) (A) (A) (A) (A) (A) (A) (A) (A) (A) (A) (A)
                 (A) (A) (A) (A) (A) (A) (A) (A) (A) (A) (A) (A)
                 (A) (A) (A) (A) (A) (A) (A) (A) (A) (A) (A) (A)
                 (A) (A) (A) (A) (A) (A) (A) (A) (A) (A) (A) (A)
                 (A) (A) (A) (A) (A) (A) (A) (A) (A) (A) (A) (A)
                 (A) (A) (A) (A) (A) (A) (A) (A) (A) (A) (A) (A)
                 (A) (A) (A) (A) (A) (A) (A) (A) (A) (A) (A) (A)
                 (A) (A) (A) (A) (A) (A) (A) (A) (A) (A) (A) (A)
                 (A) (A) (A) (A) (A) (A) (A) (A) (A) (A) (A) (A)
                 (A) (A) (A) (A) (A) (A) (A) (A) (A) (A) (A) (A)
                 (A) (A) (A) (A) (A) (A) (A) (A) (A) (A) (A) (A)
                 (A) (A) (A) (A) (A) (A) (A) (A) (A) (A) (A) (A)
                 (A) (A) (A) (A) (A) (A) (A) (A) (A) (A) (A) (A)
                 (A) (A) (A) (A) (A) (A) (A) (A) (A) (A) (A) (A)
                 (A) (A) (A) (A) (A) (A) (A) (A) (A) (A) (A) (A)
                 (A) (A) (A) (A) (A) (A) (A) (A) (A) (A) (A) (A)
                 (A) (A) (A) (A) (A) (A) (A) (A) (A) (A) (A) (A)
                 (A) (A) (A) (A) (A) (A) (A) (A) (A) (A) (A) (A)
                 (A) (A) (A) (A) (A) (A) (A) (A) (A) (A) (A) (A)
                 (A) (A) (A) (A) (A) (A) (A) (A) (A) (A) (A) (A)
                 (A) (A) (A) (A) (A) (A) (A) (A) (A) (A) (A) (A)
                 (A) (A) (A) (A) (A) (A) (A) (A) (A) (A) (A) (A)
                 (A) (A) (A) (A) (A) (A) (A) (A) (A) (A) (A) (A)
                 (A) (A) (A) (A) (A) (A) (A) (A) (A) (A) (A) (A)
                 (A) (A)
 Beta  Orbitals:
       Occupied  (A) (A) (A) (A) (A) (A) (A) (A) (A) (A) (A) (A)
                 (A) (A) (A) (A) (A) (A) (A) (A) (A) (A) (A) (A)
                 (A) (A) (A) (A) (A) (A) (A) (A) (A) (A) (A) (A)
                 (A) (A) (A) (A) (A) (A) (A) (A) (A) (A) (A) (A)
                 (A) (A) (A) (A) (A) (A) (A) (A)
       Virtual   (A) (A) (A) (A) (A) (A) (A) (A) (A) (A) (A) (A)
                 (A) (A) (A) (A) (A) (A) (A) (A) (A) (A) (A) (A)
                 (A) (A) (A) (A) (A) (A) (A) (A) (A) (A) (A) (A)
                 (A) (A) (A) (A) (A) (A) (A) (A) (A) (A) (A) (A)
                 (A) (A) (A) (A) (A) (A) (A) (A) (A) (A) (A) (A)
                 (A) (A) (A) (A) (A) (A) (A) (A) (A) (A) (A) (A)
                 (A) (A) (A) (A) (A) (A) (A) (A) (A) (A) (A) (A)
                 (A) (A) (A) (A) (A) (A) (A) (A) (A) (A) (A) (A)
                 (A) (A) (A) (A) (A) (A) (A) (A) (A) (A) (A) (A)
                 (A) (A) (A) (A) (A) (A) (A) (A) (A) (A) (A) (A)
                 (A) (A) (A) (A) (A) (A) (A) (A) (A) (A) (A) (A)
                 (A) (A) (A) (A) (A) (A) (A) (A) (A) (A) (A) (A)
                 (A) (A) (A) (A) (A) (A) (A) (A) (A) (A) (A) (A)
                 (A) (A) (A) (A) (A) (A) (A) (A) (A) (A) (A) (A)
                 (A) (A) (A) (A) (A) (A) (A) (A) (A) (A) (A) (A)
                 (A) (A) (A) (A) (A) (A) (A) (A) (A) (A) (A) (A)
                 (A) (A) (A) (A) (A) (A) (A) (A) (A) (A) (A) (A)
                 (A) (A) (A) (A) (A) (A) (A) (A) (A) (A) (A) (A)
                 (A) (A) (A) (A) (A) (A) (A) (A) (A) (A) (A) (A)
                 (A) (A) (A) (A) (A) (A) (A) (A) (A) (A) (A) (A)
                 (A) (A) (A) (A) (A) (A) (A) (A) (A) (A) (A) (A)
                 (A) (A) (A) (A) (A) (A) (A) (A) (A) (A) (A) (A)
                 (A) (A) (A) (A) (A) (A) (A) (A) (A) (A) (A) (A)
                 (A) (A) (A) (A) (A) (A) (A) (A) (A) (A) (A) (A)
                 (A) (A) (A) (A) (A) (A) (A) (A) (A) (A) (A) (A)
                 (A) (A) (A) (A) (A) (A) (A) (A) (A) (A) (A) (A)
                 (A) (A) (A) (A) (A) (A) (A) (A) (A) (A) (A) (A)
                 (A) (A) (A) (A) (A) (A) (A) (A) (A) (A) (A) (A)
                 (A) (A) (A) (A) (A) (A) (A) (A) (A) (A) (A) (A)
                 (A) (A) (A) (A) (A) (A) (A) (A) (A) (A) (A) (A)
                 (A) (A) (A) (A) (A) (A) (A) (A) (A) (A) (A) (A)
                 (A) (A) (A)
 The electronic state is 2-A.
 Alpha  occ. eigenvalues -- -482.99444 -62.54308 -56.33391 -56.33078 -56.33078
 Alpha  occ. eigenvalues --  -19.13834 -19.08195 -10.21111 -10.20557 -10.19039
 Alpha  occ. eigenvalues --  -10.18730 -10.14790 -10.13082 -10.12976 -10.12139
 Alpha  occ. eigenvalues --  -10.11794  -8.68445  -6.50512  -6.49500  -6.49498
 Alpha  occ. eigenvalues --   -2.60924  -2.60615  -2.60614  -2.59796  -2.59795
 Alpha  occ. eigenvalues --   -1.03367  -1.00013  -0.82332  -0.76633  -0.74270
 Alpha  occ. eigenvalues --   -0.69976  -0.67647  -0.62901  -0.55988  -0.54822
 Alpha  occ. eigenvalues --   -0.48652  -0.47295  -0.44648  -0.43313  -0.40048
 Alpha  occ. eigenvalues --   -0.39121  -0.37715  -0.37197  -0.36215  -0.34718
 Alpha  occ. eigenvalues --   -0.33673  -0.32502  -0.30567  -0.30257  -0.27975
 Alpha  occ. eigenvalues --   -0.26508  -0.24066  -0.23841  -0.19674  -0.17751
 Alpha  occ. eigenvalues --   -0.15793   0.02374
 Alpha virt. eigenvalues --    0.17707   0.20963   0.21109   0.24296   0.26620
 Alpha virt. eigenvalues --    0.27077   0.28591   0.29829   0.30708   0.30957
 Alpha virt. eigenvalues --    0.32265   0.33906   0.35468   0.36116   0.37144
 Alpha virt. eigenvalues --    0.38621   0.39639   0.39966   0.41086   0.41522
 Alpha virt. eigenvalues --    0.42397   0.42916   0.43797   0.44443   0.44784
 Alpha virt. eigenvalues --    0.46211   0.47535   0.48136   0.49427   0.49740
 Alpha virt. eigenvalues --    0.49949   0.51128   0.51971   0.52447   0.53230
 Alpha virt. eigenvalues --    0.54566   0.55531   0.56818   0.57183   0.57400
 Alpha virt. eigenvalues --    0.58943   0.59522   0.60114   0.60765   0.61360
 Alpha virt. eigenvalues --    0.62031   0.63256   0.63548   0.64231   0.64431
 Alpha virt. eigenvalues --    0.65377   0.66436   0.66719   0.67645   0.68235
 Alpha virt. eigenvalues --    0.69470   0.71192   0.72210   0.72960   0.74863
 Alpha virt. eigenvalues --    0.76116   0.76547   0.77433   0.78778   0.80020
 Alpha virt. eigenvalues --    0.81178   0.81659   0.83547   0.85228   0.86896
 Alpha virt. eigenvalues --    0.88113   0.89762   0.90148   0.91835   0.93003
 Alpha virt. eigenvalues --    0.93345   0.95234   0.96014   0.96539   1.00235
 Alpha virt. eigenvalues --    1.01844   1.03050   1.03445   1.04697   1.05240
 Alpha virt. eigenvalues --    1.07268   1.08007   1.08319   1.10275   1.12171
 Alpha virt. eigenvalues --    1.13706   1.13920   1.15526   1.16837   1.18124
 Alpha virt. eigenvalues --    1.19488   1.20466   1.21916   1.22844   1.26256
 Alpha virt. eigenvalues --    1.26958   1.27427   1.29062   1.32031   1.32668
 Alpha virt. eigenvalues --    1.33241   1.34563   1.38778   1.39444   1.41448
 Alpha virt. eigenvalues --    1.43263   1.43947   1.45641   1.46033   1.46964
 Alpha virt. eigenvalues --    1.47812   1.50609   1.51708   1.53575   1.55266
 Alpha virt. eigenvalues --    1.57298   1.58861   1.59940   1.60963   1.62162
 Alpha virt. eigenvalues --    1.64169   1.65107   1.65725   1.68167   1.70566
 Alpha virt. eigenvalues --    1.71614   1.72682   1.72709   1.74302   1.75355
 Alpha virt. eigenvalues --    1.76422   1.77170   1.78790   1.79231   1.80389
 Alpha virt. eigenvalues --    1.81542   1.82609   1.83986   1.84184   1.85554
 Alpha virt. eigenvalues --    1.86277   1.87605   1.88889   1.90202   1.91621
 Alpha virt. eigenvalues --    1.92041   1.92284   1.94451   1.95706   1.97379
 Alpha virt. eigenvalues --    1.98076   2.00675   2.02419   2.04237   2.05704
 Alpha virt. eigenvalues --    2.07820   2.09401   2.12501   2.12916   2.13416
 Alpha virt. eigenvalues --    2.15211   2.17058   2.17471   2.19766   2.20335
 Alpha virt. eigenvalues --    2.24240   2.24767   2.26862   2.28068   2.30832
 Alpha virt. eigenvalues --    2.32225   2.34531   2.38868   2.39800   2.41421
 Alpha virt. eigenvalues --    2.42028   2.43577   2.43823   2.45295   2.48025
 Alpha virt. eigenvalues --    2.49838   2.52045   2.53648   2.56289   2.58559
 Alpha virt. eigenvalues --    2.60863   2.64515   2.65940   2.68094   2.70028
 Alpha virt. eigenvalues --    2.71743   2.73538   2.75521   2.76587   2.78966
 Alpha virt. eigenvalues --    2.80025   2.81892   2.85514   2.86043   2.87298
 Alpha virt. eigenvalues --    2.89108   2.90516   2.92127   2.93128   2.95246
 Alpha virt. eigenvalues --    2.97080   2.97219   2.98266   2.98716   3.01644
 Alpha virt. eigenvalues --    3.03299   3.04370   3.05623   3.07616   3.08106
 Alpha virt. eigenvalues --    3.08635   3.11155   3.12719   3.13283   3.15411
 Alpha virt. eigenvalues --    3.17421   3.18155   3.19151   3.20873   3.22354
 Alpha virt. eigenvalues --    3.24042   3.25633   3.27453   3.27775   3.28813
 Alpha virt. eigenvalues --    3.31140   3.32603   3.33188   3.35334   3.36304
 Alpha virt. eigenvalues --    3.37494   3.39453   3.40837   3.42363   3.43544
 Alpha virt. eigenvalues --    3.44305   3.45670   3.46158   3.46833   3.49263
 Alpha virt. eigenvalues --    3.50954   3.52029   3.53190   3.53500   3.54706
 Alpha virt. eigenvalues --    3.56457   3.57329   3.59479   3.61571   3.62077
 Alpha virt. eigenvalues --    3.63802   3.65481   3.66484   3.68387   3.68585
 Alpha virt. eigenvalues --    3.69883   3.70467   3.71212   3.72691   3.73123
 Alpha virt. eigenvalues --    3.75318   3.77082   3.78594   3.81734   3.84777
 Alpha virt. eigenvalues --    3.85633   3.87500   3.89978   3.91290   3.93214
 Alpha virt. eigenvalues --    3.95704   3.97001   4.00106   4.01387   4.06874
 Alpha virt. eigenvalues --    4.07943   4.11481   4.13157   4.16483   4.16889
 Alpha virt. eigenvalues --    4.18903   4.22884   4.23914   4.26531   4.27731
 Alpha virt. eigenvalues --    4.30031   4.31197   4.34726   4.35521   4.39760
 Alpha virt. eigenvalues --    4.40436   4.42856   4.45533   4.46116   4.48745
 Alpha virt. eigenvalues --    4.49204   4.50699   4.52083   4.54740   4.56131
 Alpha virt. eigenvalues --    4.58788   4.62963   4.63967   4.64629   4.66928
 Alpha virt. eigenvalues --    4.72639   4.75108   4.79186   4.82160   4.83065
 Alpha virt. eigenvalues --    4.86642   4.89524   4.94215   4.95623   5.02685
 Alpha virt. eigenvalues --    5.06062   5.09310   5.10579   5.15149   5.17483
 Alpha virt. eigenvalues --    5.22482   5.31826   5.39214   5.43158   5.44251
 Alpha virt. eigenvalues --    5.45432   5.56716   5.63904   5.67914   5.69646
 Alpha virt. eigenvalues --    5.76867   5.81626   5.86421   5.95577   6.18283
 Alpha virt. eigenvalues --    6.18434   6.26759   6.40213   6.56580   6.63793
 Alpha virt. eigenvalues --    6.64721   6.72261   6.80085   6.84623   6.95878
 Alpha virt. eigenvalues --    7.05668   7.06822   7.21081   7.24727   7.33916
 Alpha virt. eigenvalues --    7.47533   7.60978   7.99900  22.33156  22.72306
 Alpha virt. eigenvalues --   22.82922  22.97314  23.04273  23.16587  23.20597
 Alpha virt. eigenvalues --   23.37375  23.70764  44.16209  44.52471
  Beta  occ. eigenvalues -- -482.99445 -62.54308 -56.33391 -56.33079 -56.33078
  Beta  occ. eigenvalues --  -19.13842 -19.07993 -10.20910 -10.20584 -10.19121
  Beta  occ. eigenvalues --  -10.18817 -10.14844 -10.12897 -10.12792 -10.11837
  Beta  occ. eigenvalues --  -10.11535  -8.68445  -6.50511  -6.49503  -6.49498
  Beta  occ. eigenvalues --   -2.60924  -2.60616  -2.60614  -2.59797  -2.59796
  Beta  occ. eigenvalues --   -1.03353  -0.99551  -0.81984  -0.76462  -0.73812
  Beta  occ. eigenvalues --   -0.69764  -0.67007  -0.62657  -0.55339  -0.54387
  Beta  occ. eigenvalues --   -0.48345  -0.46997  -0.44293  -0.42981  -0.39755
  Beta  occ. eigenvalues --   -0.38815  -0.37346  -0.36688  -0.35926  -0.34357
  Beta  occ. eigenvalues --   -0.33205  -0.32104  -0.30133  -0.29917  -0.27347
  Beta  occ. eigenvalues --   -0.26189  -0.24010  -0.23450  -0.18596  -0.16072
  Beta  occ. eigenvalues --   -0.14793
  Beta virt. eigenvalues --    0.20099   0.20933   0.21070   0.22444   0.24236
  Beta virt. eigenvalues --    0.26578   0.27129   0.28758   0.29851   0.30793
  Beta virt. eigenvalues --    0.30959   0.32380   0.34065   0.35706   0.36498
  Beta virt. eigenvalues --    0.37372   0.38972   0.39625   0.40012   0.41225
  Beta virt. eigenvalues --    0.41600   0.42473   0.42920   0.43914   0.44494
  Beta virt. eigenvalues --    0.44995   0.46510   0.47530   0.48176   0.49610
  Beta virt. eigenvalues --    0.49812   0.50085   0.51246   0.51992   0.52566
  Beta virt. eigenvalues --    0.53296   0.54640   0.55562   0.56957   0.57280
  Beta virt. eigenvalues --    0.57630   0.59239   0.59754   0.60218   0.60918
  Beta virt. eigenvalues --    0.61542   0.62211   0.63376   0.63632   0.64491
  Beta virt. eigenvalues --    0.64537   0.65500   0.66602   0.66829   0.67742
  Beta virt. eigenvalues --    0.68328   0.69541   0.71269   0.72348   0.73122
  Beta virt. eigenvalues --    0.74888   0.76285   0.76761   0.77535   0.78891
  Beta virt. eigenvalues --    0.80153   0.81253   0.81745   0.83727   0.85351
  Beta virt. eigenvalues --    0.86979   0.88322   0.89894   0.90239   0.91943
  Beta virt. eigenvalues --    0.93151   0.93465   0.95415   0.96295   0.96595
  Beta virt. eigenvalues --    1.00238   1.02152   1.03310   1.03566   1.04978
  Beta virt. eigenvalues --    1.05523   1.07363   1.08174   1.08482   1.10377
  Beta virt. eigenvalues --    1.12335   1.13868   1.14184   1.15699   1.17053
  Beta virt. eigenvalues --    1.18268   1.19703   1.20749   1.22181   1.22996
  Beta virt. eigenvalues --    1.26370   1.27211   1.27666   1.29218   1.32286
  Beta virt. eigenvalues --    1.33065   1.33565   1.34831   1.39042   1.39604
  Beta virt. eigenvalues --    1.41596   1.43566   1.44225   1.45947   1.46488
  Beta virt. eigenvalues --    1.47260   1.48057   1.50885   1.51876   1.53711
  Beta virt. eigenvalues --    1.55387   1.57413   1.59032   1.60136   1.61235
  Beta virt. eigenvalues --    1.62450   1.64323   1.65270   1.66013   1.68660
  Beta virt. eigenvalues --    1.70861   1.71961   1.72926   1.72963   1.74685
  Beta virt. eigenvalues --    1.75423   1.76852   1.77459   1.79013   1.79430
  Beta virt. eigenvalues --    1.80607   1.81711   1.82889   1.84069   1.84460
  Beta virt. eigenvalues --    1.85756   1.86588   1.87922   1.89161   1.90539
  Beta virt. eigenvalues --    1.91903   1.92248   1.92379   1.94674   1.95828
  Beta virt. eigenvalues --    1.97533   1.98386   2.00886   2.02634   2.04746
  Beta virt. eigenvalues --    2.05883   2.07986   2.09655   2.12726   2.13232
  Beta virt. eigenvalues --    2.13751   2.15489   2.17366   2.17735   2.19968
  Beta virt. eigenvalues --    2.20684   2.24584   2.25147   2.27058   2.28344
  Beta virt. eigenvalues --    2.31035   2.32405   2.34764   2.39217   2.40216
  Beta virt. eigenvalues --    2.41689   2.42357   2.43921   2.44136   2.45599
  Beta virt. eigenvalues --    2.48296   2.50096   2.52284   2.54003   2.56596
  Beta virt. eigenvalues --    2.58793   2.61149   2.64768   2.66199   2.68342
  Beta virt. eigenvalues --    2.70284   2.72007   2.73781   2.75753   2.76838
  Beta virt. eigenvalues --    2.79320   2.80273   2.82224   2.85755   2.86277
  Beta virt. eigenvalues --    2.87605   2.89352   2.91067   2.92438   2.93333
  Beta virt. eigenvalues --    2.95468   2.97404   2.97613   2.98637   2.99079
  Beta virt. eigenvalues --    3.02047   3.03722   3.04732   3.05990   3.07962
  Beta virt. eigenvalues --    3.08356   3.09011   3.11442   3.13056   3.13647
  Beta virt. eigenvalues --    3.15721   3.17753   3.18447   3.19567   3.21262
  Beta virt. eigenvalues --    3.22779   3.24442   3.26122   3.27860   3.28187
  Beta virt. eigenvalues --    3.29150   3.31561   3.32987   3.33434   3.35700
  Beta virt. eigenvalues --    3.36693   3.37865   3.39803   3.41169   3.42612
  Beta virt. eigenvalues --    3.43876   3.44612   3.45979   3.46368   3.47019
  Beta virt. eigenvalues --    3.49594   3.51167   3.52428   3.53310   3.53794
  Beta virt. eigenvalues --    3.54967   3.56688   3.57618   3.59845   3.61881
  Beta virt. eigenvalues --    3.62454   3.64098   3.65846   3.66812   3.68675
  Beta virt. eigenvalues --    3.68930   3.70166   3.70660   3.71460   3.72898
  Beta virt. eigenvalues --    3.73498   3.75633   3.77285   3.78942   3.82179
  Beta virt. eigenvalues --    3.85084   3.85930   3.87727   3.90200   3.91515
  Beta virt. eigenvalues --    3.93553   3.95911   3.97316   4.00494   4.01678
  Beta virt. eigenvalues --    4.07297   4.08292   4.11695   4.13529   4.16776
  Beta virt. eigenvalues --    4.17110   4.19144   4.23152   4.23949   4.26810
  Beta virt. eigenvalues --    4.28066   4.30401   4.31403   4.34948   4.35820
  Beta virt. eigenvalues --    4.40011   4.40633   4.43141   4.45976   4.46625
  Beta virt. eigenvalues --    4.49166   4.49570   4.51053   4.52457   4.55076
  Beta virt. eigenvalues --    4.56354   4.59012   4.63220   4.64252   4.64786
  Beta virt. eigenvalues --    4.67172   4.72839   4.75272   4.79487   4.82452
  Beta virt. eigenvalues --    4.83297   4.86938   4.89782   4.94483   4.95963
  Beta virt. eigenvalues --    5.02988   5.06309   5.09474   5.10792   5.15439
  Beta virt. eigenvalues --    5.17783   5.22702   5.32005   5.39454   5.43395
  Beta virt. eigenvalues --    5.44753   5.45946   5.56893   5.64017   5.68053
  Beta virt. eigenvalues --    5.69825   5.77028   5.81758   5.86813   5.95895
  Beta virt. eigenvalues --    6.18301   6.18464   6.26776   6.40872   6.56625
  Beta virt. eigenvalues --    6.64491   6.65097   6.72305   6.80723   6.84835
  Beta virt. eigenvalues --    6.95873   7.06300   7.06828   7.21074   7.24869
  Beta virt. eigenvalues --    7.34193   7.47527   7.60977   7.99898  22.33362
  Beta virt. eigenvalues --   22.72274  22.82906  22.97522  23.04440  23.16775
  Beta virt. eigenvalues --   23.20813  23.37715  23.70857  44.16397  44.52465
          Condensed to atoms (all electrons):
               1          2          3          4          5          6
     1  O    7.949412   0.660258  -0.114185   0.005040   0.006264  -0.000038
     2  C    0.660258   4.934003   0.341972  -0.056999  -0.048313  -0.008384
     3  C   -0.114185   0.341972   5.128270   0.247181  -0.100064  -0.026529
     4  O    0.005040  -0.056999   0.247181   7.980103   0.325520  -0.034019
     5  C    0.006264  -0.048313  -0.100064   0.325520   5.347724   0.133011
     6  C   -0.000038  -0.008384  -0.026529  -0.034019   0.133011   5.787713
     7  C   -0.000003   0.002689   0.007686   0.004266   0.203812  -0.020727
     8  C   -0.000041  -0.008913  -0.007649   0.001427  -0.223485   0.239876
     9  Br  -0.000000   0.000038  -0.000034   0.000008  -0.005418   0.023611
    10  C   -0.001097   0.038783   0.025398   0.000592   0.125546  -0.302702
    11  C    0.012743   0.230020   0.189563  -0.151599   0.008451   0.109227
    12  C   -0.159993  -0.024563  -0.475527   0.078342   0.073882   0.049023
    13  H    0.011893  -0.034332   0.373475  -0.025708  -0.006048  -0.007076
    14  H    0.012108  -0.074195   0.325542  -0.041660   0.034068   0.031611
    15  H   -0.000007   0.000500  -0.000371   0.009579  -0.114668   0.487603
    16  H    0.000000   0.000012   0.000129  -0.000235   0.027427  -0.098771
    17  H    0.000050   0.000416   0.000304  -0.000278   0.014979  -0.006009
    18  H    0.017411  -0.095238   0.006732  -0.000209   0.023181   0.001952
    19  H    0.013280   0.074441   0.027924  -0.001379  -0.049939   0.000266
               7          8          9         10         11         12
     1  O   -0.000003  -0.000041  -0.000000  -0.001097   0.012743  -0.159993
     2  C    0.002689  -0.008913   0.000038   0.038783   0.230020  -0.024563
     3  C    0.007686  -0.007649  -0.000034   0.025398   0.189563  -0.475527
     4  O    0.004266   0.001427   0.000008   0.000592  -0.151599   0.078342
     5  C    0.203812  -0.223485  -0.005418   0.125546   0.008451   0.073882
     6  C   -0.020727   0.239876   0.023611  -0.302702   0.109227   0.049023
     7  C    5.515845   0.209331  -0.083443   0.185406  -0.199356  -0.018225
     8  C    0.209331   5.268287   0.291106  -0.144326   0.279976   0.081019
     9  Br  -0.083443   0.291106  35.021050  -0.074482   0.021691  -0.001116
    10  C    0.185406  -0.144326  -0.074482   6.620915  -0.189900  -0.356934
    11  C   -0.199356   0.279976   0.021691  -0.189900   6.296057  -0.571009
    12  C   -0.018225   0.081019  -0.001116  -0.356934  -0.571009   6.988210
    13  H    0.000516  -0.000425   0.000000   0.002659   0.029834  -0.046206
    14  H   -0.004780   0.002517   0.000005  -0.009788  -0.074916   0.081154
    15  H   -0.093764   0.022975  -0.000469  -0.008135   0.028641  -0.001005
    16  H    0.489341  -0.109403  -0.004970   0.029372  -0.011265  -0.000161
    17  H    0.019329  -0.087629  -0.005235   0.479164  -0.082667  -0.010244
    18  H   -0.001048   0.007833  -0.000066  -0.040088  -0.078552   0.504314
    19  H    0.000736  -0.014362   0.000051   0.098145   0.098026  -0.156575
              13         14         15         16         17         18
     1  O    0.011893   0.012108  -0.000007   0.000000   0.000050   0.017411
     2  C   -0.034332  -0.074195   0.000500   0.000012   0.000416  -0.095238
     3  C    0.373475   0.325542  -0.000371   0.000129   0.000304   0.006732
     4  O   -0.025708  -0.041660   0.009579  -0.000235  -0.000278  -0.000209
     5  C   -0.006048   0.034068  -0.114668   0.027427   0.014979   0.023181
     6  C   -0.007076   0.031611   0.487603  -0.098771  -0.006009   0.001952
     7  C    0.000516  -0.004780  -0.093764   0.489341   0.019329  -0.001048
     8  C   -0.000425   0.002517   0.022975  -0.109403  -0.087629   0.007833
     9  Br   0.000000   0.000005  -0.000469  -0.004970  -0.005235  -0.000066
    10  C    0.002659  -0.009788  -0.008135   0.029372   0.479164  -0.040088
    11  C    0.029834  -0.074916   0.028641  -0.011265  -0.082667  -0.078552
    12  C   -0.046206   0.081154  -0.001005  -0.000161  -0.010244   0.504314
    13  H    0.693255  -0.076881  -0.000262   0.000003   0.000003  -0.002950
    14  H   -0.076881   0.743000   0.000108  -0.000028  -0.000080   0.002856
    15  H   -0.000262   0.000108   0.621454  -0.013303   0.000087   0.000030
    16  H    0.000003  -0.000028  -0.013303   0.619708  -0.000022  -0.000013
    17  H    0.000003  -0.000080   0.000087  -0.000022   0.594332   0.004089
    18  H   -0.002950   0.002856   0.000030  -0.000013   0.004089   0.684262
    19  H    0.011264  -0.006999   0.000041   0.000033   0.001327  -0.112303
              19
     1  O    0.013280
     2  C    0.074441
     3  C    0.027924
     4  O   -0.001379
     5  C   -0.049939
     6  C    0.000266
     7  C    0.000736
     8  C   -0.014362
     9  Br   0.000051
    10  C    0.098145
    11  C    0.098026
    12  C   -0.156575
    13  H    0.011264
    14  H   -0.006999
    15  H    0.000041
    16  H    0.000033
    17  H    0.001327
    18  H   -0.112303
    19  H    1.001790
          Atomic-Atomic Spin Densities.
               1          2          3          4          5          6
     1  O    0.142387  -0.068030  -0.007861   0.000188   0.000679   0.000179
     2  C   -0.068030   0.297833   0.068204  -0.005975  -0.041344  -0.013066
     3  C   -0.007861   0.068204   0.006465  -0.005640  -0.012476  -0.015536
     4  O    0.000188  -0.005975  -0.005640  -0.001331   0.005437   0.012574
     5  C    0.000679  -0.041344  -0.012476   0.005437  -0.019020   0.003117
     6  C    0.000179  -0.013066  -0.015536   0.012574   0.003117   0.427661
     7  C   -0.000027   0.003695   0.003059  -0.002070  -0.007287  -0.157814
     8  C    0.000064  -0.009454  -0.003805   0.002181   0.025041   0.006792
     9  Br   0.000000   0.000003  -0.000001   0.000000  -0.000096   0.000320
    10  C   -0.000236   0.047032   0.014872  -0.007347  -0.088950  -0.010225
    11  C   -0.008706   0.193063   0.090570  -0.016270  -0.071006  -0.086319
    12  C    0.000280  -0.277162  -0.107980   0.011226   0.186502   0.044556
    13  H    0.004279  -0.008896   0.001158   0.001973  -0.009925  -0.004644
    14  H    0.005437  -0.027567  -0.036246   0.005888   0.008675   0.017540
    15  H    0.000000  -0.000039  -0.000046   0.000287   0.001723   0.000967
    16  H   -0.000000   0.000035   0.000038  -0.000048   0.000453  -0.000550
    17  H   -0.000004   0.000466   0.000088  -0.000012  -0.001416   0.000297
    18  H    0.003554  -0.074565  -0.012003   0.000541   0.018911   0.002420
    19  H    0.008288   0.079706   0.020037  -0.000545  -0.057824  -0.003412
               7          8          9         10         11         12
     1  O   -0.000027   0.000064   0.000000  -0.000236  -0.008706   0.000280
     2  C    0.003695  -0.009454   0.000003   0.047032   0.193063  -0.277162
     3  C    0.003059  -0.003805  -0.000001   0.014872   0.090570  -0.107980
     4  O   -0.002070   0.002181   0.000000  -0.007347  -0.016270   0.011226
     5  C   -0.007287   0.025041  -0.000096  -0.088950  -0.071006   0.186502
     6  C   -0.157814   0.006792   0.000320  -0.010225  -0.086319   0.044556
     7  C    0.285410   0.023256  -0.002350  -0.005760   0.028321  -0.015160
     8  C    0.023256   0.070017   0.004062  -0.300637   0.080877   0.056874
     9  Br  -0.002350   0.004062  -0.003282   0.004106  -0.000735  -0.000053
    10  C   -0.005760  -0.300637   0.004106   1.106095  -0.250485  -0.280148
    11  C    0.028321   0.080877  -0.000735  -0.250485   0.659410  -0.469817
    12  C   -0.015160   0.056874  -0.000053  -0.280148  -0.469817   1.051932
    13  H    0.000364  -0.000369  -0.000000   0.002358   0.033146  -0.061999
    14  H   -0.002430   0.001586   0.000001  -0.005226  -0.061246   0.067132
    15  H    0.001289  -0.000470   0.000004   0.000056  -0.001278   0.000167
    16  H   -0.000512  -0.001525   0.000214   0.003949  -0.001052  -0.000305
    17  H   -0.000820  -0.000165   0.000530   0.006614  -0.000253  -0.001835
    18  H   -0.001341   0.008690  -0.000025  -0.046415  -0.065291   0.169584
    19  H    0.001262  -0.014268   0.000036   0.109884   0.104603  -0.455948
              13         14         15         16         17         18
     1  O    0.004279   0.005437   0.000000  -0.000000  -0.000004   0.003554
     2  C   -0.008896  -0.027567  -0.000039   0.000035   0.000466  -0.074565
     3  C    0.001158  -0.036246  -0.000046   0.000038   0.000088  -0.012003
     4  O    0.001973   0.005888   0.000287  -0.000048  -0.000012   0.000541
     5  C   -0.009925   0.008675   0.001723   0.000453  -0.001416   0.018911
     6  C   -0.004644   0.017540   0.000967  -0.000550   0.000297   0.002420
     7  C    0.000364  -0.002430   0.001289  -0.000512  -0.000820  -0.001341
     8  C   -0.000369   0.001586  -0.000470  -0.001525  -0.000165   0.008690
     9  Br  -0.000000   0.000001   0.000004   0.000214   0.000530  -0.000025
    10  C    0.002358  -0.005226   0.000056   0.003949   0.006614  -0.046415
    11  C    0.033146  -0.061246  -0.001278  -0.001052  -0.000253  -0.065291
    12  C   -0.061999   0.067132   0.000167  -0.000305  -0.001835   0.169584
    13  H    0.092726  -0.042365  -0.000031   0.000004   0.000005  -0.002359
    14  H   -0.042365   0.088275   0.000091  -0.000026  -0.000022   0.003708
    15  H   -0.000031   0.000091  -0.014679   0.000446  -0.000001   0.000003
    16  H    0.000004  -0.000026   0.000446  -0.009060   0.000007  -0.000014
    17  H    0.000005  -0.000022  -0.000001   0.000007  -0.017161  -0.001139
    18  H   -0.002359   0.003708   0.000003  -0.000014  -0.001139   0.102676
    19  H    0.012528  -0.007514  -0.000019   0.000036   0.001051  -0.091289
              19
     1  O    0.008288
     2  C    0.079706
     3  C    0.020037
     4  O   -0.000545
     5  C   -0.057824
     6  C   -0.003412
     7  C    0.001262
     8  C   -0.014268
     9  Br   0.000036
    10  C    0.109884
    11  C    0.104603
    12  C   -0.455948
    13  H    0.012528
    14  H   -0.007514
    15  H   -0.000019
    16  H    0.000036
    17  H    0.001051
    18  H   -0.091289
    19  H    0.385405
 Mulliken charges and spin densities:
               1          2
     1  O   -0.413095   0.080470
     2  C    0.067803   0.163939
     3  C    0.050182   0.002898
     4  O   -0.339971   0.001058
     5  C    0.224071  -0.058805
     6  C   -0.359636   0.224857
     7  C   -0.217611   0.151085
     8  C    0.191886  -0.051254
     9  Br  -0.182327   0.002735
    10  C   -0.478526   0.299538
    11  C    0.055032   0.157532
    12  C   -0.034385  -0.082154
    13  H    0.076987   0.017952
    14  H    0.056358   0.015691
    15  H    0.060964  -0.011529
    16  H    0.072145  -0.007908
    17  H    0.078083  -0.013769
    18  H    0.077806   0.015646
    19  H    0.014234   0.092018
 Sum of Mulliken charges =  -1.00000   1.00000
 Mulliken charges and spin densities with hydrogens summed into heavy atoms:
               1          2
     1  O   -0.413095   0.080470
     2  C    0.067803   0.163939
     3  C    0.183527   0.036541
     4  O   -0.339971   0.001058
     5  C    0.224071  -0.058805
     6  C   -0.298672   0.213328
     7  C   -0.145466   0.143176
     8  C    0.191886  -0.051254
     9  Br  -0.182327   0.002735
    10  C   -0.400443   0.285769
    11  C    0.055032   0.157532
    12  C    0.057655   0.025510
 Electronic spatial extent (au):  <R**2>=           3569.9475
 Charge=             -1.0000 electrons
 Dipole moment (field-independent basis, Debye):
    X=             -3.7040    Y=              1.0334    Z=              0.1848  Tot=              3.8499
 Quadrupole moment (field-independent basis, Debye-Ang):
   XX=           -128.3830   YY=            -95.5488   ZZ=            -89.1122
   XY=              9.5565   XZ=              2.7281   YZ=             -2.5893
 Traceless Quadrupole moment (field-independent basis, Debye-Ang):
   XX=            -24.0350   YY=              8.7992   ZZ=             15.2358
   XY=              9.5565   XZ=              2.7281   YZ=             -2.5893
 Octapole moment (field-independent basis, Debye-Ang**2):
  XXX=           -183.7924  YYY=            -12.0810  ZZZ=             -6.5141  XYY=            -60.1807
  XXY=             53.3611  XXZ=             14.9418  XZZ=            -26.7453  YZZ=             -5.5428
  YYZ=             -1.5447  XYZ=             -9.1383
 Hexadecapole moment (field-independent basis, Debye-Ang**3):
 XXXX=          -3991.3896 YYYY=           -765.7849 ZZZZ=           -166.4046 XXXY=            303.9555
 XXXZ=             92.8911 YYYX=             64.4376 YYYZ=             -1.6761 ZZZX=              3.9906
 ZZZY=              8.9784 XXYY=           -809.8653 XXZZ=           -600.6773 YYZZ=           -165.8234
 XXYZ=            -37.2089 YYXZ=             10.9396 ZZXY=             18.4546
 N-N= 9.088527924377D+02 E-N=-9.148869055869D+03  KE= 3.066351037315D+03
 There are a total of      437694 grid points.
 ElSum from          density=      112.9999876619
 ElSum from atomic densities=      111.9999727030

 Hirshfeld populations at iteration   1 (CX, CA, CB, DipXYZ):
               1          2          3          4          5          6
     1  O    0.000000   4.213539   4.133680  -0.133934   0.112269   0.052719
     2  C    0.000000   3.014884   2.886922  -0.025105   0.031596   0.021642
     3  C    0.000000   3.009221   2.989964  -0.043941   0.032851   0.045421
     4  O    0.000000   4.084928   4.082544  -0.042077  -0.134608  -0.078360
     5  C    0.000000   2.985752   2.972867   0.117068   0.028822   0.017977
     6  C    0.000000   3.145015   2.990757  -0.016000   0.008294   0.004438
     7  C    0.000000   3.120085   3.000373   0.021242   0.036444  -0.001597
     8  C    0.000000   3.021017   3.012800  -0.059644  -0.028559  -0.005897
     9  Br   0.000000  17.575193  17.570242   0.204465   0.060290   0.013774
    10  C    0.000000   3.154882   2.978245   0.043579  -0.000882  -0.003945
    11  C    0.000000   3.091803   2.973304   0.020502  -0.046096   0.031714
    12  C    0.000000   3.058210   3.024594  -0.011429   0.005761  -0.010409
    13  H    0.000000   0.491930   0.480878   0.120233   0.043253   0.042502
    14  H    0.000000   0.497608   0.482288  -0.006869   0.014388  -0.123555
    15  H    0.000000   0.504320   0.487745   0.020643   0.140016  -0.008862
    16  H    0.000000   0.501487   0.489791  -0.085332   0.110532  -0.017924
    17  H    0.000000   0.508244   0.487576  -0.009254  -0.135283   0.009238
    18  H    0.000000   0.495700   0.481734  -0.033589  -0.121247  -0.032421
    19  H    0.000000   0.526172   0.473693   0.026613   0.021856   0.094623
       Tot   0.000000  56.999992  55.999996   0.107170   0.179698   0.051078

 Dip from Atomic Chgs             -1.564376   0.226830   0.021622
         Total Dipole             -1.457205   0.406528   0.072700

 Hirshfeld charges, spin densities, dipoles, and CM5 charges using IRadAn=      5:
              Q-H        S-H        Dx         Dy         Dz        Q-CM5   
     1  O   -0.347220   0.079859  -0.133934   0.112269   0.052719  -0.398124
     2  C    0.098194   0.127963  -0.025105   0.031596   0.021642   0.122376
     3  C    0.000815   0.019257  -0.043941   0.032851   0.045421  -0.070561
     4  O   -0.167472   0.002384  -0.042077  -0.134608  -0.078360  -0.248014
     5  C    0.041381   0.012886   0.117068   0.028822   0.017977   0.060637
     6  C   -0.135772   0.154258  -0.016000   0.008294   0.004438  -0.186221
     7  C   -0.120458   0.119712   0.021242   0.036444  -0.001597  -0.174183
     8  C   -0.033817   0.008217  -0.059644  -0.028559  -0.005897  -0.055202
     9  Br  -0.145435   0.004952   0.204465   0.060290   0.013774  -0.130430
    10  C   -0.133127   0.176637   0.043579  -0.000882  -0.003945  -0.184474
    11  C   -0.065106   0.118499   0.020502  -0.046096   0.031714  -0.074002
    12  C   -0.082804   0.033617  -0.011429   0.005761  -0.010409  -0.176104
    13  H    0.027191   0.011052   0.120233   0.043253   0.042502   0.093881
    14  H    0.020105   0.015320  -0.006869   0.014388  -0.123555   0.085091
    15  H    0.007935   0.016575   0.020643   0.140016  -0.008862   0.067164
    16  H    0.008722   0.011696  -0.085332   0.110532  -0.017924   0.065991
    17  H    0.004180   0.020669  -0.009254  -0.135283   0.009238   0.062119
    18  H    0.022565   0.013966  -0.033589  -0.121247  -0.032421   0.081732
    19  H    0.000135   0.052479   0.026613   0.021856   0.094623   0.058336
       Tot  -0.999988   0.999996   0.107170   0.179698   0.051078  -0.999988
 Hirshfeld charges and spin densities with hydrogens summed into heavy atoms:
              Q-H        S-H       Q-CM5   
     1  O   -0.347220   0.079859  -0.398124
     2  C    0.098194   0.127963   0.122376
     3  C    0.048111   0.045629   0.108411
     4  O   -0.167472   0.002384  -0.248014
     5  C    0.041381   0.012886   0.060637
     6  C   -0.127837   0.170833  -0.119057
     7  C   -0.111736   0.131408  -0.108192
     8  C   -0.033817   0.008217  -0.055202
     9  Br  -0.145435   0.004952  -0.130430
    10  C   -0.128947   0.197306  -0.122354
    11  C   -0.065106   0.118499  -0.074002
    12  C   -0.060103   0.100062  -0.036036
 
 EQQ= 0.905918203954E-01 EQD=-0.239067677260E-01 EDD=-0.147519924860E-02
 EQQ+QD+DD= 0.652098534208E-01
 
                          Isotropic Fermi Contact Couplings
        Atom                 a.u.       MegaHertz       Gauss      10(-4) cm-1
     1  O(17)              0.01203      -7.28975      -2.60117      -2.43160
     2  C(13)              0.01612      18.12607       6.46783       6.04621
     3  C(13)             -0.01033     -11.61541      -4.14467      -3.87448
     4  O(17)             -0.00184       1.11500       0.39786       0.37192
     5  C(13)             -0.01577     -17.72644      -6.32523      -5.91290
     6  C(13)              0.00784       8.81813       3.14653       2.94141
     7  C(13)              0.00302       3.39131       1.21011       1.13122
     8  C(13)             -0.01824     -20.50384      -7.31628      -6.83934
     9  Br(79)            -0.00289      -3.24336      -1.15731      -1.08187
    10  C(13)              0.00985      11.07680       3.95248       3.69482
    11  C(13)              0.00513       5.76437       2.05687       1.92279
    12  C(13)             -0.01640     -18.43434      -6.57783      -6.14903
    13  H(1)               0.00485      21.69468       7.74120       7.23657
    14  H(1)               0.00470      21.00634       7.49558       7.00696
    15  H(1)              -0.00346     -15.45937      -5.51629      -5.15669
    16  H(1)              -0.00252     -11.26485      -4.01958      -3.75755
    17  H(1)              -0.00409     -18.28234      -6.52359      -6.09833
    18  H(1)               0.00622      27.80286       9.92075       9.27404
    19  H(1)               0.02242     100.20312      35.75497      33.42416
 --------------------------------------------------------
       Center         ----  Spin Dipole Couplings  ----
                      3XX-RR        3YY-RR        3ZZ-RR
 --------------------------------------------------------
     1   Atom       -0.123026     -0.180532      0.303557
     2   Atom       -0.074142     -0.100198      0.174340
     3   Atom        0.001548      0.001397     -0.002945
     4   Atom        0.011948      0.007098     -0.019047
     5   Atom        0.024936      0.030641     -0.055577
     6   Atom       -0.127223     -0.123064      0.250287
     7   Atom       -0.088672     -0.093454      0.182127
     8   Atom        0.026006      0.032441     -0.058446
     9   Atom        0.026707      0.004028     -0.030735
    10   Atom       -0.147156     -0.145006      0.292161
    11   Atom       -0.091332     -0.099284      0.190616
    12   Atom        0.005290      0.003876     -0.009166
    13   Atom        0.000199      0.002517     -0.002716
    14   Atom       -0.000291      0.002774     -0.002483
    15   Atom       -0.017276      0.015574      0.001702
    16   Atom        0.000480     -0.000783      0.000303
    17   Atom       -0.018830      0.016542      0.002288
    18   Atom        0.001668      0.001577     -0.003245
    19   Atom        0.001058     -0.000892     -0.000166
 --------------------------------------------------------
                        XY            XZ            YZ
 --------------------------------------------------------
     1   Atom        0.008806      0.181383      0.021910
     2   Atom        0.007406      0.091273      0.038587
     3   Atom        0.002024     -0.001645     -0.001875
     4   Atom       -0.000412     -0.002301     -0.000179
     5   Atom       -0.005341      0.004469     -0.010747
     6   Atom       -0.001220     -0.031722      0.038378
     7   Atom       -0.002640     -0.023828      0.023910
     8   Atom       -0.003955      0.009280     -0.008711
     9   Atom        0.006734      0.004032     -0.003051
    10   Atom       -0.000510     -0.041039      0.034442
    11   Atom        0.002453      0.003673      0.015973
    12   Atom       -0.002552     -0.002256     -0.003320
    13   Atom        0.002933     -0.000666     -0.000257
    14   Atom        0.001492     -0.002230     -0.003640
    15   Atom        0.006792     -0.002824     -0.001200
    16   Atom       -0.013935      0.001295     -0.001187
    17   Atom        0.008510     -0.003244      0.001411
    18   Atom       -0.000916     -0.000299     -0.000722
    19   Atom       -0.000729     -0.000651     -0.003810
 --------------------------------------------------------


 ---------------------------------------------------------------------------------
              Anisotropic Spin Dipole Couplings in Principal Axis System
 ---------------------------------------------------------------------------------

       Atom             a.u.   MegaHertz   Gauss  10(-4) cm-1        Axes

              Baa    -0.1898    13.732     4.900     4.581  0.9364 -0.0849 -0.3405
     1 O(17)  Bbb    -0.1815    13.132     4.686     4.380  0.0651  0.9955 -0.0693
              Bcc     0.3713   -26.864    -9.586    -8.961  0.3449  0.0427  0.9377
 
              Baa    -0.1096   -14.702    -5.246    -4.904  0.6072  0.7375 -0.2955
     2 C(13)  Bbb    -0.0996   -13.367    -4.770    -4.459  0.7327 -0.6636 -0.1507
              Bcc     0.2092    28.069    10.016     9.363  0.3072  0.1250  0.9434
 
              Baa    -0.0038    -0.511    -0.182    -0.170  0.1895  0.2669  0.9449
     3 C(13)  Bbb    -0.0005    -0.073    -0.026    -0.024  0.7159 -0.6962  0.0530
              Bcc     0.0043     0.583     0.208     0.195  0.6720  0.6664 -0.3230
 
              Baa    -0.0192     1.391     0.496     0.464  0.0737  0.0079  0.9972
     4 O(17)  Bbb     0.0071    -0.511    -0.183    -0.171  0.0778  0.9969 -0.0137
              Bcc     0.0121    -0.879    -0.314    -0.293  0.9942 -0.0786 -0.0729
 
              Baa    -0.0571    -7.659    -2.733    -2.555 -0.0463  0.1187  0.9918
     5 C(13)  Bbb     0.0218     2.921     1.042     0.974  0.8667  0.4984 -0.0192
              Bcc     0.0353     4.738     1.691     1.580 -0.4966  0.8588 -0.1260
 
              Baa    -0.1309   -17.560    -6.266    -5.857  0.8871 -0.4460  0.1187
     6 C(13)  Bbb    -0.1259   -16.901    -6.031    -5.638  0.4541  0.8894 -0.0524
              Bcc     0.2568    34.461    12.296    11.495 -0.0822  0.1004  0.9915
 
              Baa    -0.0956   -12.826    -4.577    -4.278  0.1196  0.9900 -0.0750
     7 C(13)  Bbb    -0.0907   -12.170    -4.342    -4.059  0.9890 -0.1122  0.0962
              Bcc     0.1863    24.996     8.919     8.338 -0.0868  0.0857  0.9925
 
              Baa    -0.0602    -8.077    -2.882    -2.694 -0.1026  0.0888  0.9908
     8 C(13)  Bbb     0.0243     3.267     1.166     1.090  0.8762  0.4796  0.0477
              Bcc     0.0358     4.810     1.716     1.604 -0.4709  0.8730 -0.1270
 
              Baa    -0.0314    -4.208    -1.502    -1.404 -0.0805  0.1008  0.9916
     9 Br(79) Bbb     0.0027     0.356     0.127     0.119 -0.2494  0.9612 -0.1179
              Bcc     0.0287     3.852     1.375     1.285  0.9651  0.2568  0.0523
 
              Baa    -0.1524   -20.456    -7.299    -6.823  0.8664 -0.4853  0.1176
    10 C(13)  Bbb    -0.1462   -19.616    -7.000    -6.543  0.4909  0.8709 -0.0225
              Bcc     0.2986    40.072    14.299    13.367 -0.0915  0.0772  0.9928
 
              Baa    -0.1007   -13.513    -4.822    -4.508 -0.2345  0.9708 -0.0503
    11 C(13)  Bbb    -0.0908   -12.190    -4.350    -4.066  0.9720  0.2334 -0.0259
              Bcc     0.1915    25.703     9.172     8.574  0.0134  0.0549  0.9984
 
              Baa    -0.0105    -1.404    -0.501    -0.468  0.1770  0.2518  0.9515
    12 C(13)  Bbb     0.0032     0.433     0.155     0.145  0.5892  0.7473 -0.3074
              Bcc     0.0072     0.971     0.346     0.324  0.7884 -0.6150  0.0161
 
              Baa    -0.0029    -1.553    -0.554    -0.518  0.3241 -0.1307  0.9369
    13 H(1)   Bbb    -0.0016    -0.880    -0.314    -0.293  0.7589 -0.5553 -0.3401
              Bcc     0.0046     2.433     0.868     0.811  0.5648  0.8213 -0.0808
 
              Baa    -0.0048    -2.551    -0.910    -0.851  0.3160  0.3604  0.8776
    14 H(1)   Bbb    -0.0008    -0.435    -0.155    -0.145  0.8698 -0.4795 -0.1163
              Bcc     0.0056     2.986     1.066     0.996  0.3789  0.8001 -0.4650
 
              Baa    -0.0189   -10.104    -3.605    -3.370  0.9746 -0.1875  0.1224
    15 H(1)   Bbb     0.0018     0.971     0.346     0.324 -0.0980  0.1344  0.9861
              Bcc     0.0171     9.134     3.259     3.047  0.2014  0.9730 -0.1126
 
              Baa    -0.0141    -7.524    -2.685    -2.510  0.6910  0.7228 -0.0026
    16 H(1)   Bbb     0.0001     0.042     0.015     0.014 -0.0900  0.0896  0.9919
              Bcc     0.0140     7.482     2.670     2.496  0.7172 -0.6852  0.1270
 
              Baa    -0.0213   -11.356    -4.052    -3.788  0.9640 -0.2223  0.1460
    17 H(1)   Bbb     0.0028     1.480     0.528     0.494 -0.1514 -0.0077  0.9884
              Bcc     0.0185     9.876     3.524     3.294  0.2186  0.9749  0.0411
 
              Baa    -0.0034    -1.808    -0.645    -0.603  0.0870  0.1591  0.9834
    18 H(1)   Bbb     0.0008     0.445     0.159     0.148  0.6993  0.6933 -0.1740
              Bcc     0.0026     1.363     0.486     0.455  0.7095 -0.7029  0.0510
 
              Baa    -0.0045    -2.415    -0.862    -0.806  0.1724  0.7289  0.6625
    19 H(1)   Bbb     0.0012     0.656     0.234     0.219  0.9850 -0.1248 -0.1190
              Bcc     0.0033     1.760     0.628     0.587  0.0041 -0.6731  0.7395
 

 ---------------------------------------------------------------------------------

 Running external command "gaunbo6 R"
         input file       "/home/rpaton/arbr500/tzvp/fukui/Gau-2306700.EIn"
         output file      "/home/rpaton/arbr500/tzvp/fukui/Gau-2306700.EOu"
         message file     "/home/rpaton/arbr500/tzvp/fukui/Gau-2306700.EMs"
         fchk file        "/home/rpaton/arbr500/tzvp/fukui/Gau-2306700.EFC"
         mat. el file     "/home/rpaton/arbr500/tzvp/fukui/Gau-2306700.EUF"

 Writing WrtUnf unformatted file "/home/rpaton/arbr500/tzvp/fukui/Gau-2306700.EUF"
 Gaussian matrix elements                                         Version   2 NLab=11 Len12L=8 Len4L=8
 Write SHELL TO ATOM MAP                   from file      0 offset           0 length                 165 to matrix element file.
 Write SHELL TYPES                         from file      0 offset           0 length                 165 to matrix element file.
 Write NUMBER OF PRIMITIVES PER SHELL      from file      0 offset           0 length                 165 to matrix element file.
 Write PRIMITIVE EXPONENTS                 from file      0 offset           0 length                 301 to matrix element file.
 Write CONTRACTION COEFFICIENTS            from file      0 offset           0 length                 301 to matrix element file.
 Write P(S=P) CONTRACTION COEFFICIENTS     from file      0 offset           0 length                 301 to matrix element file.
 Write COORDINATES OF EACH SHELL           from file      0 offset           0 length                 495 to matrix element file.
 Write BONDS PER ATOM                      from file      0 offset           0 length                  19 to matrix element file.
 Write BONDED ATOMS                        from file      0 offset           0 length                  40 to matrix element file.
 Write BOND TYPES                          from file      0 offset           0 length                  40 to matrix element file.
 Write ONIOM CHARGE/MULT                   from file      0 offset           0 length                  32 to matrix element file.
 Write ONIOM ATOM LAYERS                   from file      0 offset           0 length                  19 to matrix element file.
 Write ONIOM ATOM MODIFIERS                from file      0 offset           0 length                  19 to matrix element file.
 Write ONIOM ATOM TYPES                    from file      0 offset           0 length                  19 to matrix element file.
 Write ONIOM LINK ATOMS                    from file      0 offset           0 length                  19 to matrix element file.
 Write ONIOM LINK CHARGES                  from file      0 offset           0 length                  19 to matrix element file.
 Write ONIOM LINK DISTANCES                from file      0 offset           0 length                  76 to matrix element file.
 Write SYMINF INTS                         from file      0 offset           0 length                  26 to matrix element file.
 Write ROTTR TO SO                         from file      0 offset           0 length                  12 to matrix element file.
 Write GAUSSIAN SCALARS                    from file    501 offset           0 to matrix element file.
 Write OPTIMIZATION FLAGS                  from file      0 offset           0 length                  19 to matrix element file.
 Write INTEGER ISO                         from file      0 offset           0 length                  19 to matrix element file.
 Write INTEGER SPIN                        from file      0 offset           0 length                  19 to matrix element file.
 Write REAL ZEFFECTIVE                     from file      0 offset           0 length                  19 to matrix element file.
 Write REAL QUADRUPOLEMOMENT               from file      0 offset           0 length                  19 to matrix element file.
 Write REAL GFACTOR                        from file      0 offset           0 length                  19 to matrix element file.
 Write REAL ZNUCLEAR                       from file      0 offset           0 length                  19 to matrix element file.
 Write MULLIKEN CHARGES                    from file      0 offset           0 length                  19 to matrix element file.
 Write TYPE 6 CHARGES                      from file      0 offset           0 length                  19 to matrix element file.
 Write TYPE 7 CHARGES                      from file      0 offset           0 length                  19 to matrix element file.
 Write NUCLEAR GRADIENT                    from file  10584 offset           0 length                  57 to matrix element file.
 Array NUCLEAR FORCE CONSTANTS              on  file  10585 does not exist.
 Write ELECTRIC DIPOLE MOMENT              from file      0 offset           0 length                   3 to matrix element file.
 Write NON-ADIABATIC COUPLING              from file  10810 offset           0 length                  57 to matrix element file.
 Write FINITE EM FIELD                     from file  10521 offset           0 length                  35 to matrix element file.
 Write OVERLAP                             from file  10514 offset           0 length               93096 to matrix element file.
 Write CORE HAMILTONIAN ALPHA              from file  10515 offset           0 length               93096 to matrix element file.
 Write CORE HAMILTONIAN BETA               from file  10515 offset       93096 length               93096 to matrix element file.
 Write KINETIC ENERGY                      from file  10516 offset           0 length               93096 to matrix element file.
 Write ORTHOGONAL BASIS                    from file  10685 offset           0 length              185761 to matrix element file.
 Write DIPOLE INTEGRALS                    from file  10518 offset           0 length              279288 to matrix element file.
 Array DIP VEL INTEGRALS                    on  file  10572 does not exist.
 Array R X DEL INTEGRALS                    on  file  10572 does not exist.
 Write ALPHA ORBITAL ENERGIES              from file      0 offset           0 length                 431 to matrix element file.
 Write BETA ORBITAL ENERGIES               from file      0 offset           0 length                 431 to matrix element file.
 Write ALPHA MO COEFFICIENTS               from file  10524 offset           0 length              185761 to matrix element file.
 Write BETA MO COEFFICIENTS                from file  10526 offset           0 length              185761 to matrix element file.
 Write ALPHA DENSITY MATRIX                from file      0 offset           0 length               93096 to matrix element file.
 Write BETA DENSITY MATRIX                 from file      0 offset           0 length               93096 to matrix element file.
 Write ALPHA FOCK MATRIX                   from file  10536 offset           0 length               93096 to matrix element file.
 Write BETA FOCK MATRIX                    from file  10538 offset           0 length               93096 to matrix element file.
 Write ENERGY-WEIGHTED DENSITY             from file  10571 offset           0 length               93096 to matrix element file.
 Write ALPHA SCF DENSITY MATRIX            from file      0 offset           0 length               93096 to matrix element file.
 Write BETA SCF DENSITY MATRIX             from file      0 offset           0 length               93096 to matrix element file.
 No 2e integrals to process.
 Perform NBO analysis...

 *********************************** NBO 7.0 ***********************************
             N A T U R A L   A T O M I C   O R B I T A L   A N D
          N A T U R A L   B O N D   O R B I T A L   A N A L Y S I S
 **************************** Robert Paton (I101709) ***************************
  (c) Copyright 1996-2019 Board of Regents of the University of Wisconsin System
      on behalf of the Theoretical Chemistry Institute.  All rights reserved.

          Cite this program [NBO 7.0.5 (4-Jun-2019)] as:

          NBO 7.0.  E. D. Glendening, J. K. Badenhoop, A. E. Reed,
          J. E. Carpenter, J. A. Bohmann, C. M. Morales, P. Karafiloglou,
          C. R. Landis, and F. Weinhold, Theoretical Chemistry Institute,
          University of Wisconsin, Madison, WI (2018)

 Filename set to /home/rpaton/arbr500/tzvp/fukui/Gau-2306700

 Job title:  arbr47_wb97xd_redcreated by GaussianPrep


 NATURAL POPULATIONS:  Natural atomic orbital occupancies

  NAO Atom No lang   Type(AO)    Occupancy     Spin
 -----------------------------------------------------
   1    O  1  s      Cor( 1s)     1.99999     0.00000
   2    O  1  s      Val( 2s)     1.68422     0.00143
   3    O  1  s      Ryd( 3s)     0.00023     0.00000
   4    O  1  s      Ryd( 4s)     0.00001     0.00000
   5    O  1  s      Ryd( 5s)     0.00000     0.00000
   6    O  1  px     Val( 2p)     1.63531     0.00929
   7    O  1  px     Ryd( 3p)     0.00220     0.00064
   8    O  1  px     Ryd( 4p)     0.00013     0.00000
   9    O  1  py     Val( 2p)     1.74813    -0.00014
  10    O  1  py     Ryd( 3p)     0.00274     0.00008
  11    O  1  py     Ryd( 4p)     0.00011     0.00000
  12    O  1  pz     Val( 2p)     1.53579     0.06981
  13    O  1  pz     Ryd( 3p)     0.00305     0.00223
  14    O  1  pz     Ryd( 4p)     0.00003     0.00000
  15    O  1  dxy    Ryd( 3d)     0.00617    -0.00002
  16    O  1  dxy    Ryd( 4d)     0.00000     0.00000
  17    O  1  dxz    Ryd( 3d)     0.00298    -0.00003
  18    O  1  dxz    Ryd( 4d)     0.00002     0.00001
  19    O  1  dyz    Ryd( 3d)     0.00278     0.00002
  20    O  1  dyz    Ryd( 4d)     0.00001     0.00001
  21    O  1  dx2y2  Ryd( 3d)     0.00366     0.00001
  22    O  1  dx2y2  Ryd( 4d)     0.00004     0.00000
  23    O  1  dz2    Ryd( 3d)     0.00240     0.00002
  24    O  1  dz2    Ryd( 4d)     0.00001     0.00001
  25    O  1  f(0)   Ryd( 4f)     0.00003     0.00000
  26    O  1  f(c1)  Ryd( 4f)     0.00005     0.00000
  27    O  1  f(s1)  Ryd( 4f)     0.00006     0.00000
  28    O  1  f(c2)  Ryd( 4f)     0.00004     0.00000
  29    O  1  f(s2)  Ryd( 4f)     0.00011     0.00000
  30    O  1  f(c3)  Ryd( 4f)     0.00014     0.00000
  31    O  1  f(s3)  Ryd( 4f)     0.00012     0.00000

  32    C  2  s      Cor( 1s)     1.99999     0.00000
  33    C  2  s      Val( 2s)     0.88684     0.00807
  34    C  2  s      Ryd( 4s)     0.00746     0.00031
  35    C  2  s      Ryd( 3s)     0.00016     0.00008
  36    C  2  s      Ryd( 5s)     0.00001     0.00000
  37    C  2  px     Val( 2p)     0.85038     0.02253
  38    C  2  px     Ryd( 3p)     0.00915     0.00097
  39    C  2  px     Ryd( 4p)     0.00037     0.00004
  40    C  2  py     Val( 2p)     0.89717     0.00434
  41    C  2  py     Ryd( 3p)     0.00684    -0.00005
  42    C  2  py     Ryd( 4p)     0.00020     0.00003
  43    C  2  pz     Val( 2p)     0.84228     0.12018
  44    C  2  pz     Ryd( 3p)     0.00361     0.00125
  45    C  2  pz     Ryd( 4p)     0.00041     0.00019
  46    C  2  dxy    Ryd( 3d)     0.00059     0.00002
  47    C  2  dxy    Ryd( 4d)     0.00067     0.00004
  48    C  2  dxz    Ryd( 4d)     0.00095     0.00014
  49    C  2  dxz    Ryd( 3d)     0.00055     0.00028
  50    C  2  dyz    Ryd( 4d)     0.00070     0.00006
  51    C  2  dyz    Ryd( 3d)     0.00035     0.00011
  52    C  2  dx2y2  Ryd( 4d)     0.00185     0.00020
  53    C  2  dx2y2  Ryd( 3d)     0.00086     0.00039
  54    C  2  dz2    Ryd( 4d)     0.00065    -0.00003
  55    C  2  dz2    Ryd( 3d)     0.00020     0.00001
  56    C  2  f(0)   Ryd( 4f)     0.00017     0.00000
  57    C  2  f(c1)  Ryd( 4f)     0.00014     0.00001
  58    C  2  f(s1)  Ryd( 4f)     0.00012    -0.00001
  59    C  2  f(c2)  Ryd( 4f)     0.00016    -0.00002
  60    C  2  f(s2)  Ryd( 4f)     0.00012     0.00000
  61    C  2  f(c3)  Ryd( 4f)     0.00012     0.00002
  62    C  2  f(s3)  Ryd( 4f)     0.00028     0.00003

  63    C  3  s      Cor( 1s)     1.99999     0.00000
  64    C  3  s      Val( 2s)     1.05922    -0.00220
  65    C  3  s      Ryd( 3s)     0.00237     0.00000
  66    C  3  s      Ryd( 4s)     0.00005     0.00000
  67    C  3  s      Ryd( 5s)     0.00001     0.00000
  68    C  3  px     Val( 2p)     0.99393    -0.00080
  69    C  3  px     Ryd( 3p)     0.00384     0.00047
  70    C  3  px     Ryd( 4p)     0.00032     0.00015
  71    C  3  py     Val( 2p)     0.99571    -0.00435
  72    C  3  py     Ryd( 3p)     0.00376     0.00081
  73    C  3  py     Ryd( 4p)     0.00046     0.00012
  74    C  3  pz     Val( 2p)     1.08782    -0.00214
  75    C  3  pz     Ryd( 3p)     0.00216     0.00009
  76    C  3  pz     Ryd( 4p)     0.00047     0.00011
  77    C  3  dxy    Ryd( 3d)     0.00094     0.00010
  78    C  3  dxy    Ryd( 4d)     0.00022     0.00001
  79    C  3  dxz    Ryd( 3d)     0.00124     0.00008
  80    C  3  dxz    Ryd( 4d)     0.00012     0.00003
  81    C  3  dyz    Ryd( 3d)     0.00099     0.00043
  82    C  3  dyz    Ryd( 4d)     0.00019     0.00002
  83    C  3  dx2y2  Ryd( 3d)     0.00218     0.00000
  84    C  3  dx2y2  Ryd( 4d)     0.00016     0.00000
  85    C  3  dz2    Ryd( 3d)     0.00193     0.00001
  86    C  3  dz2    Ryd( 4d)     0.00013     0.00000
  87    C  3  f(0)   Ryd( 4f)     0.00030     0.00000
  88    C  3  f(c1)  Ryd( 4f)     0.00003     0.00000
  89    C  3  f(s1)  Ryd( 4f)     0.00007     0.00000
  90    C  3  f(c2)  Ryd( 4f)     0.00002     0.00000
  91    C  3  f(s2)  Ryd( 4f)     0.00002     0.00000
  92    C  3  f(c3)  Ryd( 4f)     0.00010     0.00000
  93    C  3  f(s3)  Ryd( 4f)     0.00028     0.00000

  94    O  4  s      Cor( 1s)     1.99999     0.00000
  95    O  4  s      Val( 2s)     1.58384    -0.00022
  96    O  4  s      Ryd( 3s)     0.00079     0.00025
  97    O  4  s      Ryd( 4s)     0.00007     0.00000
  98    O  4  s      Ryd( 5s)     0.00000     0.00000
  99    O  4  px     Val( 2p)     1.35501     0.00066
 100    O  4  px     Ryd( 3p)     0.00203     0.00000
 101    O  4  px     Ryd( 4p)     0.00008     0.00000
 102    O  4  py     Val( 2p)     1.75771    -0.00040
 103    O  4  py     Ryd( 3p)     0.00391     0.00037
 104    O  4  py     Ryd( 4p)     0.00022     0.00000
 105    O  4  pz     Val( 2p)     1.77282    -0.00204
 106    O  4  pz     Ryd( 3p)     0.00374     0.00029
 107    O  4  pz     Ryd( 4p)     0.00011     0.00000
 108    O  4  dxy    Ryd( 3d)     0.00332     0.00000
 109    O  4  dxy    Ryd( 4d)     0.00006     0.00000
 110    O  4  dxz    Ryd( 3d)     0.00163     0.00000
 111    O  4  dxz    Ryd( 4d)     0.00005     0.00000
 112    O  4  dyz    Ryd( 3d)     0.00350     0.00012
 113    O  4  dyz    Ryd( 4d)     0.00002     0.00000
 114    O  4  dx2y2  Ryd( 3d)     0.00233     0.00006
 115    O  4  dx2y2  Ryd( 4d)     0.00007     0.00000
 116    O  4  dz2    Ryd( 3d)     0.00215     0.00004
 117    O  4  dz2    Ryd( 4d)     0.00003     0.00000
 118    O  4  f(0)   Ryd( 4f)     0.00007     0.00000
 119    O  4  f(c1)  Ryd( 4f)     0.00006     0.00000
 120    O  4  f(s1)  Ryd( 4f)     0.00004     0.00000
 121    O  4  f(c2)  Ryd( 4f)     0.00005     0.00000
 122    O  4  f(s2)  Ryd( 4f)     0.00005     0.00000
 123    O  4  f(c3)  Ryd( 4f)     0.00004     0.00000
 124    O  4  f(s3)  Ryd( 4f)     0.00008     0.00000

 125    C  5  s      Cor( 1s)     1.99999     0.00000
 126    C  5  s      Val( 2s)     0.85710    -0.00421
 127    C  5  s      Ryd( 3s)     0.00190    -0.00001
 128    C  5  s      Ryd( 4s)     0.00024    -0.00001
 129    C  5  s      Ryd( 5s)     0.00000     0.00000
 130    C  5  px     Val( 2p)     0.80047    -0.00217
 131    C  5  px     Ryd( 3p)     0.00485     0.00010
 132    C  5  px     Ryd( 4p)     0.00035     0.00013
 133    C  5  py     Val( 2p)     1.03801    -0.00516
 134    C  5  py     Ryd( 3p)     0.00452     0.00054
 135    C  5  py     Ryd( 4p)     0.00047     0.00011
 136    C  5  pz     Val( 2p)     0.97708    -0.03511
 137    C  5  pz     Ryd( 3p)     0.00226    -0.00006
 138    C  5  pz     Ryd( 4p)     0.00025     0.00004
 139    C  5  dxy    Ryd( 3d)     0.00106     0.00000
 140    C  5  dxy    Ryd( 4d)     0.00058     0.00000
 141    C  5  dxz    Ryd( 3d)     0.00132     0.00009
 142    C  5  dxz    Ryd( 4d)     0.00017     0.00001
 143    C  5  dyz    Ryd( 3d)     0.00110     0.00070
 144    C  5  dyz    Ryd( 4d)     0.00017     0.00004
 145    C  5  dx2y2  Ryd( 3d)     0.00077    -0.00001
 146    C  5  dx2y2  Ryd( 4d)     0.00068     0.00000
 147    C  5  dz2    Ryd( 3d)     0.00059     0.00001
 148    C  5  dz2    Ryd( 4d)     0.00008    -0.00001
 149    C  5  f(0)   Ryd( 4f)     0.00042     0.00001
 150    C  5  f(c1)  Ryd( 4f)     0.00025     0.00000
 151    C  5  f(s1)  Ryd( 4f)     0.00035    -0.00001
 152    C  5  f(c2)  Ryd( 4f)     0.00003     0.00001
 153    C  5  f(s2)  Ryd( 4f)     0.00007     0.00003
 154    C  5  f(c3)  Ryd( 4f)     0.00025     0.00000
 155    C  5  f(s3)  Ryd( 4f)     0.00032     0.00000

 156    C  6  s      Cor( 1s)     1.99999     0.00000
 157    C  6  s      Val( 2s)     0.95596     0.00780
 158    C  6  s      Ryd( 3s)     0.00111     0.00000
 159    C  6  s      Ryd( 4s)     0.00006     0.00000
 160    C  6  s      Ryd( 5s)     0.00000     0.00000
 161    C  6  px     Val( 2p)     1.05123     0.00390
 162    C  6  px     Ryd( 3p)     0.00497     0.00015
 163    C  6  px     Ryd( 4p)     0.00038     0.00001
 164    C  6  py     Val( 2p)     1.15244     0.00597
 165    C  6  py     Ryd( 3p)     0.00286     0.00005
 166    C  6  py     Ryd( 4p)     0.00059     0.00001
 167    C  6  pz     Val( 2p)     1.18970     0.19481
 168    C  6  pz     Ryd( 3p)     0.01093     0.00896
 169    C  6  pz     Ryd( 4p)     0.00028     0.00019
 170    C  6  dxy    Ryd( 3d)     0.00168     0.00001
 171    C  6  dxy    Ryd( 4d)     0.00022     0.00000
 172    C  6  dxz    Ryd( 3d)     0.00034     0.00015
 173    C  6  dxz    Ryd( 4d)     0.00015     0.00003
 174    C  6  dyz    Ryd( 3d)     0.00042    -0.00002
 175    C  6  dyz    Ryd( 4d)     0.00006     0.00000
 176    C  6  dx2y2  Ryd( 3d)     0.00061     0.00000
 177    C  6  dx2y2  Ryd( 4d)     0.00032     0.00000
 178    C  6  dz2    Ryd( 3d)     0.00117    -0.00014
 179    C  6  dz2    Ryd( 4d)     0.00003     0.00000
 180    C  6  f(0)   Ryd( 4f)     0.00065     0.00015
 181    C  6  f(c1)  Ryd( 4f)     0.00038    -0.00001
 182    C  6  f(s1)  Ryd( 4f)     0.00048    -0.00003
 183    C  6  f(c2)  Ryd( 4f)     0.00007     0.00002
 184    C  6  f(s2)  Ryd( 4f)     0.00003     0.00000
 185    C  6  f(c3)  Ryd( 4f)     0.00028     0.00000
 186    C  6  f(s3)  Ryd( 4f)     0.00037     0.00001

 187    C  7  s      Cor( 1s)     1.99999     0.00000
 188    C  7  s      Val( 2s)     0.95660     0.00515
 189    C  7  s      Ryd( 3s)     0.00095     0.00000
 190    C  7  s      Ryd( 4s)     0.00007     0.00000
 191    C  7  s      Ryd( 5s)     0.00000     0.00000
 192    C  7  px     Val( 2p)     1.11246     0.00197
 193    C  7  px     Ryd( 3p)     0.00481    -0.00002
 194    C  7  px     Ryd( 4p)     0.00053     0.00000
 195    C  7  py     Val( 2p)     1.10602     0.00370
 196    C  7  py     Ryd( 3p)     0.00330     0.00014
 197    C  7  py     Ryd( 4p)     0.00030     0.00000
 198    C  7  pz     Val( 2p)     1.12514     0.13647
 199    C  7  pz     Ryd( 3p)     0.00704     0.00494
 200    C  7  pz     Ryd( 4p)     0.00038     0.00026
 201    C  7  dxy    Ryd( 3d)     0.00067     0.00001
 202    C  7  dxy    Ryd( 4d)     0.00044     0.00000
 203    C  7  dxz    Ryd( 3d)     0.00048     0.00012
 204    C  7  dxz    Ryd( 4d)     0.00012     0.00002
 205    C  7  dyz    Ryd( 3d)     0.00025     0.00004
 206    C  7  dyz    Ryd( 4d)     0.00013     0.00000
 207    C  7  dx2y2  Ryd( 3d)     0.00206     0.00001
 208    C  7  dx2y2  Ryd( 4d)     0.00011     0.00000
 209    C  7  dz2    Ryd( 3d)     0.00126    -0.00012
 210    C  7  dz2    Ryd( 4d)     0.00003     0.00000
[...]
  115. RY ( 9) C  2             0.00005     3.11320
  116. RY (10) C  2             0.00003     2.69347
  117. RY (11) C  2             0.00001     2.71630
  118. RY (12) C  2             0.00001     2.42196
  119. RY (13) C  2             0.00001     2.64714
  120. RY (14) C  2             0.00001     2.29050
  121. RY (15) C  2             0.00000     1.76985
  122. RY (16) C  2             0.00000    11.36182
  123. RY (17) C  2             0.00000     3.15875
  124. RY (18) C  2             0.00000     4.62535
  125. RY (19) C  2             0.00000     2.67267
  126. RY (20) C  2             0.00000     3.16836
  127. RY (21) C  2             0.00000     3.54049
  128. RY (22) C  2             0.00000     3.57893
  129. RY (23) C  2             0.00000     3.28128
  130. RY (24) C  2             0.00000     3.98797
  131. RY (25) C  2             0.00000     3.83530
  132. RY (26) C  2             0.00000     8.43047
  133. RY ( 1) C  3             0.00235     1.18715
  134. RY ( 2) C  3             0.00097     1.74872
  135. RY ( 3) C  3             0.00074     1.40974
  136. RY ( 4) C  3             0.00047     1.91573
  137. RY ( 5) C  3             0.00031     1.96268
  138. RY ( 6) C  3             0.00019     1.61876
  139. RY ( 7) C  3             0.00010     2.48701
  140. RY ( 8) C  3             0.00006     2.15588
  141. RY ( 9) C  3             0.00004     2.71890
  142. RY (10) C  3             0.00003     2.21649
  143. RY (11) C  3             0.00001     3.08439
  144. RY (12) C  3             0.00001     2.68546
  145. RY (13) C  3             0.00000     4.25926
  146. RY (14) C  3             0.00000     3.29702
  147. RY (15) C  3             0.00000     2.38252
  148. RY (16) C  3             0.00000     4.89451
  149. RY (17) C  3             0.00000     3.64818
  150. RY (18) C  3             0.00000     2.92140
  151. RY (19) C  3             0.00000     3.48159
  152. RY (20) C  3             0.00000     9.53877
  153. RY (21) C  3             0.00000     3.49876
  154. RY (22) C  3             0.00000     4.70866
  155. RY (23) C  3             0.00000     3.64631
  156. RY (24) C  3             0.00000     3.57794
  157. RY (25) C  3             0.00000     8.93102
  158. RY (26) C  3             0.00000     3.79992
  159. RY ( 1) O  4             0.00214     0.99707
  160. RY ( 2) O  4             0.00141     1.06602
  161. RY ( 3) O  4             0.00021     1.79574
  162. RY ( 4) O  4             0.00015     2.62907
  163. RY ( 5) O  4             0.00007     4.13204
  164. RY ( 6) O  4             0.00004     2.87784
  165. RY ( 7) O  4             0.00003     2.58576
  166. RY ( 8) O  4             0.00002     3.71158
  167. RY ( 9) O  4             0.00002     3.75618
  168. RY (10) O  4             0.00001     4.32528
  169. RY (11) O  4             0.00001     5.43816
  170. RY (12) O  4             0.00000     3.60176
  171. RY (13) O  4             0.00000     4.96467
  172. RY (14) O  4             0.00000    17.24874
  173. RY (15) O  4             0.00000     5.58584
  174. RY (16) O  4             0.00000     4.37102
  175. RY (17) O  4             0.00000     8.15271
  176. RY (18) O  4             0.00000     6.49011
  177. RY (19) O  4             0.00000    15.40798
  178. RY (20) O  4             0.00000     6.97445
  179. RY (21) O  4             0.00000     6.13985
  180. RY (22) O  4             0.00000    11.60136
  181. RY (23) O  4             0.00000     7.26974
  182. RY (24) O  4             0.00000     6.18608
  183. RY (25) O  4             0.00000     7.62186
  184. RY (26) O  4             0.00000     5.83669
  185. RY ( 1) C  5             0.00259     1.65211
  186. RY ( 2) C  5             0.00169     1.44013
  187. RY ( 3) C  5             0.00103     1.86054
  188. RY ( 4) C  5             0.00067     2.73294
  189. RY ( 5) C  5             0.00056     1.51542
  190. RY ( 6) C  5             0.00022     3.16740
  191. RY ( 7) C  5             0.00018     2.62187
  192. RY ( 8) C  5             0.00012     3.23194
  193. RY ( 9) C  5             0.00009     2.55733
  194. RY (10) C  5             0.00006     3.02461
  195. RY (11) C  5             0.00004     3.03772
  196. RY (12) C  5             0.00003     2.48625
  197. RY (13) C  5             0.00002     2.32427
  198. RY (14) C  5             0.00001     3.69883
  199. RY (15) C  5             0.00001     3.04655
  200. RY (16) C  5             0.00000     3.40314
  201. RY (17) C  5             0.00000     5.23301
  202. RY (18) C  5             0.00000     3.53963
  203. RY (19) C  5             0.00000     3.56230
  204. RY (20) C  5             0.00000     3.69533
  205. RY (21) C  5             0.00000     3.75081
  206. RY (22) C  5             0.00000     8.47629
  207. RY (23) C  5             0.00000     6.23893
  208. RY (24) C  5             0.00000     7.13395
  209. RY (25) C  5             0.00000     4.20138
  210. RY (26) C  5             0.00000     5.72668
  211. RY ( 1) C  6             0.00186     1.78143
  212. RY ( 2) C  6             0.00105     1.49803
  213. RY ( 3) C  6             0.00075     0.67146
  214. RY ( 4) C  6             0.00042     1.68868
  215. RY ( 5) C  6             0.00017     3.03900
  216. RY ( 6) C  6             0.00012     2.83400
  217. RY ( 7) C  6             0.00010     2.47597
  218. RY ( 8) C  6             0.00005     2.57829
  219. RY ( 9) C  6             0.00004     3.25468
  220. RY (10) C  6             0.00002     2.93177
  221. RY (11) C  6             0.00001     2.79260
  222. RY (12) C  6             0.00000     2.00099
  223. RY (13) C  6             0.00000     2.84004
  224. RY (14) C  6             0.00000     2.62788
  225. RY (15) C  6             0.00000     2.47236
  226. RY (16) C  6             0.00000     7.42971
  227. RY (17) C  6             0.00000     8.42860
  228. RY (18) C  6             0.00000     3.53237
  229. RY (19) C  6             0.00000     6.19908
  230. RY (20) C  6             0.00000     3.22504
  231. RY (21) C  6             0.00000     3.43655
  232. RY (22) C  6             0.00000     3.80860
  233. RY (23) C  6             0.00000     4.16340
  234. RY (24) C  6             0.00000     3.50856
  235. RY (25) C  6             0.00000     3.83104
  236. RY (26) C  6             0.00000     7.10882
  237. RY ( 1) C  7             0.00229     1.64494
  238. RY ( 2) C  7             0.00097     1.30210
  239. RY ( 3) C  7             0.00094     0.96279
  240. RY ( 4) C  7             0.00038     1.78148
  241. RY ( 5) C  7             0.00020     2.48855
  242. RY ( 6) C  7             0.00016     1.96202
  243. RY ( 7) C  7             0.00006     2.68937
  244. RY ( 8) C  7             0.00003     3.25967
  245. RY ( 9) C  7             0.00003     2.29833
  246. RY (10) C  7             0.00002     2.88955
  247. RY (11) C  7             0.00000     3.26804
  248. RY (12) C  7             0.00000     3.09567
  249. RY (13) C  7             0.00000     2.97421
  250. RY (14) C  7             0.00000     3.24986
  251. RY (15) C  7             0.00000     2.22839
  252. RY (16) C  7             0.00000     3.52335
  253. RY (17) C  7             0.00000     3.04495
  254. RY (18) C  7             0.00000     5.35468
  255. RY (19) C  7             0.00000     3.75719
  256. RY (20) C  7             0.00000     3.89572
  257. RY (21) C  7             0.00000     3.06072
  258. RY (22) C  7             0.00000     8.77757
  259. RY (23) C  7             0.00000     2.78907
  260. RY (24) C  7             0.00000     4.79935
  261. RY (25) C  7             0.00000     3.50377
  262. RY (26) C  7             0.00000    10.69070
  263. RY ( 1) C  8             0.00260     1.53042
  264. RY ( 2) C  8             0.00178     1.34100
  265. RY ( 3) C  8             0.00084     1.18138
  266. RY ( 4) C  8             0.00034     1.32274
  267. RY ( 5) C  8             0.00033     1.68242
  268. RY ( 6) C  8             0.00024     2.90425
  269. RY ( 7) C  8             0.00020     1.26304
  270. RY ( 8) C  8             0.00012     3.70677
  271. RY ( 9) C  8             0.00010     3.14662
  272. RY (10) C  8             0.00004     2.55932
  273. RY (11) C  8             0.00001     3.20402
  274. RY (12) C  8             0.00000     2.66643
  275. RY (13) C  8             0.00000     2.87080
  276. RY (14) C  8             0.00000     2.05439
  277. RY (15) C  8             0.00000     3.71500
  278. RY (16) C  8             0.00000     3.11292
  279. RY (17) C  8             0.00000     2.82477
  280. RY (18) C  8             0.00000     3.16310
  281. RY (19) C  8             0.00000     4.26484
  282. RY (20) C  8             0.00000     5.56430
  283. RY (21) C  8             0.00000     8.94507
  284. RY (22) C  8             0.00000     4.52492
  285. RY (23) C  8             0.00000     3.37902
  286. RY (24) C  8             0.00000     3.88481
  287. RY (25) C  8             0.00000     7.31692
  288. RY (26) C  8             0.00000     4.10543
  289. RY ( 1)Br  9             0.00245     0.84717
  290. RY ( 2)Br  9             0.00080     1.04743
  291. RY ( 3)Br  9             0.00017     0.90192
  292. RY ( 4)Br  9             0.00011     1.06549
  293. RY ( 5)Br  9             0.00009     0.63588
  294. RY ( 6)Br  9             0.00002     1.34293
  295. RY ( 7)Br  9             0.00001     1.25254
  296. RY ( 8)Br  9             0.00001     1.59776
  297. RY ( 9)Br  9             0.00000     1.51239
  298. RY (10)Br  9             0.00000     1.40340
  299. RY (11)Br  9             0.00000     4.18221
  300. RY (12)Br  9             0.00000     3.12618
  301. RY (13)Br  9             0.00000     2.59205
  302. RY (14)Br  9             0.00000     3.70223
  303. RY (15)Br  9             0.00000     2.37687
  304. RY (16)Br  9             0.00000     2.87664
  305. RY (17)Br  9             0.00000     3.45497
  306. RY (18)Br  9             0.00000     1.78474
  307. RY (19)Br  9             0.00000     3.61671
  308. RY (20)Br  9             0.00000     2.52747
  309. RY (21)Br  9             0.00000     2.90550
  310. RY (22)Br  9             0.00000     2.07902
  311. RY (23)Br  9             0.00000     3.04294
  312. RY (24)Br  9             0.00000     2.44194
  313. RY (25)Br  9             0.00000     2.49954
  314. RY (26)Br  9             0.00000     2.52096
  315. RY (27)Br  9             0.00000     2.47269
  316. RY (28)Br  9             0.00000     2.18873
  317. RY (29)Br  9             0.00000     2.19809
  318. RY (30)Br  9             0.00000     2.53624
  319. RY ( 1) C 10             0.00248     1.55075
  320. RY ( 2) C 10             0.00133     1.39359
  321. RY ( 3) C 10             0.00102     0.89838
  322. RY ( 4) C 10             0.00044     1.92617
  323. RY ( 5) C 10             0.00022     1.99844
  324. RY ( 6) C 10             0.00017     2.54815
  325. RY ( 7) C 10             0.00008     2.58056
  326. RY ( 8) C 10             0.00005     2.10238
  327. RY ( 9) C 10             0.00004     2.20932
  328. RY (10) C 10             0.00003     3.49484
  329. RY (11) C 10             0.00002     3.39450
  330. RY (12) C 10             0.00001     3.01400
  331. RY (13) C 10             0.00001     2.73627
  332. RY (14) C 10             0.00000     2.45673
  333. RY (15) C 10             0.00000     2.79159
  334. RY (16) C 10             0.00000     4.47902
  335. RY (17) C 10             0.00000    16.21997
  336. RY (18) C 10             0.00000     3.75935
  337. RY (19) C 10             0.00000     3.46323
  338. RY (20) C 10             0.00000     4.33620
  339. RY (21) C 10             0.00000     3.00722
  340. RY (22) C 10             0.00000     3.73013
  341. RY (23) C 10             0.00000     4.13098
  342. RY (24) C 10             0.00000     3.24627
  343. RY (25) C 10             0.00000     4.81817
  344. RY (26) C 10             0.00000     3.62548
  345. RY ( 1) C 11             0.00193     1.92653
  346. RY ( 2) C 11             0.00147     1.52919
  347. RY ( 3) C 11             0.00111     1.06439
  348. RY ( 4) C 11             0.00037     1.67754
  349. RY ( 5) C 11             0.00021     3.14655
  350. RY ( 6) C 11             0.00018     2.99310
  351. RY ( 7) C 11             0.00014     3.67266
  352. RY ( 8) C 11             0.00010     3.24108
  353. RY ( 9) C 11             0.00008     3.08450
  354. RY (10) C 11             0.00007     2.34182
  355. RY (11) C 11             0.00006     2.87495
  356. RY (12) C 11             0.00003     2.60352
  357. RY (13) C 11             0.00003     3.23445
  358. RY (14) C 11             0.00002     3.30902
  359. RY (15) C 11             0.00001     3.55520
  360. RY (16) C 11             0.00001     2.54980
  361. RY (17) C 11             0.00000     4.13551
  362. RY (18) C 11             0.00000     3.08218
  363. RY (19) C 11             0.00000     4.10966
  364. RY (20) C 11             0.00000     8.56954
  365. RY (21) C 11             0.00000     5.19125
  366. RY (22) C 11             0.00000     3.79498
  367. RY (23) C 11             0.00000     4.02575
  368. RY (24) C 11             0.00000     7.35117
  369. RY (25) C 11             0.00000     3.55702
  370. RY (26) C 11             0.00000     6.62716
  371. RY ( 1) C 12             0.00159     1.26216
  372. RY ( 2) C 12             0.00099     1.19873
  373. RY ( 3) C 12             0.00056     1.71609
  374. RY ( 4) C 12             0.00038     2.01302
  375. RY ( 5) C 12             0.00018     2.73724
  376. RY ( 6) C 12             0.00016     2.16793
  377. RY ( 7) C 12             0.00009     1.76742
  378. RY ( 8) C 12             0.00007     2.04322
  379. RY ( 9) C 12             0.00005     1.96656
  380. RY (10) C 12             0.00003     2.82922
  381. RY (11) C 12             0.00002     2.96977
  382. RY (12) C 12             0.00001     3.43003
  383. RY (13) C 12             0.00001     4.60812
  384. RY (14) C 12             0.00001     4.60602
  385. RY (15) C 12             0.00000     2.52301
  386. RY (16) C 12             0.00000     3.62752
  387. RY (17) C 12             0.00000     3.31937
  388. RY (18) C 12             0.00000     3.10296
  389. RY (19) C 12             0.00000     5.42072
  390. RY (20) C 12             0.00000     4.00955
  391. RY (21) C 12             0.00000     8.95830
  392. RY (22) C 12             0.00000     4.22420
  393. RY (23) C 12             0.00000     4.10051
  394. RY (24) C 12             0.00000     4.49594
  395. RY (25) C 12             0.00000     5.05492
  396. RY (26) C 12             0.00000     5.07443
  397. RY ( 1) H 13             0.00036     0.78307
  398. RY ( 2) H 13             0.00006     2.52016
  399. RY ( 3) H 13             0.00003     2.50662
  400. RY ( 4) H 13             0.00001     2.54569
  401. RY ( 5) H 13             0.00001     2.63792
  402. RY ( 1) H 14             0.00075     0.69609
  403. RY ( 2) H 14             0.00006     2.49291
  404. RY ( 3) H 14             0.00002     2.48712
  405. RY ( 4) H 14             0.00002     2.55913
  406. RY ( 5) H 14             0.00001     2.81628
  407. RY ( 1) H 15             0.00037     0.73041
  408. RY ( 2) H 15             0.00007     2.38830
  409. RY ( 3) H 15             0.00005     2.25636
  410. RY ( 4) H 15             0.00002     2.76052
  411. RY ( 5) H 15             0.00000     3.20546
  412. RY ( 1) H 16             0.00040     0.66434
  413. RY ( 2) H 16             0.00007     2.36568
  414. RY ( 3) H 16             0.00005     2.35122
  415. RY ( 4) H 16             0.00004     2.70378
  416. RY ( 5) H 16             0.00000     3.18025
  417. RY ( 1) H 17             0.00054     0.74716
  418. RY ( 2) H 17             0.00007     2.38354
  419. RY ( 3) H 17             0.00005     2.32610
  420. RY ( 4) H 17             0.00003     2.74302
  421. RY ( 5) H 17             0.00000     3.20993
  422. RY ( 1) H 18             0.00057     0.79325
  423. RY ( 2) H 18             0.00004     2.64872
  424. RY ( 3) H 18             0.00004     2.58836
  425. RY ( 4) H 18             0.00001     2.50032
  426. RY ( 5) H 18             0.00001     2.79847
  427. RY ( 1) H 19             0.00067     0.62009
  428. RY ( 2) H 19             0.00005     2.61186
  429. RY ( 3) H 19             0.00004     2.61116
  430. RY ( 4) H 19             0.00001     2.90482
  431. RY ( 5) H 19             0.00001     2.60873
          -------------------------------
                 Total Lewis   55.09124  ( 98.3772%)
           Valence non-Lewis    0.83819  (  1.4968%)
           Rydberg non-Lewis    0.07056  (  0.1260%)
          -------------------------------
               Total unit  1   56.00000  (100.0000%)
              Charge unit  1    0.00000

 $CHOOSE
  ALPHA
   LONE 1 2 4 2 9 3 10 1 11 1 END
   BOND D 1 2 S 2 3 S 2 12 S 3 4 S 3 13 S 3 14 S 4 5 D 5 6 S 5 11 S 6 7 S 6 15
        D 7 8 S 7 16 S 8 9 S 8 10 S 10 11 S 10 17 S 11 12 S 12 18 S 12 19 END
  END
  BETA
   LONE 1 2 4 2 9 3 END
   BOND D 1 2 S 2 3 S 2 12 S 3 4 S 3 13 S 3 14 S 4 5 S 5 6 D 5 11 D 6 7 S 6 15
        S 7 8 S 7 16 S 8 9 D 8 10 S 10 11 S 10 17 S 11 12 S 12 18 S 12 19 END
  END
 $END

 NBO analysis completed in 9.14 CPU seconds (9 wall seconds)
 Maximum scratch memory used by NBO was 2237499 words (17.07 MB)
 Maximum scratch memory used by G16NBO was 382273 words (2.92 MB)

 Opening RunExU unformatted file "/home/rpaton/arbr500/tzvp/fukui/Gau-2306700.EUF"
 Read unf file /home/rpaton/arbr500/tzvp/fukui/Gau-2306700.EUF:
 Label Gaussian matrix elements                                         IVers= 2 NLab= 2 Version=ES64L-G16RevC.01
 Title arbr47_wb97xd_redcreated by GaussianPrep                        
 NAtoms=    19 NBasis=   431 NBsUse=   431 ICharg=    -1 Multip=     2 NE=   113 Len12L=8 Len4L=8 IOpCl= 1 ICGU=112
 GAUSSIAN SCALARS                    NI= 1 NR= 1 NTot=       1 LenBuf=    2 NRI=1 N=    1000
 NPA CHARGES                         NI= 0 NR= 1 NTot=      19 LenBuf= 2048 NRI=1 N=      19
 Recovered energy= -3071.82124179     dipole=     -1.457246274644      0.406587152201      0.072723896378
 Unable to Open any file for archive entry.
 1\1\GINC-DYNAMO\SP\UwB97XD\def2TZVP\C9H7Br1O2(1-,2)\RPATON\29-Sep-2024
 \0\\# pop=(nbo6,hirshfeld) wb97xd/def2tzvp\\arbr47_wb97xd_redcreated b
 y GaussianPrep\\-1,2\O,0,-4.175534,-1.581028,0.487284\C,0,-3.317935,-0
 .822637,0.126449\C,0,-3.437733,0.670273,0.387283\O,0,-2.490127,1.46663
 8,-0.296746\C,0,-1.200551,1.033028,-0.194482\C,0,-0.18853,1.962311,-0.
 021326\C,0,1.126695,1.536791,0.056234\C,0,1.410215,0.183084,-0.027332\
 Br,0,3.205651,-0.407056,0.10295\C,0,0.400452,-0.746576,-0.207247\C,0,-
 0.91619,-0.323723,-0.309332\C,0,-2.057913,-1.259155,-0.586299\H,0,-4.4
 2541,1.006333,0.076188\H,0,-3.349032,0.820197,1.470481\H,0,-0.440022,3
 .011724,0.054228\H,0,1.923928,2.253991,0.193511\H,0,0.636002,-1.800343
 ,-0.282868\H,0,-1.83598,-2.292657,-0.324631\H,0,-2.293051,-1.237529,-1
 .658147\\Version=ES64L-G16RevC.01\State=2-A\HF=-3071.8212418\S2=0.7598
 75\S2-1=0.\S2A=0.750069\RMSD=4.153e-09\Dipole=1.4572462,0.4065873,-0.0
 727239\Quadrupole=-17.8694234,6.5420125,11.327411,-7.1050183,2.0282392
 ,1.9250874\PG=C01 [X(C9H7Br1O2)]\\@
 The archive entry for this job was punched.


 THE CHYMISTS ARE A STRANGE CLASS OF MORTALS IMPELLED
 BY AN ALMOST INSANE IMPULSE TO SEEK THEIR PLEASURE
 AMONG SMOKE AND VAPOR, SOOT AND FLAME, POISONS AND
 POVERTY; YET AMONG ALL THESE EVILS I SEEM TO LIVE
 SO SWEETLY, THAT I MAY DIE IF I WOULD CHANGE PLACES
 WITH THE PERSIAN KING.
   --  JOHANN JOACHIM BECHER, 1635-1682
 ACTA LABORATORII CHYMICA MONACENSIS, 1669
 Job cpu time:       0 days  1 hours 46 minutes 51.5 seconds.
 Elapsed time:       0 days  0 hours  4 minutes 28.8 seconds.
 File lengths (MBytes):  RWF=    180 Int=      0 D2E=      0 Chk=     14 Scr=      1
 Normal termination of Gaussian 16 at Sun Sep 29 00:18:31 2024.
