 Entering Gaussian System, Link 0=/usr/local/Gaussian/G16C/g16/g16
 Input=arbr31_wb97xd.com
 Output=arbr31_wb97xd.log
 Initial command:
 /usr/local/Gaussian/G16C/g16/l1.exe "/home/rpaton/opt/midi/Gau-4034935.inp" -scrdir="/home/rpaton/opt/midi/"
 Entering Link 1 = /usr/local/Gaussian/G16C/g16/l1.exe PID=   4034936.
  
 Copyright (c) 1988-2019, Gaussian, Inc.  All Rights Reserved.
  
 This is part of the Gaussian(R) 16 program.  It is based on
 the Gaussian(R) 09 system (copyright 2009, Gaussian, Inc.),
 the Gaussian(R) 03 system (copyright 2003, Gaussian, Inc.),
 the Gaussian(R) 98 system (copyright 1998, Gaussian, Inc.),
 the Gaussian(R) 94 system (copyright 1995, Gaussian, Inc.),
 the Gaussian 92(TM) system (copyright 1992, Gaussian, Inc.),
 the Gaussian 90(TM) system (copyright 1990, Gaussian, Inc.),
 the Gaussian 88(TM) system (copyright 1988, Gaussian, Inc.),
 the Gaussian 86(TM) system (copyright 1986, Carnegie Mellon
 University), and the Gaussian 82(TM) system (copyright 1983,
 Carnegie Mellon University). Gaussian is a federally registered
 trademark of Gaussian, Inc.
  
 This software contains proprietary and confidential information,
 including trade secrets, belonging to Gaussian, Inc.
  
 This software is provided under written license and may be
 used, copied, transmitted, or stored only in accord with that
 written license.
  
 The following legend is applicable only to US Government
 contracts under FAR:
  
                    RESTRICTED RIGHTS LEGEND
  
 Use, reproduction and disclosure by the US Government is
 subject to restrictions as set forth in subparagraphs (a)
 and (c) of the Commercial Computer Software - Restricted
 Rights clause in FAR 52.227-19.
  
 Gaussian, Inc.
 340 Quinnipiac St., Bldg. 40, Wallingford CT 06492
  
  
 ---------------------------------------------------------------
 Warning -- This program may not be used in any manner that
 competes with the business of Gaussian, Inc. or will provide
 assistance to any competitor of Gaussian, Inc.  The licensee
 of this program is prohibited from giving any competitor of
 Gaussian, Inc. access to this program.  By using this program,
 the user acknowledges that Gaussian, Inc. is engaged in the
 business of creating and licensing software in the field of
 computational chemistry and represents and warrants to the
 licensee that it is not a competitor of Gaussian, Inc. and that
 it will not use this program in any manner prohibited above.
 ---------------------------------------------------------------
  

 Cite this work as:
 Gaussian 16, Revision C.01,
 M. J. Frisch, G. W. Trucks, H. B. Schlegel, G. E. Scuseria, 
 M. A. Robb, J. R. Cheeseman, G. Scalmani, V. Barone, 
 G. A. Petersson, H. Nakatsuji, X. Li, M. Caricato, A. V. Marenich, 
 J. Bloino, B. G. Janesko, R. Gomperts, B. Mennucci, H. P. Hratchian, 
 J. V. Ortiz, A. F. Izmaylov, J. L. Sonnenberg, D. Williams-Young, 
 F. Ding, F. Lipparini, F. Egidi, J. Goings, B. Peng, A. Petrone, 
 T. Henderson, D. Ranasinghe, V. G. Zakrzewski, J. Gao, N. Rega, 
 G. Zheng, W. Liang, M. Hada, M. Ehara, K. Toyota, R. Fukuda, 
 J. Hasegawa, M. Ishida, T. Nakajima, Y. Honda, O. Kitao, H. Nakai, 
 T. Vreven, K. Throssell, J. A. Montgomery, Jr., J. E. Peralta, 
 F. Ogliaro, M. J. Bearpark, J. J. Heyd, E. N. Brothers, K. N. Kudin, 
 V. N. Staroverov, T. A. Keith, R. Kobayashi, J. Normand, 
 K. Raghavachari, A. P. Rendell, J. C. Burant, S. S. Iyengar, 
 J. Tomasi, M. Cossi, J. M. Millam, M. Klene, C. Adamo, R. Cammi, 
 J. W. Ochterski, R. L. Martin, K. Morokuma, O. Farkas, 
 J. B. Foresman, and D. J. Fox, Gaussian, Inc., Wallingford CT, 2019.
 
 ******************************************
 Gaussian 16:  ES64L-G16RevC.01  3-Jul-2019
                25-Sep-2024 
 ******************************************
 %nprocshared=24
 Will use up to   24 processors via shared memory.
 %mem=96GB
 -----------------------
 # opt freq wb97xd/midix
 -----------------------
 1/18=20,19=15,26=3,38=1/1,3;
 2/9=110,12=2,17=6,18=5,40=1/2;
 3/5=20,11=2,25=1,30=1,71=1,74=-58/1,2,3;
 4//1;
 5/5=2,38=5/2;
 6/7=2,8=2,9=2,10=2,28=1/1;
 7//1,2,3,16;
 1/18=20,19=15,26=3/3(2);
 2/9=110/2;
 99//99;
 2/9=110/2;
 3/5=20,11=2,25=1,30=1,71=1,74=-58/1,2,3;
 4/5=5,16=3,69=1/1;
 5/5=2,38=5/2;
 7//1,2,3,16;
 1/18=20,19=15,26=3/3(-5);
 2/9=110/2;
 6/7=2,8=2,9=2,10=2,19=2,28=1/1;
 99/9=1/99;
 --------------------------
 arbr31_rdkit_conf_1_wb97xd
 --------------------------
 Symbolic Z-matrix:
 Charge =  0 Multiplicity = 1
 O                    -1.769     2.3883    0.3745 
 C                    -1.4398    1.2312    0.1845 
 C                    -2.3659    0.0596   -0.0282 
 C                    -1.4426   -1.156    -0.2185 
 C                    -0.0603   -0.5975   -0.1018 
 C                     1.1423   -1.2815   -0.1978 
 C                     2.3305   -0.5553   -0.056 
 Br                    3.9892   -1.4572   -0.1814 
 C                     2.3161    0.8305    0.1777 
 C                     1.1017    1.5125    0.2731 
 C                    -0.0589    0.7732    0.1296 
 H                    -3.0084   -0.0694    0.8478 
 H                    -2.9798    0.2287   -0.9179 
 H                    -1.5986   -1.6107   -1.2022 
 H                    -1.6271   -1.9075    0.5561 
 H                     1.1591   -2.3522   -0.3783 
 H                     3.2479    1.3809    0.2857 
 H                     1.0636    2.5823    0.4531 
 

 GradGradGradGradGradGradGradGradGradGradGradGradGradGradGradGradGradGrad
 Berny optimization.
 Initialization pass.
                           ----------------------------
                           !    Initial Parameters    !
                           ! (Angstroms and Degrees)  !
 --------------------------                            --------------------------
 ! Name  Definition              Value          Derivative Info.                !
 --------------------------------------------------------------------------------
 ! R1    R(1,2)                  1.2179         estimate D2E/DX2                !
 ! R2    R(2,3)                  1.5085         estimate D2E/DX2                !
 ! R3    R(2,11)                 1.4559         estimate D2E/DX2                !
 ! R4    R(3,4)                  1.5383         estimate D2E/DX2                !
 ! R5    R(3,12)                 1.094          estimate D2E/DX2                !
 ! R6    R(3,13)                 1.0941         estimate D2E/DX2                !
 ! R7    R(4,5)                  1.4954         estimate D2E/DX2                !
 ! R8    R(4,14)                 1.0949         estimate D2E/DX2                !
 ! R9    R(4,15)                 1.0949         estimate D2E/DX2                !
 ! R10   R(5,6)                  1.3868         estimate D2E/DX2                !
 ! R11   R(5,11)                 1.3901         estimate D2E/DX2                !
 ! R12   R(6,7)                  1.3997         estimate D2E/DX2                !
 ! R13   R(6,16)                 1.0859         estimate D2E/DX2                !
 ! R14   R(7,8)                  1.8922         estimate D2E/DX2                !
 ! R15   R(7,9)                  1.4054         estimate D2E/DX2                !
 ! R16   R(9,10)                 1.3961         estimate D2E/DX2                !
 ! R17   R(9,17)                 1.0876         estimate D2E/DX2                !
 ! R18   R(10,11)                1.3835         estimate D2E/DX2                !
 ! R19   R(10,18)                1.0855         estimate D2E/DX2                !
 ! A1    A(1,2,3)              126.4367         estimate D2E/DX2                !
 ! A2    A(1,2,11)             124.1334         estimate D2E/DX2                !
 ! A3    A(3,2,11)             109.4299         estimate D2E/DX2                !
 ! A4    A(2,3,4)              105.2305         estimate D2E/DX2                !
 ! A5    A(2,3,12)             109.8302         estimate D2E/DX2                !
 ! A6    A(2,3,13)             109.8219         estimate D2E/DX2                !
 ! A7    A(4,3,12)             111.0005         estimate D2E/DX2                !
 ! A8    A(4,3,13)             110.9968         estimate D2E/DX2                !
 ! A9    A(12,3,13)            109.8669         estimate D2E/DX2                !
 ! A10   A(3,4,5)              104.4789         estimate D2E/DX2                !
 ! A11   A(3,4,14)             110.7202         estimate D2E/DX2                !
 ! A12   A(3,4,15)             110.7151         estimate D2E/DX2                !
 ! A13   A(5,4,14)             110.9112         estimate D2E/DX2                !
 ! A14   A(5,4,15)             110.9094         estimate D2E/DX2                !
 ! A15   A(14,4,15)            109.0608         estimate D2E/DX2                !
 ! A16   A(4,5,6)              127.7309         estimate D2E/DX2                !
 ! A17   A(4,5,11)             112.469          estimate D2E/DX2                !
 ! A18   A(6,5,11)             119.8002         estimate D2E/DX2                !
 ! A19   A(5,6,7)              118.2425         estimate D2E/DX2                !
 ! A20   A(5,6,16)             120.7444         estimate D2E/DX2                !
 ! A21   A(7,6,16)             121.0131         estimate D2E/DX2                !
 ! A22   A(6,7,8)              119.3482         estimate D2E/DX2                !
 ! A23   A(6,7,9)              121.3125         estimate D2E/DX2                !
 ! A24   A(8,7,9)              119.3393         estimate D2E/DX2                !
 ! A25   A(7,9,10)             120.1301         estimate D2E/DX2                !
 ! A26   A(7,9,17)             120.4465         estimate D2E/DX2                !
 ! A27   A(10,9,17)            119.4234         estimate D2E/DX2                !
 ! A28   A(9,10,11)            117.4892         estimate D2E/DX2                !
 ! A29   A(9,10,18)            121.5546         estimate D2E/DX2                !
 ! A30   A(11,10,18)           120.9562         estimate D2E/DX2                !
 ! A31   A(2,11,5)             108.3918         estimate D2E/DX2                !
 ! A32   A(2,11,10)            128.5826         estimate D2E/DX2                !
 ! A33   A(5,11,10)            123.0256         estimate D2E/DX2                !
 ! D1    D(1,2,3,4)            179.9996         estimate D2E/DX2                !
 ! D2    D(1,2,3,12)           -60.4612         estimate D2E/DX2                !
 ! D3    D(1,2,3,13)            60.4691         estimate D2E/DX2                !
 ! D4    D(11,2,3,4)            -0.0057         estimate D2E/DX2                !
 ! D5    D(11,2,3,12)          119.5335         estimate D2E/DX2                !
 ! D6    D(11,2,3,13)         -119.5362         estimate D2E/DX2                !
 ! D7    D(1,2,11,5)           179.9988         estimate D2E/DX2                !
 ! D8    D(1,2,11,10)           -0.0081         estimate D2E/DX2                !
 ! D9    D(3,2,11,5)             0.0039         estimate D2E/DX2                !
 ! D10   D(3,2,11,10)          179.9971         estimate D2E/DX2                !
 ! D11   D(2,3,4,5)              0.0052         estimate D2E/DX2                !
 ! D12   D(2,3,4,14)          -119.4537         estimate D2E/DX2                !
 ! D13   D(2,3,4,15)           119.4594         estimate D2E/DX2                !
 ! D14   D(12,3,4,5)          -118.7529         estimate D2E/DX2                !
 ! D15   D(12,3,4,14)          121.7883         estimate D2E/DX2                !
 ! D16   D(12,3,4,15)            0.7013         estimate D2E/DX2                !
 ! D17   D(13,3,4,5)           118.7514         estimate D2E/DX2                !
 ! D18   D(13,3,4,14)           -0.7075         estimate D2E/DX2                !
 ! D19   D(13,3,4,15)         -121.7944         estimate D2E/DX2                !
 ! D20   D(3,4,5,6)            179.9994         estimate D2E/DX2                !
 ! D21   D(3,4,5,11)            -0.0031         estimate D2E/DX2                !
 ! D22   D(14,4,5,6)           -60.6707         estimate D2E/DX2                !
 ! D23   D(14,4,5,11)          119.3269         estimate D2E/DX2                !
 ! D24   D(15,4,5,6)            60.6763         estimate D2E/DX2                !
 ! D25   D(15,4,5,11)         -119.3262         estimate D2E/DX2                !
 ! D26   D(4,5,6,7)            179.9968         estimate D2E/DX2                !
 ! D27   D(4,5,6,16)            -0.0005         estimate D2E/DX2                !
 ! D28   D(11,5,6,7)            -0.0006         estimate D2E/DX2                !
 ! D29   D(11,5,6,16)         -179.9979         estimate D2E/DX2                !
 ! D30   D(4,5,11,2)            -0.0004         estimate D2E/DX2                !
 ! D31   D(4,5,11,10)         -179.994          estimate D2E/DX2                !
 ! D32   D(6,5,11,2)           179.9973         estimate D2E/DX2                !
 ! D33   D(6,5,11,10)            0.0037         estimate D2E/DX2                !
 ! D34   D(5,6,7,8)            179.9999         estimate D2E/DX2                !
 ! D35   D(5,6,7,9)              0.0009         estimate D2E/DX2                !
 ! D36   D(16,6,7,8)            -0.0027         estimate D2E/DX2                !
 ! D37   D(16,6,7,9)           179.9982         estimate D2E/DX2                !
 ! D38   D(6,7,9,10)            -0.0042         estimate D2E/DX2                !
 ! D39   D(6,7,9,17)           179.9987         estimate D2E/DX2                !
 ! D40   D(8,7,9,10)           179.9967         estimate D2E/DX2                !
 ! D41   D(8,7,9,17)            -0.0004         estimate D2E/DX2                !
 ! D42   D(7,9,10,11)            0.007          estimate D2E/DX2                !
 ! D43   D(7,9,10,18)          179.9983         estimate D2E/DX2                !
 ! D44   D(17,9,10,11)        -179.9958         estimate D2E/DX2                !
 ! D45   D(17,9,10,18)          -0.0046         estimate D2E/DX2                !
 ! D46   D(9,10,11,2)         -179.9991         estimate D2E/DX2                !
 ! D47   D(9,10,11,5)           -0.0069         estimate D2E/DX2                !
 ! D48   D(18,10,11,2)           0.0096         estimate D2E/DX2                !
 ! D49   D(18,10,11,5)        -179.9982         estimate D2E/DX2                !
 --------------------------------------------------------------------------------
 Trust Radius=3.00D-01 FncErr=1.00D-07 GrdErr=1.00D-06 EigMax=2.50D+02 EigMin=1.00D-04
 Number of steps in this run=    108 maximum allowed number of steps=    108.
 GradGradGradGradGradGradGradGradGradGradGradGradGradGradGradGradGradGrad

                          Input orientation:                          
 ---------------------------------------------------------------------
 Center     Atomic      Atomic             Coordinates (Angstroms)
 Number     Number       Type             X           Y           Z
 ---------------------------------------------------------------------
      1          8           0       -1.769000    2.388300    0.374500
      2          6           0       -1.439800    1.231200    0.184500
      3          6           0       -2.365900    0.059600   -0.028200
      4          6           0       -1.442600   -1.156000   -0.218500
      5          6           0       -0.060300   -0.597500   -0.101800
      6          6           0        1.142300   -1.281500   -0.197800
      7          6           0        2.330500   -0.555300   -0.056000
      8         35           0        3.989200   -1.457200   -0.181400
      9          6           0        2.316100    0.830500    0.177700
     10          6           0        1.101700    1.512500    0.273100
     11          6           0       -0.058900    0.773200    0.129600
     12          1           0       -3.008400   -0.069400    0.847800
     13          1           0       -2.979800    0.228700   -0.917900
     14          1           0       -1.598600   -1.610700   -1.202200
     15          1           0       -1.627100   -1.907500    0.556100
     16          1           0        1.159100   -2.352200   -0.378300
     17          1           0        3.247900    1.380900    0.285700
     18          1           0        1.063600    2.582300    0.453100
 ---------------------------------------------------------------------
                    Distance matrix (angstroms):
                    1          2          3          4          5
     1  O    0.000000
     2  C    1.217930   0.000000
     3  C    2.437478   1.508492   0.000000
     4  C    3.608358   2.420979   1.538304   0.000000
     5  C    3.472970   2.308491   2.398539   1.495424   0.000000
     6  C    4.719177   3.623128   3.759625   2.588028   1.386838
     7  C    5.065176   4.179065   4.736565   3.824072   2.391611
     8  Br   6.946493   6.069219   6.535400   5.440271   4.140516
     9  C    4.376473   3.777220   4.749506   4.269775   2.786500
    10  C    3.003036   2.558555   3.771730   3.719681   2.437805
    11  C    2.364945   1.455906   2.419995   2.399502   1.390096
    12  H    2.792922   2.142903   1.093994   2.183901   3.141962
    13  H    2.792885   2.142870   1.094091   2.183927   3.141991
    14  H    4.301979   3.166157   2.181038   1.094876   2.145652
    15  H    4.301978   3.166166   2.180989   1.094896   2.145646
    16  H    5.622528   4.462262   4.285437   2.867974   2.154614
    17  H    5.117815   4.691181   5.775735   5.356386   3.874069
    18  H    2.840323   2.857381   4.284523   4.550491   3.417922
                    6          7          8          9         10
     6  C    0.000000
     7  C    1.399747   0.000000
     8  Br   2.852364   1.892204   0.000000
     9  C    2.445271   1.405441   2.856884   0.000000
    10  C    2.833696   2.427767   4.166935   1.396063   0.000000
    11  C    2.402470   2.740181   4.632334   2.376178   1.383528
    12  H    4.448683   5.436617   7.207749   5.441429   4.441352
    13  H    4.448703   5.436618   7.207749   5.441421   4.441314
    14  H    2.937639   4.226756   5.682350   4.815439   4.384348
    15  H    2.937655   4.226785   5.682385   4.815460   4.384386
    16  H    1.085938   2.169079   2.974771   3.431816   3.919633
    17  H    3.428658   2.169620   2.970273   1.087592   2.150268
    18  H    3.919032   3.421805   5.027851   2.171038   1.085506
                   11         12         13         14         15
    11  C    0.000000
    12  H    3.150450   0.000000
    13  H    3.150459   1.790915   0.000000
    14  H    3.134860   2.926712   2.317743   0.000000
    15  H    3.134853   2.317691   2.926743   1.783402   0.000000
    16  H    3.392582   4.907398   4.907413   2.972128   2.972166
    17  H    3.365797   6.446752   6.446741   5.886602   5.886622
    18  H    2.153486   4.875293   4.875260   5.235320   5.235339
                   16         17         18
    16  H    0.000000
    17  H    4.328974   0.000000
    18  H    5.004961   2.498510   0.000000
 Stoichiometry    C9H7BrO
 Framework group  C1[X(C9H7BrO)]
 Deg. of freedom    48
 Full point group                 C1      NOp   1
 Largest Abelian subgroup         C1      NOp   1
 Largest concise Abelian subgroup C1      NOp   1
                         Standard orientation:                         
 ---------------------------------------------------------------------
 Center     Atomic      Atomic             Coordinates (Angstroms)
 Number     Number       Type             X           Y           Z
 ---------------------------------------------------------------------
      1          8           0        3.806435    1.391708    0.000005
      2          6           0        3.068979    0.422424    0.000020
      3          6           0        3.492322   -1.025446   -0.000029
      4          6           0        2.181108   -1.829869    0.000027
      5          6           0        1.105249   -0.791206   -0.000026
      6          6           0       -0.267143   -0.990851   -0.000017
      7          6           0       -1.100126    0.134064   -0.000006
      8         35           0       -2.977528   -0.102147    0.000005
      9          6           0       -0.569817    1.435616   -0.000023
     10          6           0        0.812788    1.628993    0.000038
     11          6           0        1.615246    0.501957   -0.000036
     12          1           0        4.083412   -1.239245   -0.895421
     13          1           0        4.083414   -1.239184    0.895494
     14          1           0        2.114289   -2.461668    0.891722
     15          1           0        2.114324   -2.461690   -0.891679
     16          1           0       -0.682145   -1.994362    0.000025
     17          1           0       -1.230173    2.299783   -0.000036
     18          1           0        1.247242    2.623766   -0.000001
 ---------------------------------------------------------------------
 Rotational constants (GHZ):           2.5245418           0.3705370           0.3244480
 Standard basis: MIDIx (5D, 7F)
 There are   139 symmetry adapted cartesian basis functions of A   symmetry.
 There are   136 symmetry adapted basis functions of A   symmetry.
   136 basis functions,   240 primitive gaussians,   139 cartesian basis functions
    52 alpha electrons       52 beta electrons
       nuclear repulsion energy       789.8095873077 Hartrees.
 NAtoms=   18 NActive=   18 NUniq=   18 SFac= 1.00D+00 NAtFMM=   60 NAOKFM=F Big=F
 Integral buffers will be    131072 words long.
 Raffenetti 2 integral format.
 Two-electron integral symmetry is turned on.
 Nuclear repulsion after empirical dispersion term =      789.7990595241 Hartrees.
 One-electron integrals computed using PRISM.
 NBasis=   136 RedAO= T EigKep=  1.15D-03  NBF=   136
 NBsUse=   136 1.00D-06 EigRej= -1.00D+00 NBFU=   136
 ExpMin= 1.47D-01 ExpMax= 6.10D+03 ExpMxC= 6.10D+03 IAcc=3 IRadAn=         5 AccDes= 0.00D+00
 Harris functional with IExCor= 4639 and IRadAn=       5 diagonalized for initial guess.
 HarFok:  IExCor= 4639 AccDes= 0.00D+00 IRadAn=         5 IDoV= 1 UseB2=F ITyADJ=14
 ICtDFT=  3500011 ScaDFX=  1.000000  1.000000  1.000000  1.000000
 FoFCou: FMM=F IPFlag=           0 FMFlag=      100000 FMFlg1=           0
         NFxFlg=           0 DoJE=T BraDBF=F KetDBF=T FulRan=T
         wScrn=  0.000000 ICntrl=       500 IOpCl=  0 I1Cent=   200000004 NGrid=           0
         NMat0=    1 NMatS0=      1 NMatT0=    0 NMatD0=    1 NMtDS0=    0 NMtDT0=    0
 Petite list used in FoFCou.
 Requested convergence on RMS density matrix=1.00D-08 within 128 cycles.
 Requested convergence on MAX density matrix=1.00D-06.
 Requested convergence on             energy=1.00D-06.
 No special actions if energy rises.
 Integral accuracy reduced to 1.0D-05 until final iterations.
 Initial convergence to 1.0D-05 achieved.  Increase integral accuracy.
 SCF Done:  E(RwB97XD) =  -2981.84752303     A.U. after   16 cycles
            NFock= 16  Conv=0.39D-08     -V/T= 2.0021

 **********************************************************************

            Population analysis using the SCF Density.

 **********************************************************************

 Orbital symmetries:
       Occupied  (A) (A) (A) (A) (A) (A) (A) (A) (A) (A) (A) (A)
                 (A) (A) (A) (A) (A) (A) (A) (A) (A) (A) (A) (A)
                 (A) (A) (A) (A) (A) (A) (A) (A) (A) (A) (A) (A)
                 (A) (A) (A) (A) (A) (A) (A) (A) (A) (A) (A) (A)
                 (A) (A) (A) (A)
       Virtual   (A) (A) (A) (A) (A) (A) (A) (A) (A) (A) (A) (A)
                 (A) (A) (A) (A) (A) (A) (A) (A) (A) (A) (A) (A)
                 (A) (A) (A) (A) (A) (A) (A) (A) (A) (A) (A) (A)
                 (A) (A) (A) (A) (A) (A) (A) (A) (A) (A) (A) (A)
                 (A) (A) (A) (A) (A) (A) (A) (A) (A) (A) (A) (A)
                 (A) (A) (A) (A) (A) (A) (A) (A) (A) (A) (A) (A)
                 (A) (A) (A) (A) (A) (A) (A) (A) (A) (A) (A) (A)
 The electronic state is 1-A.
 Alpha  occ. eigenvalues -- -480.15565 -62.58960 -56.17859 -56.17428 -56.17419
 Alpha  occ. eigenvalues --  -19.13506 -10.31808 -10.31072 -10.26660 -10.26128
 Alpha  occ. eigenvalues --  -10.26053 -10.26024 -10.25398 -10.24702 -10.24416
 Alpha  occ. eigenvalues --   -8.89812  -6.68303  -6.66871  -6.66838  -2.78611
 Alpha  occ. eigenvalues --   -2.78101  -2.78098  -2.76905  -2.76900  -1.14141
 Alpha  occ. eigenvalues --   -1.01247  -0.95695  -0.90616  -0.87089  -0.83462
 Alpha  occ. eigenvalues --   -0.78530  -0.73501  -0.68947  -0.66295  -0.59224
 Alpha  occ. eigenvalues --   -0.58428  -0.57191  -0.55566  -0.53756  -0.51764
 Alpha  occ. eigenvalues --   -0.49317  -0.48970  -0.48968  -0.46734  -0.45022
 Alpha  occ. eigenvalues --   -0.44589  -0.43858  -0.39182  -0.37046  -0.34480
 Alpha  occ. eigenvalues --   -0.32141  -0.32000
 Alpha virt. eigenvalues --    0.01095   0.05071   0.08408   0.12064   0.17333
 Alpha virt. eigenvalues --    0.19236   0.20389   0.21756   0.23884   0.25982
 Alpha virt. eigenvalues --    0.26365   0.27393   0.30138   0.30717   0.34925
 Alpha virt. eigenvalues --    0.36610   0.37846   0.41876   0.43841   0.47034
 Alpha virt. eigenvalues --    0.50033   0.54131   0.55266   0.58705   0.59886
 Alpha virt. eigenvalues --    0.61082   0.63506   0.63684   0.64348   0.66738
 Alpha virt. eigenvalues --    0.67563   0.70300   0.71180   0.71547   0.74953
 Alpha virt. eigenvalues --    0.75484   0.80299   0.82170   0.83895   0.85038
 Alpha virt. eigenvalues --    0.87302   0.88301   0.90555   0.92868   0.93642
 Alpha virt. eigenvalues --    0.95360   0.97155   0.97396   0.98070   0.98419
 Alpha virt. eigenvalues --    0.99891   1.00151   1.02099   1.02935   1.04532
 Alpha virt. eigenvalues --    1.04618   1.04765   1.08145   1.08258   1.12178
 Alpha virt. eigenvalues --    1.12438   1.14017   1.18145   1.21130   1.26133
 Alpha virt. eigenvalues --    1.28625   1.31021   1.36554   1.38327   1.51008
 Alpha virt. eigenvalues --    1.56310   1.59037   1.65039   1.67353   1.69152
 Alpha virt. eigenvalues --    1.75178   1.81340   1.89933   1.93465   1.98867
 Alpha virt. eigenvalues --    2.01949   2.11989   2.34460   3.07297
          Condensed to atoms (all electrons):
               1          2          3          4          5          6
     1  O    8.149962   0.550998  -0.067821   0.003282   0.002375  -0.000004
     2  C    0.550998   4.503489   0.316754  -0.070721  -0.015244   0.001778
     3  C   -0.067821   0.316754   5.549383   0.218696  -0.036550   0.003040
     4  C    0.003282  -0.070721   0.218696   5.229798   0.265374   0.001200
     5  C    0.002375  -0.015244  -0.036550   0.265374   5.173414   0.454262
     6  C   -0.000004   0.001778   0.003040   0.001200   0.454262   4.908003
     7  C   -0.000012   0.000353  -0.000344   0.000514  -0.018989   0.483495
     8  Br  -0.000000   0.000001   0.000000  -0.000023   0.002258  -0.041778
     9  C    0.000279   0.002001   0.000293   0.000318  -0.036063  -0.037010
    10  C   -0.006256   0.001679  -0.001296   0.001442  -0.026739  -0.022319
    11  C   -0.092338   0.235937  -0.237420  -0.000978   0.386953  -0.027037
    12  H    0.001785  -0.025856   0.370390  -0.025010   0.001276  -0.000080
    13  H    0.001785  -0.025868   0.370379  -0.025020   0.001277  -0.000080
    14  H   -0.000035   0.002564  -0.026641   0.385873  -0.026351  -0.004805
    15  H   -0.000035   0.002566  -0.026656   0.385876  -0.026354  -0.004806
    16  H    0.000000  -0.000049   0.000158  -0.004281  -0.017744   0.390270
    17  H    0.000000  -0.000015   0.000001   0.000003   0.000189   0.002222
    18  H    0.007818  -0.001213   0.000718  -0.000193   0.003435  -0.000015
               7          8          9         10         11         12
     1  O   -0.000012  -0.000000   0.000279  -0.006256  -0.092338   0.001785
     2  C    0.000353   0.000001   0.002001   0.001679   0.235937  -0.025856
     3  C   -0.000344   0.000000   0.000293  -0.001296  -0.237420   0.370390
     4  C    0.000514  -0.000023   0.000318   0.001442  -0.000978  -0.025010
     5  C   -0.018989   0.002258  -0.036063  -0.026739   0.386953   0.001276
     6  C    0.483495  -0.041778  -0.037010  -0.022319  -0.027037  -0.000080
     7  C    5.039230   0.216876   0.455676  -0.019178  -0.051798   0.000007
     8  Br   0.216876  34.915346  -0.039921   0.001633   0.000402  -0.000000
     9  C    0.455676  -0.039921   5.000594   0.472382  -0.031580  -0.000002
    10  C   -0.019178   0.001633   0.472382   4.900323   0.435923  -0.000001
    11  C   -0.051798   0.000402  -0.031580   0.435923   5.531213   0.008334
    12  H    0.000007  -0.000000  -0.000002  -0.000001   0.008334   0.450246
    13  H    0.000007  -0.000000  -0.000002  -0.000001   0.008335  -0.012408
    14  H    0.000049  -0.000000   0.000010  -0.000063  -0.000629   0.001600
    15  H    0.000049  -0.000000   0.000010  -0.000063  -0.000629  -0.005579
    16  H   -0.018657   0.000650   0.002302  -0.000076   0.002498  -0.000005
    17  H   -0.021327   0.000628   0.394481  -0.020544   0.003287  -0.000000
    18  H    0.001808  -0.000043  -0.014514   0.380416  -0.022359  -0.000015
              13         14         15         16         17         18
     1  O    0.001785  -0.000035  -0.000035   0.000000   0.000000   0.007818
     2  C   -0.025868   0.002564   0.002566  -0.000049  -0.000015  -0.001213
     3  C    0.370379  -0.026641  -0.026656   0.000158   0.000001   0.000718
     4  C   -0.025020   0.385873   0.385876  -0.004281   0.000003  -0.000193
     5  C    0.001277  -0.026351  -0.026354  -0.017744   0.000189   0.003435
     6  C   -0.000080  -0.004805  -0.004806   0.390270   0.002222  -0.000015
     7  C    0.000007   0.000049   0.000049  -0.018657  -0.021327   0.001808
     8  Br  -0.000000  -0.000000  -0.000000   0.000650   0.000628  -0.000043
     9  C   -0.000002   0.000010   0.000010   0.002302   0.394481  -0.014514
    10  C   -0.000001  -0.000063  -0.000063  -0.000076  -0.020544   0.380416
    11  C    0.008335  -0.000629  -0.000629   0.002498   0.003287  -0.022359
    12  H   -0.012408   0.001600  -0.005579  -0.000005  -0.000000  -0.000015
    13  H    0.450283  -0.005580   0.001601  -0.000005  -0.000000  -0.000015
    14  H   -0.005580   0.473090  -0.021324   0.000983  -0.000000   0.000005
    15  H    0.001601  -0.021324   0.473103   0.000983  -0.000000   0.000005
    16  H   -0.000005   0.000983   0.000983   0.433269  -0.000048   0.000007
    17  H   -0.000000  -0.000000  -0.000000  -0.000048   0.428349  -0.003171
    18  H   -0.000015   0.000005   0.000005   0.000007  -0.003171   0.424446
 Mulliken charges:
               1
     1  O   -0.551783
     2  C    0.520845
     3  C   -0.433084
     4  C   -0.366150
     5  C   -0.086780
     6  C   -0.106335
     7  C   -0.067760
     8  Br  -0.056029
     9  C   -0.169254
    10  C   -0.097261
    11  C   -0.148114
    12  H    0.235319
    13  H    0.235310
    14  H    0.221255
    15  H    0.221254
    16  H    0.209744
    17  H    0.215943
    18  H    0.222879
 Sum of Mulliken charges =  -0.00000
 Mulliken charges with hydrogens summed into heavy atoms:
               1
     1  O   -0.551783
     2  C    0.520845
     3  C    0.037545
     4  C    0.076359
     5  C   -0.086780
     6  C    0.103409
     7  C   -0.067760
     8  Br  -0.056029
     9  C    0.046690
    10  C    0.125618
    11  C   -0.148114
 Electronic spatial extent (au):  <R**2>=           2971.0700
 Charge=             -0.0000 electrons
 Dipole moment (field-independent basis, Debye):
    X=             -0.4771    Y=             -2.1179    Z=              0.0001  Tot=              2.1710
 Quadrupole moment (field-independent basis, Debye-Ang):
   XX=            -82.2495   YY=            -70.5611   ZZ=            -76.3616
   XY=             -9.7891   XZ=              0.0000   YZ=             -0.0002
 Traceless Quadrupole moment (field-independent basis, Debye-Ang):
   XX=             -5.8588   YY=              5.8296   ZZ=              0.0292
   XY=             -9.7891   XZ=              0.0000   YZ=             -0.0002
 Octapole moment (field-independent basis, Debye-Ang**2):
  XXX=           -127.7421  YYY=              2.7789  ZZZ=              0.0004  XYY=            -34.5565
  XXY=            -37.7830  XXZ=             -0.0002  XZZ=            -21.1262  YZZ=             -2.9555
  YYZ=             -0.0001  XYZ=              0.0003
 Hexadecapole moment (field-independent basis, Debye-Ang**3):
 XXXX=          -2774.6424 YYYY=           -566.3979 ZZZZ=            -88.8620 XXXY=           -112.6251
 XXXZ=             -0.0035 YYYX=             13.0424 YYYZ=             -0.0014 ZZZX=             -0.0002
 ZZZY=             -0.0004 XXYY=           -575.9542 XXZZ=           -444.9686 YYZZ=           -115.1197
 XXYZ=              0.0011 YYXZ=             -0.0012 ZZXY=              3.2869
 N-N= 7.897990595241D+02 E-N=-8.678972327630D+03  KE= 2.975729958587D+03
 Calling FoFJK, ICntrl=      2127 FMM=F ISym2X=0 I1Cent= 0 IOpClX= 0 NMat=1 NMatS=1 NMatT=0.
 ***** Axes restored to original set *****
 -------------------------------------------------------------------
 Center     Atomic                   Forces (Hartrees/Bohr)
 Number     Number              X              Y              Z
 -------------------------------------------------------------------
      1        8          -0.005286471    0.003386253    0.000480428
      2        6          -0.003727672    0.033977977    0.005697429
      3        6          -0.004151173   -0.010214738   -0.001861225
      4        6          -0.004806301   -0.007572921   -0.001332973
      5        6           0.021438430    0.001928557    0.000671477
      6        6           0.004990867    0.003273632    0.000629286
      7        6          -0.008191101    0.005530366    0.000806107
      8       35           0.000691509   -0.000172509   -0.000017815
      9        6          -0.001565789    0.000326644    0.000020624
     10        6           0.006785415   -0.010462531   -0.001635224
     11        6           0.000928160   -0.014792715   -0.002501288
     12        1          -0.004298340    0.003305668   -0.000826234
     13        1          -0.004312436    0.002860029    0.001779692
     14        1           0.000404167   -0.004277329   -0.000049365
     15        1           0.000429266   -0.004055854   -0.001355221
     16        1           0.002087104   -0.000609669   -0.000067823
     17        1           0.000220075   -0.003013759   -0.000505512
     18        1          -0.001635712    0.000582901    0.000067638
 -------------------------------------------------------------------
 Cartesian Forces:  Max     0.033977977 RMS     0.006868049

 GradGradGradGradGradGradGradGradGradGradGradGradGradGradGradGradGradGrad
 Berny optimization.
 FormGI is forming the generalized inverse of G from B-inverse, IUseBI=4.
 Internal  Forces:  Max     0.018350753 RMS     0.004398561
 Search for a local minimum.
 Step number   1 out of a maximum of  108
 All quantities printed in internal units (Hartrees-Bohrs-Radians)
 Mixed Optimization -- RFO/linear search
 Second derivative matrix not updated -- first step.
 ITU=  0
     Eigenvalues ---    0.00481   0.00916   0.01507   0.01564   0.01960
     Eigenvalues ---    0.02051   0.02085   0.02091   0.02183   0.02210
     Eigenvalues ---    0.02229   0.04105   0.04165   0.05673   0.05997
     Eigenvalues ---    0.08268   0.08303   0.08377   0.10700   0.16000
     Eigenvalues ---    0.16000   0.16000   0.18637   0.22423   0.22833
     Eigenvalues ---    0.23545   0.24582   0.24842   0.25000   0.25000
     Eigenvalues ---    0.28108   0.30472   0.32292   0.34253   0.34255
     Eigenvalues ---    0.34344   0.34355   0.35092   0.35286   0.35337
     Eigenvalues ---    0.36401   0.40785   0.42641   0.45004   0.45845
     Eigenvalues ---    0.47252   0.47930   0.96306
 RFO step:  Lambda=-7.09921843D-03 EMin= 4.80708411D-03
 Linear search not attempted -- first point.
 Iteration  1 RMS(Cart)=  0.02530019 RMS(Int)=  0.00028180
 Iteration  2 RMS(Cart)=  0.00044157 RMS(Int)=  0.00014368
 Iteration  3 RMS(Cart)=  0.00000012 RMS(Int)=  0.00014368
 Variable       Old X    -DE/DX   Delta X   Delta X   Delta X     New X
                                 (Linear)    (Quad)   (Total)
    R1        2.30155   0.00472   0.00000   0.00487   0.00487   2.30642
    R2        2.85064   0.01681   0.00000   0.05186   0.05203   2.90267
    R3        2.75126   0.01835   0.00000   0.04998   0.05016   2.80142
    R4        2.90697   0.01672   0.00000   0.05414   0.05406   2.96104
    R5        2.06735   0.00147   0.00000   0.00420   0.00420   2.07155
    R6        2.06753   0.00141   0.00000   0.00404   0.00404   2.07157
    R7        2.82594   0.01269   0.00000   0.03687   0.03665   2.86259
    R8        2.06902   0.00176   0.00000   0.00504   0.00504   2.07406
    R9        2.06905   0.00175   0.00000   0.00501   0.00501   2.07407
   R10        2.62074   0.00097   0.00000   0.00251   0.00248   2.62323
   R11        2.62690   0.00066   0.00000   0.00353   0.00348   2.63039
   R12        2.64514  -0.00725   0.00000  -0.01608  -0.01612   2.62902
   R13        2.05213   0.00065   0.00000   0.00179   0.00179   2.05392
   R14        3.57575   0.00069   0.00000   0.00357   0.00357   3.57931
   R15        2.65590  -0.00888   0.00000  -0.02052  -0.02054   2.63536
   R16        2.63818  -0.00517   0.00000  -0.01152  -0.01150   2.62668
   R17        2.05525  -0.00139   0.00000  -0.00387  -0.00387   2.05138
   R18        2.61449   0.00015   0.00000   0.00075   0.00079   2.61528
   R19        2.05131   0.00064   0.00000   0.00178   0.00178   2.05309
    A1        2.20674   0.00130   0.00000   0.00505   0.00486   2.21159
    A2        2.16654   0.01088   0.00000   0.04233   0.04214   2.20867
    A3        1.90991  -0.01218   0.00000  -0.04739  -0.04699   1.86292
    A4        1.83662   0.00384   0.00000   0.01831   0.01829   1.85491
    A5        1.91690  -0.00235   0.00000  -0.01456  -0.01515   1.90175
    A6        1.91675  -0.00234   0.00000  -0.01444  -0.01503   1.90172
    A7        1.93732   0.00178   0.00000   0.02657   0.02658   1.96390
    A8        1.93726   0.00179   0.00000   0.02662   0.02663   1.96389
    A9        1.91754  -0.00256   0.00000  -0.04056  -0.04111   1.87643
   A10        1.82350  -0.00011   0.00000  -0.00266  -0.00293   1.82057
   A11        1.93243   0.00172   0.00000   0.01915   0.01920   1.95164
   A12        1.93234   0.00173   0.00000   0.01924   0.01929   1.95163
   A13        1.93576  -0.00036   0.00000  -0.00144  -0.00142   1.93435
   A14        1.93573  -0.00036   0.00000  -0.00139  -0.00137   1.93436
   A15        1.90347  -0.00244   0.00000  -0.03080  -0.03098   1.87249
   A16        2.22932   0.00257   0.00000   0.00939   0.00951   2.23883
   A17        1.96295  -0.00364   0.00000  -0.01675  -0.01697   1.94599
   A18        2.09091   0.00107   0.00000   0.00736   0.00746   2.09837
   A19        2.06372  -0.00010   0.00000  -0.00042  -0.00049   2.06323
   A20        2.10739   0.00218   0.00000   0.01296   0.01299   2.12038
   A21        2.11208  -0.00208   0.00000  -0.01254  -0.01250   2.09958
   A22        2.08302  -0.00083   0.00000  -0.00189  -0.00186   2.08116
   A23        2.11730   0.00230   0.00000   0.00627   0.00620   2.12350
   A24        2.08286  -0.00147   0.00000  -0.00437  -0.00434   2.07853
   A25        2.09667  -0.00118   0.00000  -0.00843  -0.00844   2.08823
   A26        2.10219  -0.00222   0.00000  -0.01260  -0.01260   2.08959
   A27        2.08433   0.00340   0.00000   0.02103   0.02103   2.10537
   A28        2.05057   0.00530   0.00000   0.02299   0.02305   2.07362
   A29        2.12153  -0.00100   0.00000  -0.00160  -0.00163   2.11990
   A30        2.11108  -0.00431   0.00000  -0.02139  -0.02142   2.08966
   A31        1.89179   0.01208   0.00000   0.04848   0.04860   1.94040
   A32        2.24419  -0.00469   0.00000  -0.02072  -0.02083   2.22337
   A33        2.14720  -0.00739   0.00000  -0.02776  -0.02778   2.11942
    D1        3.14159   0.00000   0.00000  -0.00006  -0.00006   3.14153
    D2       -1.05525   0.00308   0.00000   0.03423   0.03392  -1.02133
    D3        1.05539  -0.00308   0.00000  -0.03447  -0.03415   1.02123
    D4       -0.00010   0.00001   0.00000   0.00017   0.00016   0.00006
    D5        2.08625   0.00308   0.00000   0.03446   0.03414   2.12039
    D6       -2.08630  -0.00308   0.00000  -0.03425  -0.03393  -2.12023
    D7        3.14157   0.00000   0.00000   0.00009   0.00009  -3.14152
    D8       -0.00014   0.00000   0.00000   0.00020   0.00020   0.00006
    D9        0.00007  -0.00000   0.00000  -0.00013  -0.00013  -0.00006
   D10        3.14154  -0.00000   0.00000  -0.00002  -0.00002   3.14152
   D11        0.00009  -0.00000   0.00000  -0.00014  -0.00014  -0.00005
   D12       -2.08486  -0.00039   0.00000  -0.00666  -0.00664  -2.09150
   D13        2.08496   0.00038   0.00000   0.00649   0.00646   2.09142
   D14       -2.07263  -0.00039   0.00000  -0.00739  -0.00751  -2.08014
   D15        2.12561  -0.00078   0.00000  -0.01392  -0.01401   2.11160
   D16        0.01224  -0.00000   0.00000  -0.00077  -0.00092   0.01132
   D17        2.07260   0.00039   0.00000   0.00729   0.00740   2.08000
   D18       -0.01235   0.00001   0.00000   0.00076   0.00090  -0.01144
   D19       -2.12571   0.00078   0.00000   0.01391   0.01400  -2.11172
   D20        3.14158   0.00000   0.00000   0.00005   0.00005  -3.14155
   D21       -0.00005   0.00000   0.00000   0.00007   0.00007   0.00001
   D22       -1.05890   0.00180   0.00000   0.02048   0.02041  -1.03849
   D23        2.08265   0.00180   0.00000   0.02050   0.02043   2.10308
   D24        1.05900  -0.00180   0.00000  -0.02051  -0.02043   1.03857
   D25       -2.08263  -0.00180   0.00000  -0.02049  -0.02042  -2.10305
   D26        3.14154   0.00000   0.00000   0.00001   0.00001   3.14155
   D27       -0.00001  -0.00000   0.00000  -0.00001  -0.00001  -0.00002
   D28       -0.00001  -0.00000   0.00000  -0.00000  -0.00000  -0.00001
   D29       -3.14156  -0.00000   0.00000  -0.00003  -0.00003  -3.14158
   D30       -0.00001  -0.00000   0.00000   0.00003   0.00003   0.00003
   D31       -3.14149  -0.00000   0.00000  -0.00007  -0.00007  -3.14156
   D32        3.14155   0.00000   0.00000   0.00005   0.00005  -3.14159
   D33        0.00007  -0.00000   0.00000  -0.00005  -0.00005   0.00001
   D34        3.14159   0.00000   0.00000   0.00001   0.00001  -3.14158
   D35        0.00002  -0.00000   0.00000  -0.00002  -0.00002  -0.00000
   D36       -0.00005   0.00000   0.00000   0.00004   0.00004  -0.00001
   D37        3.14156   0.00000   0.00000   0.00001   0.00001   3.14157
   D38       -0.00007   0.00000   0.00000   0.00009   0.00009   0.00002
   D39        3.14157   0.00000   0.00000   0.00003   0.00003  -3.14159
   D40        3.14154   0.00000   0.00000   0.00006   0.00006  -3.14159
   D41       -0.00001  -0.00000   0.00000  -0.00000  -0.00000  -0.00001
   D42        0.00012  -0.00000   0.00000  -0.00014  -0.00014  -0.00002
   D43        3.14156   0.00000   0.00000   0.00001   0.00001   3.14157
   D44       -3.14152  -0.00000   0.00000  -0.00008  -0.00008   3.14159
   D45       -0.00008   0.00000   0.00000   0.00007   0.00007  -0.00001
   D46       -3.14158   0.00000   0.00000  -0.00000  -0.00000  -3.14158
   D47       -0.00012   0.00000   0.00000   0.00013   0.00012   0.00000
   D48        0.00017  -0.00000   0.00000  -0.00015  -0.00015   0.00002
   D49       -3.14156  -0.00000   0.00000  -0.00003  -0.00003  -3.14159
         Item               Value     Threshold  Converged?
 Maximum Force            0.018351     0.000450     NO 
 RMS     Force            0.004399     0.000300     NO 
 Maximum Displacement     0.087110     0.001800     NO 
 RMS     Displacement     0.025278     0.001200     NO 
 Predicted change in Energy=-3.659289D-03
 GradGradGradGradGradGradGradGradGradGradGradGradGradGradGradGradGradGrad

                          Input orientation:                          
 ---------------------------------------------------------------------
 Center     Atomic      Atomic             Coordinates (Angstroms)
 Number     Number       Type             X           Y           Z
 ---------------------------------------------------------------------
      1          8           0       -1.795746    2.431651    0.381387
      2          6           0       -1.454870    1.275158    0.191754
      3          6           0       -2.380544    0.069049   -0.026899
      4          6           0       -1.445184   -1.172926   -0.221368
      5          6           0       -0.044299   -0.608757   -0.103436
      6          6           0        1.165179   -1.283466   -0.197760
      7          6           0        2.339580   -0.551386   -0.055200
      8         35           0        4.006268   -1.442719   -0.178711
      9          6           0        2.321583    0.823667    0.176602
     10          6           0        1.104945    1.489425    0.269318
     11          6           0       -0.064922    0.763671    0.127898
     12          1           0       -3.041388   -0.034846    0.841538
     13          1           0       -3.013031    0.259463   -0.901779
     14          1           0       -1.594088   -1.646490   -1.200228
     15          1           0       -1.622353   -1.940683    0.542683
     16          1           0        1.205197   -2.354569   -0.377926
     17          1           0        3.257141    1.363878    0.282911
     18          1           0        1.056532    2.559782    0.449218
 ---------------------------------------------------------------------
                    Distance matrix (angstroms):
                    1          2          3          4          5
     1  O    0.000000
     2  C    1.220505   0.000000
     3  C    2.467909   1.536028   0.000000
     4  C    3.671401   2.482716   1.566914   0.000000
     5  C    3.542131   2.371915   2.433787   1.514818   0.000000
     6  C    4.785873   3.682789   3.798769   2.612809   1.388153
     7  C    5.117620   4.218423   4.760810   3.839058   2.385057
     8  Br   6.999130   6.111311   6.565049   5.458291   4.136213
     9  C    4.424923   3.803376   4.766641   4.281740   2.779866
    10  C    3.051943   2.569938   3.775427   3.719146   2.421172
    11  C    2.417057   1.482448   2.422513   2.403647   1.391940
    12  H    2.801244   2.157631   1.096217   2.229991   3.194509
    13  H    2.801196   2.157618   1.096226   2.229987   3.194452
    14  H    4.378745   3.239293   2.222226   1.097544   2.163721
    15  H    4.378742   3.239264   2.222228   1.097548   2.163735
    16  H    5.700010   4.536012   4.342198   2.906082   2.164358
    17  H    5.165414   4.713728   5.792760   5.366707   3.865238
    18  H    2.855960   2.832611   4.271292   4.543279   3.399543
                    6          7          8          9         10
     6  C    0.000000
     7  C    1.391216   0.000000
     8  Br   2.845613   1.894091   0.000000
     9  C    2.432576   1.394570   2.846211   0.000000
    10  C    2.812600   2.407186   4.149202   1.389978   0.000000
    11  C    2.410388   2.746730   4.640771   2.387755   1.383947
    12  H    4.509368   5.479577   7.258958   5.471804   4.454539
    13  H    4.509292   5.479472   7.258844   5.471685   4.454437
    14  H    2.958087   4.240764   5.696403   4.830094   4.390707
    15  H    2.958129   4.240816   5.696469   4.830142   4.390732
    16  H    1.086887   2.154634   2.952484   3.413942   3.899393
    17  H    3.408194   2.150459   2.941305   1.085541   2.155898
    18  H    3.898839   3.402942   5.011512   2.165357   1.086449
                   11         12         13         14         15
    11  C    0.000000
    12  H    3.163268   0.000000
    13  H    3.163196   1.768213   0.000000
    14  H    3.148196   2.976724   2.394813   0.000000
    15  H    3.148201   2.394825   2.976759   1.767792   0.000000
    16  H    3.404773   4.990159   4.990093   3.002258   3.002309
    17  H    3.379405   6.476107   6.475978   5.898851   5.898904
    18  H    2.141710   4.866103   4.866005   5.238242   5.238258
                   16         17         18
    16  H    0.000000
    17  H    4.298143   0.000000
    18  H    4.985691   2.510085   0.000000
 Stoichiometry    C9H7BrO
 Framework group  C1[X(C9H7BrO)]
 Deg. of freedom    48
 Full point group                 C1      NOp   1
 Largest Abelian subgroup         C1      NOp   1
 Largest concise Abelian subgroup C1      NOp   1
                         Standard orientation:                         
 ---------------------------------------------------------------------
 Center     Atomic      Atomic             Coordinates (Angstroms)
 Number     Number       Type             X           Y           Z
 ---------------------------------------------------------------------
      1          8           0        3.848343    1.416496    0.000028
      2          6           0        3.100820    0.451694   -0.000040
      3          6           0        3.511735   -1.028350    0.000040
      4          6           0        2.179953   -1.853925   -0.000003
      5          6           0        1.088342   -0.803659   -0.000034
      6          6           0       -0.286867   -0.992781   -0.000031
      7          6           0       -1.105479    0.132099   -0.000012
      8         35           0       -2.986235   -0.092266    0.000010
      9          6           0       -0.576576    1.422482    0.000006
     10          6           0        0.801953    1.600516   -0.000016
     11          6           0        1.618708    0.483279   -0.000033
     12          1           0        4.128814   -1.226757   -0.884007
     13          1           0        4.128689   -1.226672    0.884206
     14          1           0        2.100237   -2.499665    0.883891
     15          1           0        2.100300   -2.499675   -0.883900
     16          1           0       -0.723019   -1.988318   -0.000022
     17          1           0       -1.244714    2.278047    0.000024
     18          1           0        1.245628    2.592244   -0.000021
 ---------------------------------------------------------------------
 Rotational constants (GHZ):           2.5136247           0.3668748           0.3214307
 Standard basis: MIDIx (5D, 7F)
 There are   139 symmetry adapted cartesian basis functions of A   symmetry.
 There are   136 symmetry adapted basis functions of A   symmetry.
   136 basis functions,   240 primitive gaussians,   139 cartesian basis functions
    52 alpha electrons       52 beta electrons
       nuclear repulsion energy       786.9056507948 Hartrees.
 NAtoms=   18 NActive=   18 NUniq=   18 SFac= 1.00D+00 NAtFMM=   60 NAOKFM=F Big=F
 Integral buffers will be    131072 words long.
 Raffenetti 2 integral format.
 Two-electron integral symmetry is turned on.
 Nuclear repulsion after empirical dispersion term =      786.8952169817 Hartrees.
 One-electron integrals computed using PRISM.
 NBasis=   136 RedAO= T EigKep=  1.13D-03  NBF=   136
 NBsUse=   136 1.00D-06 EigRej= -1.00D+00 NBFU=   136
 Initial guess from the checkpoint file:  "/home/rpaton/opt/midi/Gau-4034936.chk"
 B after Tr=     0.000000   -0.000000    0.000000
         Rot=    1.000000    0.000000    0.000000    0.000663 Ang=   0.08 deg.
 ExpMin= 1.47D-01 ExpMax= 6.10D+03 ExpMxC= 6.10D+03 IAcc=3 IRadAn=         5 AccDes= 0.00D+00
 Harris functional with IExCor= 4639 and IRadAn=       5 diagonalized for initial guess.
 HarFok:  IExCor= 4639 AccDes= 0.00D+00 IRadAn=         5 IDoV= 1 UseB2=F ITyADJ=14
 ICtDFT=  3500011 ScaDFX=  1.000000  1.000000  1.000000  1.000000
 FoFCou: FMM=F IPFlag=           0 FMFlag=      100000 FMFlg1=           0
         NFxFlg=           0 DoJE=T BraDBF=F KetDBF=T FulRan=T
         wScrn=  0.000000 ICntrl=       500 IOpCl=  0 I1Cent=   200000004 NGrid=           0
         NMat0=    1 NMatS0=      1 NMatT0=    0 NMatD0=    1 NMtDS0=    0 NMtDT0=    0
 Petite list used in FoFCou.
 Requested convergence on RMS density matrix=1.00D-08 within 128 cycles.
 Requested convergence on MAX density matrix=1.00D-06.
 Requested convergence on             energy=1.00D-06.
 No special actions if energy rises.
 Integral accuracy reduced to 1.0D-05 until final iterations.
 Initial convergence to 1.0D-05 achieved.  Increase integral accuracy.
 SCF Done:  E(RwB97XD) =  -2981.85091465     A.U. after   14 cycles
            NFock= 14  Conv=0.38D-08     -V/T= 2.0021
 Calling FoFJK, ICntrl=      2127 FMM=F ISym2X=0 I1Cent= 0 IOpClX= 0 NMat=1 NMatS=1 NMatT=0.
 ***** Axes restored to original set *****
 -------------------------------------------------------------------
 Center     Atomic                   Forces (Hartrees/Bohr)
 Number     Number              X              Y              Z
 -------------------------------------------------------------------
      1        8           0.002214340   -0.007580905   -0.001237073
      2        6           0.001007889    0.010673067    0.001801402
      3        6           0.000471942   -0.007371359   -0.001236576
      4        6          -0.003730405    0.002030713    0.000285421
      5        6           0.001002815    0.004224815    0.000728341
      6        6          -0.001453255   -0.000001752   -0.000025170
      7        6          -0.001052362    0.000337010    0.000038881
      8       35           0.000676770   -0.000489666   -0.000071545
      9        6           0.000216226    0.002372302    0.000405797
     10        6           0.002148566   -0.000317143   -0.000018454
     11        6           0.001275319   -0.004643526   -0.000757684
     12        1          -0.000544175   -0.000340952    0.000183575
     13        1          -0.000532984   -0.000258584   -0.000297902
     14        1          -0.000640941    0.000341042   -0.000118979
     15        1          -0.000644815    0.000288612    0.000202462
     16        1          -0.000115745    0.000189858    0.000030815
     17        1           0.000011036   -0.000185164   -0.000031250
     18        1          -0.000310222    0.000731632    0.000117938
 -------------------------------------------------------------------
 Cartesian Forces:  Max     0.010673067 RMS     0.002421852

 GradGradGradGradGradGradGradGradGradGradGradGradGradGradGradGradGradGrad
 Berny optimization.
 Using GEDIIS/GDIIS optimizer.
 FormGI is forming the generalized inverse of G from B-inverse, IUseBI=4.
 Internal  Forces:  Max     0.007993707 RMS     0.001261553
 Search for a local minimum.
 Step number   2 out of a maximum of  108
 All quantities printed in internal units (Hartrees-Bohrs-Radians)
 Mixed Optimization -- RFO/linear search
 Update second derivatives using D2CorX and points    1    2
 DE= -3.39D-03 DEPred=-3.66D-03 R= 9.27D-01
 TightC=F SS=  1.41D+00  RLast= 1.82D-01 DXNew= 5.0454D-01 5.4519D-01
 Trust test= 9.27D-01 RLast= 1.82D-01 DXMaxT set to 5.05D-01
 ITU=  1  0
 Use linear search instead of GDIIS.
     Eigenvalues ---    0.00475   0.00925   0.01523   0.01564   0.01958
     Eigenvalues ---    0.02051   0.02085   0.02091   0.02184   0.02210
     Eigenvalues ---    0.02228   0.03935   0.04110   0.05464   0.05830
     Eigenvalues ---    0.08406   0.08438   0.08838   0.10806   0.15918
     Eigenvalues ---    0.16000   0.16012   0.18608   0.22025   0.22779
     Eigenvalues ---    0.23441   0.24437   0.24967   0.24988   0.25161
     Eigenvalues ---    0.28229   0.30765   0.31522   0.34254   0.34258
     Eigenvalues ---    0.34330   0.34351   0.35092   0.35288   0.35321
     Eigenvalues ---    0.37017   0.42047   0.42608   0.44865   0.45678
     Eigenvalues ---    0.47403   0.48263   0.98617
 RFO step:  Lambda=-3.63014651D-04 EMin= 4.75088654D-03
 Quartic linear search produced a step of -0.02852.
 Iteration  1 RMS(Cart)=  0.00518175 RMS(Int)=  0.00000822
 Iteration  2 RMS(Cart)=  0.00000717 RMS(Int)=  0.00000579
 Iteration  3 RMS(Cart)=  0.00000000 RMS(Int)=  0.00000579
 Variable       Old X    -DE/DX   Delta X   Delta X   Delta X     New X
                                 (Linear)    (Quad)   (Total)
    R1        2.30642  -0.00799  -0.00014  -0.00767  -0.00781   2.29861
    R2        2.90267   0.00481  -0.00148   0.01940   0.01791   2.92058
    R3        2.80142   0.00001  -0.00143   0.00394   0.00250   2.80392
    R4        2.96104  -0.00533  -0.00154  -0.01338  -0.01493   2.94611
    R5        2.07155   0.00051  -0.00012   0.00176   0.00164   2.07319
    R6        2.07157   0.00050  -0.00012   0.00173   0.00162   2.07319
    R7        2.86259   0.00282  -0.00105   0.01094   0.00991   2.87250
    R8        2.07406   0.00005  -0.00014   0.00053   0.00039   2.07444
    R9        2.07407   0.00004  -0.00014   0.00052   0.00038   2.07444
   R10        2.62323  -0.00125  -0.00007  -0.00259  -0.00266   2.62057
   R11        2.63039  -0.00338  -0.00010  -0.00736  -0.00745   2.62293
   R12        2.62902   0.00100   0.00046   0.00096   0.00142   2.63043
   R13        2.05392  -0.00020  -0.00005  -0.00040  -0.00045   2.05347
   R14        3.57931   0.00083  -0.00010   0.00460   0.00450   3.58381
   R15        2.63536   0.00093   0.00059   0.00076   0.00135   2.63671
   R16        2.62668  -0.00135   0.00033  -0.00347  -0.00314   2.62354
   R17        2.05138  -0.00009   0.00011  -0.00054  -0.00043   2.05094
   R18        2.61528   0.00176  -0.00002   0.00348   0.00346   2.61874
   R19        2.05309   0.00075  -0.00005   0.00221   0.00216   2.05525
    A1        2.21159  -0.00015  -0.00014  -0.00030  -0.00043   2.21116
    A2        2.20867  -0.00011  -0.00120   0.00281   0.00162   2.21029
    A3        1.86292   0.00025   0.00134  -0.00251  -0.00118   1.86174
    A4        1.85491  -0.00068  -0.00052  -0.00008  -0.00060   1.85430
    A5        1.90175   0.00044   0.00043   0.00231   0.00276   1.90451
    A6        1.90172   0.00044   0.00043   0.00230   0.00274   1.90447
    A7        1.96390   0.00003  -0.00076   0.00072  -0.00003   1.96387
    A8        1.96389   0.00003  -0.00076   0.00074  -0.00002   1.96387
    A9        1.87643  -0.00022   0.00117  -0.00567  -0.00448   1.87195
   A10        1.82057   0.00018   0.00008   0.00019   0.00029   1.82086
   A11        1.95164  -0.00052  -0.00055  -0.00404  -0.00460   1.94704
   A12        1.95163  -0.00052  -0.00055  -0.00405  -0.00461   1.94703
   A13        1.93435   0.00031   0.00004   0.00440   0.00444   1.93878
   A14        1.93436   0.00031   0.00004   0.00438   0.00441   1.93877
   A15        1.87249   0.00024   0.00088  -0.00067   0.00019   1.87268
   A16        2.23883  -0.00049  -0.00027   0.00008  -0.00020   2.23863
   A17        1.94599   0.00149   0.00048   0.00384   0.00433   1.95032
   A18        2.09837  -0.00099  -0.00021  -0.00392  -0.00414   2.09423
   A19        2.06323   0.00031   0.00001   0.00089   0.00090   2.06413
   A20        2.12038  -0.00027  -0.00037  -0.00012  -0.00049   2.11989
   A21        2.09958  -0.00004   0.00036  -0.00077  -0.00041   2.09916
   A22        2.08116  -0.00051   0.00005  -0.00254  -0.00248   2.07868
   A23        2.12350   0.00061  -0.00018   0.00367   0.00349   2.12699
   A24        2.07853  -0.00010   0.00012  -0.00113  -0.00101   2.07752
   A25        2.08823  -0.00153   0.00024  -0.00612  -0.00588   2.08235
   A26        2.08959   0.00059   0.00036   0.00069   0.00105   2.09064
   A27        2.10537   0.00094  -0.00060   0.00543   0.00483   2.11020
   A28        2.07362  -0.00020  -0.00066   0.00120   0.00055   2.07417
   A29        2.11990   0.00038   0.00005   0.00190   0.00194   2.12184
   A30        2.08966  -0.00018   0.00061  -0.00310  -0.00249   2.08717
   A31        1.94040  -0.00124  -0.00139  -0.00145  -0.00284   1.93756
   A32        2.22337  -0.00055   0.00059  -0.00283  -0.00224   2.22113
   A33        2.11942   0.00179   0.00079   0.00428   0.00507   2.12450
    D1        3.14153   0.00000   0.00000   0.00022   0.00022  -3.14143
    D2       -1.02133  -0.00011  -0.00097   0.00232   0.00136  -1.01997
    D3        1.02123   0.00012   0.00097  -0.00188  -0.00092   1.02032
    D4        0.00006  -0.00000  -0.00000  -0.00015  -0.00015  -0.00009
    D5        2.12039  -0.00012  -0.00097   0.00195   0.00098   2.12137
    D6       -2.12023   0.00011   0.00097  -0.00225  -0.00129  -2.12152
    D7       -3.14152  -0.00000  -0.00000  -0.00022  -0.00022   3.14144
    D8        0.00006  -0.00000  -0.00001  -0.00023  -0.00024  -0.00018
    D9       -0.00006   0.00000   0.00000   0.00015   0.00015   0.00010
   D10        3.14152   0.00000   0.00000   0.00014   0.00014  -3.14152
   D11       -0.00005   0.00000   0.00000   0.00010   0.00010   0.00005
   D12       -2.09150  -0.00021   0.00019  -0.00317  -0.00298  -2.09447
   D13        2.09142   0.00021  -0.00018   0.00334   0.00315   2.09456
   D14       -2.08014  -0.00012   0.00021  -0.00308  -0.00286  -2.08300
   D15        2.11160  -0.00033   0.00040  -0.00635  -0.00594   2.10566
   D16        0.01132   0.00008   0.00003   0.00016   0.00018   0.01151
   D17        2.08000   0.00012  -0.00021   0.00327   0.00306   2.08306
   D18       -0.01144  -0.00009  -0.00003   0.00000  -0.00002  -0.01147
   D19       -2.11172   0.00033  -0.00040   0.00651   0.00610  -2.10562
   D20       -3.14155  -0.00000  -0.00000  -0.00006  -0.00006   3.14158
   D21        0.00001   0.00000  -0.00000  -0.00001  -0.00001   0.00000
   D22       -1.03849  -0.00035  -0.00058  -0.00246  -0.00305  -1.04154
   D23        2.10308  -0.00035  -0.00058  -0.00242  -0.00300   2.10007
   D24        1.03857   0.00035   0.00058   0.00237   0.00296   1.04152
   D25       -2.10305   0.00035   0.00058   0.00242   0.00300  -2.10005
   D26        3.14155   0.00000  -0.00000   0.00007   0.00007  -3.14156
   D27       -0.00002   0.00000   0.00000   0.00003   0.00003   0.00001
   D28       -0.00001   0.00000   0.00000   0.00002   0.00002   0.00001
   D29       -3.14158  -0.00000   0.00000  -0.00002  -0.00002   3.14158
   D30        0.00003  -0.00000  -0.00000  -0.00009  -0.00009  -0.00006
   D31       -3.14156  -0.00000   0.00000  -0.00008  -0.00007   3.14155
   D32       -3.14159  -0.00000  -0.00000  -0.00005  -0.00005   3.14155
   D33        0.00001  -0.00000   0.00000  -0.00003  -0.00003  -0.00002
   D34       -3.14158  -0.00000  -0.00000  -0.00002  -0.00002   3.14158
   D35       -0.00000   0.00000   0.00000   0.00000   0.00000   0.00000
   D36       -0.00001   0.00000  -0.00000   0.00002   0.00002   0.00001
   D37        3.14157   0.00000  -0.00000   0.00005   0.00005  -3.14157
   D38        0.00002  -0.00000  -0.00000  -0.00002  -0.00003  -0.00001
   D39       -3.14159  -0.00000  -0.00000  -0.00000  -0.00000  -3.14159
   D40       -3.14159  -0.00000  -0.00000   0.00000   0.00000  -3.14159
   D41       -0.00001   0.00000   0.00000   0.00002   0.00002   0.00002
   D42       -0.00002   0.00000   0.00000   0.00001   0.00002  -0.00000
   D43        3.14157   0.00000  -0.00000   0.00004   0.00004  -3.14157
   D44        3.14159  -0.00000   0.00000  -0.00001  -0.00001   3.14158
   D45       -0.00001   0.00000  -0.00000   0.00002   0.00001   0.00001
   D46       -3.14158   0.00000   0.00000   0.00003   0.00003  -3.14155
   D47        0.00000   0.00000  -0.00000   0.00001   0.00001   0.00001
   D48        0.00002   0.00000   0.00000   0.00000   0.00001   0.00003
   D49       -3.14159  -0.00000   0.00000  -0.00001  -0.00001   3.14159
         Item               Value     Threshold  Converged?
 Maximum Force            0.007994     0.000450     NO 
 RMS     Force            0.001262     0.000300     NO 
 Maximum Displacement     0.018722     0.001800     NO 
 RMS     Displacement     0.005180     0.001200     NO 
 Predicted change in Energy=-1.848967D-04
 GradGradGradGradGradGradGradGradGradGradGradGradGradGradGradGradGradGrad

                          Input orientation:                          
 ---------------------------------------------------------------------
 Center     Atomic      Atomic             Coordinates (Angstroms)
 Number     Number       Type             X           Y           Z
 ---------------------------------------------------------------------
      1          8           0       -1.790742    2.428523    0.380983
      2          6           0       -1.450289    1.276187    0.191846
      3          6           0       -2.381445    0.062434   -0.028017
      4          6           0       -1.449808   -1.172549   -0.221404
      5          6           0       -0.044364   -0.605724   -0.102988
      6          6           0        1.164094   -1.279387   -0.197131
      7          6           0        2.339569   -0.547609   -0.054555
      8         35           0        4.005575   -1.445124   -0.179055
      9          6           0        2.327262    0.828189    0.177497
     10          6           0        1.110878    1.491013    0.269675
     11          6           0       -0.059613    0.762869    0.127784
     12          1           0       -3.044812   -0.043344    0.839367
     13          1           0       -3.016667    0.250636   -0.902467
     14          1           0       -1.603995   -1.644742   -1.200337
     15          1           0       -1.632196   -1.938999    0.543016
     16          1           0        1.203907   -2.350266   -0.377242
     17          1           0        3.264289    1.365471    0.283374
     18          1           0        1.058357    2.562323    0.449656
 ---------------------------------------------------------------------
                    Distance matrix (angstroms):
                    1          2          3          4          5
     1  O    0.000000
     2  C    1.216371   0.000000
     3  C    2.472770   1.545506   0.000000
     4  C    3.666992   2.483362   1.559016   0.000000
     5  C    3.534221   2.367518   2.431872   1.520061   0.000000
     6  C    4.776387   3.676583   3.794725   2.616197   1.386743
     7  C    5.109454   4.213071   4.760339   3.844185   2.385133
     8  Br   6.994003   6.108155   6.564265   5.462352   4.136712
     9  C    4.422718   3.804051   4.774992   4.292823   2.785568
    10  C    3.051347   2.571340   3.784942   3.727309   2.422760
    11  C    2.415641   1.483772   2.430183   2.408406   1.387997
    12  H    2.809437   2.168628   1.097086   2.223595   3.194838
    13  H    2.809506   2.168597   1.097082   2.223590   3.194855
    14  H    4.373435   3.239387   2.212061   1.097748   2.171677
    15  H    4.373402   3.239419   2.212055   1.097747   2.171671
    16  H    5.690313   4.529877   4.335646   2.907491   2.162597
    17  H    5.166522   4.716312   5.802516   5.377644   3.870668
    18  H    2.853066   2.830887   4.279002   4.548679   3.399696
                    6          7          8          9         10
     6  C    0.000000
     7  C    1.391965   0.000000
     8  Br   2.846368   1.896473   0.000000
     9  C    2.436224   1.395285   2.848125   0.000000
    10  C    2.809957   2.402246   4.147472   1.388316   0.000000
    11  C    2.402882   2.739831   4.636285   2.388286   1.385776
    12  H    4.507440   5.481326   7.260174   5.482410   4.466381
    13  H    4.507464   5.481369   7.260221   5.482469   4.466439
    14  H    2.966855   4.250672   5.705273   4.844440   4.400504
    15  H    2.966841   4.250644   5.705240   4.844404   4.400472
    16  H    1.086649   2.154861   2.950916   3.416466   3.896483
    17  H    3.411302   2.151553   2.943261   1.085312   2.157111
    18  H    3.897211   3.401089   5.014080   2.165966   1.087592
                   11         12         13         14         15
    11  C    0.000000
    12  H    3.172970   0.000000
    13  H    3.173006   1.766692   0.000000
    14  H    3.153667   2.966618   2.382609   0.000000
    15  H    3.153653   2.382607   2.966595   1.768237   0.000000
    16  H    3.397521   4.985342   4.985358   3.009911   3.009899
    17  H    3.381666   6.488347   6.488412   5.912950   5.912910
    18  H    2.142777   4.876205   4.876264   5.244997   5.244969
                   16         17         18
    16  H    0.000000
    17  H    4.299801   0.000000
    18  H    4.983822   2.515202   0.000000
 Stoichiometry    C9H7BrO
 Framework group  C1[X(C9H7BrO)]
 Deg. of freedom    48
 Full point group                 C1      NOp   1
 Largest Abelian subgroup         C1      NOp   1
 Largest concise Abelian subgroup C1      NOp   1
                         Standard orientation:                         
 ---------------------------------------------------------------------
 Center     Atomic      Atomic             Coordinates (Angstroms)
 Number     Number       Type             X           Y           Z
 ---------------------------------------------------------------------
      1          8           0        3.842782    1.417403   -0.000048
      2          6           0        3.097657    0.455973    0.000083
      3          6           0        3.511549   -1.033082   -0.000021
      4          6           0        2.186226   -1.854088   -0.000012
      5          6           0        1.090856   -0.800168    0.000019
      6          6           0       -0.282924   -0.989343    0.000020
      7          6           0       -1.103190    0.135260    0.000011
      8         35           0       -2.985498   -0.096091   -0.000007
      9          6           0       -0.579922    1.428709   -0.000002
     10          6           0        0.797190    1.604729    0.000004
     11          6           0        1.614177    0.485394    0.000023
     12          1           0        4.130322   -1.234004   -0.883393
     13          1           0        4.130370   -1.234071    0.883299
     14          1           0        2.112247   -2.500566    0.884094
     15          1           0        2.112222   -2.500528   -0.884143
     16          1           0       -0.718318   -1.984953    0.000008
     17          1           0       -1.250929    2.281734   -0.000006
     18          1           0        1.244557    2.596051    0.000012
 ---------------------------------------------------------------------
 Rotational constants (GHZ):           2.5063020           0.3671574           0.3215266
 Standard basis: MIDIx (5D, 7F)
 There are   139 symmetry adapted cartesian basis functions of A   symmetry.
 There are   136 symmetry adapted basis functions of A   symmetry.
   136 basis functions,   240 primitive gaussians,   139 cartesian basis functions
    52 alpha electrons       52 beta electrons
       nuclear repulsion energy       786.8118323130 Hartrees.
 NAtoms=   18 NActive=   18 NUniq=   18 SFac= 1.00D+00 NAtFMM=   60 NAOKFM=F Big=F
 Integral buffers will be    131072 words long.
 Raffenetti 2 integral format.
 Two-electron integral symmetry is turned on.
 Nuclear repulsion after empirical dispersion term =      786.8014052899 Hartrees.
 One-electron integrals computed using PRISM.
 NBasis=   136 RedAO= T EigKep=  1.13D-03  NBF=   136
 NBsUse=   136 1.00D-06 EigRej= -1.00D+00 NBFU=   136
 Initial guess from the checkpoint file:  "/home/rpaton/opt/midi/Gau-4034936.chk"
 B after Tr=    -0.000000    0.000000   -0.000000
         Rot=    1.000000   -0.000002   -0.000000   -0.000449 Ang=  -0.05 deg.
 Requested convergence on RMS density matrix=1.00D-08 within 128 cycles.
 Requested convergence on MAX density matrix=1.00D-06.
 Requested convergence on             energy=1.00D-06.
 No special actions if energy rises.
 SCF Done:  E(RwB97XD) =  -2981.85112166     A.U. after   11 cycles
            NFock= 11  Conv=0.51D-08     -V/T= 2.0021
 Calling FoFJK, ICntrl=      2127 FMM=F ISym2X=0 I1Cent= 0 IOpClX= 0 NMat=1 NMatS=1 NMatT=0.
 ***** Axes restored to original set *****
 -------------------------------------------------------------------
 Center     Atomic                   Forces (Hartrees/Bohr)
 Number     Number              X              Y              Z
 -------------------------------------------------------------------
      1        8           0.000626421   -0.002152994   -0.000366969
      2        6           0.000032152    0.003837335    0.000687772
      3        6           0.000091927   -0.003012195   -0.000518850
      4        6          -0.001224353    0.001322106    0.000201675
      5        6          -0.000577316    0.000812608    0.000129325
      6        6           0.000544168   -0.000604842   -0.000091008
      7        6          -0.000216840   -0.000826484   -0.000142251
      8       35           0.000025706   -0.000060292   -0.000010172
      9        6          -0.000028409    0.000570268    0.000095787
     10        6           0.000007165    0.000665883    0.000110580
     11        6          -0.000378976   -0.001453895   -0.000264801
     12        1           0.000183667    0.000334095    0.000091611
     13        1           0.000179058    0.000339558    0.000026291
     14        1           0.000440987    0.000123553    0.000031149
     15        1           0.000441234    0.000124188    0.000025164
     16        1           0.000068471    0.000044324    0.000008021
     17        1          -0.000006290   -0.000034363   -0.000005442
     18        1          -0.000208773   -0.000028850   -0.000007883
 -------------------------------------------------------------------
 Cartesian Forces:  Max     0.003837335 RMS     0.000853422

 GradGradGradGradGradGradGradGradGradGradGradGradGradGradGradGradGradGrad
 Berny optimization.
 Using GEDIIS/GDIIS optimizer.
 FormGI is forming the generalized inverse of G from B-inverse, IUseBI=4.
 Internal  Forces:  Max     0.002271466 RMS     0.000355167
 Search for a local minimum.
 Step number   3 out of a maximum of  108
 All quantities printed in internal units (Hartrees-Bohrs-Radians)
 Mixed Optimization -- En-DIIS/RFO-DIIS
 Update second derivatives using D2CorX and points    1    2    3
 DE= -2.07D-04 DEPred=-1.85D-04 R= 1.12D+00
 TightC=F SS=  1.41D+00  RLast= 3.56D-02 DXNew= 8.4853D-01 1.0669D-01
 Trust test= 1.12D+00 RLast= 3.56D-02 DXMaxT set to 5.05D-01
 ITU=  1  1  0
 Use linear search instead of GDIIS.
     Eigenvalues ---    0.00476   0.00925   0.01522   0.01562   0.01960
     Eigenvalues ---    0.02051   0.02085   0.02092   0.02184   0.02210
     Eigenvalues ---    0.02228   0.03926   0.04111   0.05502   0.06106
     Eigenvalues ---    0.08407   0.08470   0.08851   0.10812   0.15558
     Eigenvalues ---    0.16011   0.16013   0.18518   0.20643   0.22709
     Eigenvalues ---    0.22823   0.23801   0.24952   0.25012   0.25162
     Eigenvalues ---    0.27910   0.29808   0.33331   0.34254   0.34279
     Eigenvalues ---    0.34349   0.34511   0.35092   0.35287   0.35414
     Eigenvalues ---    0.36903   0.41164   0.42601   0.45146   0.45520
     Eigenvalues ---    0.47831   0.49216   0.92185
 RFO step:  Lambda=-4.32698166D-05 EMin= 4.75911730D-03
 Quartic linear search produced a step of  0.13961.
 Iteration  1 RMS(Cart)=  0.00150444 RMS(Int)=  0.00000430
 Iteration  2 RMS(Cart)=  0.00000321 RMS(Int)=  0.00000305
 Iteration  3 RMS(Cart)=  0.00000000 RMS(Int)=  0.00000305
 Variable       Old X    -DE/DX   Delta X   Delta X   Delta X     New X
                                 (Linear)    (Quad)   (Total)
    R1        2.29861  -0.00227  -0.00109  -0.00250  -0.00359   2.29502
    R2        2.92058   0.00111   0.00250   0.00460   0.00710   2.92768
    R3        2.80392  -0.00016   0.00035   0.00008   0.00043   2.80435
    R4        2.94611  -0.00140  -0.00208  -0.00448  -0.00657   2.93954
    R5        2.07319  -0.00007   0.00023  -0.00021   0.00002   2.07321
    R6        2.07319  -0.00007   0.00023  -0.00020   0.00003   2.07321
    R7        2.87250  -0.00052   0.00138  -0.00169  -0.00030   2.87219
    R8        2.07444  -0.00014   0.00005  -0.00042  -0.00037   2.07407
    R9        2.07444  -0.00014   0.00005  -0.00042  -0.00037   2.07407
   R10        2.62057   0.00057  -0.00037   0.00141   0.00104   2.62160
   R11        2.62293  -0.00061  -0.00104  -0.00155  -0.00259   2.62035
   R12        2.63043  -0.00027   0.00020  -0.00086  -0.00066   2.62977
   R13        2.05347  -0.00004  -0.00006  -0.00011  -0.00017   2.05330
   R14        3.58381   0.00005   0.00063   0.00028   0.00091   3.58473
   R15        2.63671   0.00086   0.00019   0.00202   0.00221   2.63891
   R16        2.62354   0.00022  -0.00044   0.00049   0.00005   2.62359
   R17        2.05094  -0.00002  -0.00006  -0.00012  -0.00018   2.05076
   R18        2.61874   0.00006   0.00048   0.00005   0.00053   2.61927
   R19        2.05525  -0.00002   0.00030  -0.00008   0.00022   2.05547
    A1        2.21116   0.00031  -0.00006   0.00133   0.00127   2.21243
    A2        2.21029   0.00033   0.00023   0.00185   0.00207   2.21236
    A3        1.86174  -0.00065  -0.00016  -0.00318  -0.00334   1.85840
    A4        1.85430   0.00006  -0.00008   0.00061   0.00053   1.85483
    A5        1.90451  -0.00024   0.00039  -0.00393  -0.00355   1.90096
    A6        1.90447  -0.00023   0.00038  -0.00381  -0.00343   1.90104
    A7        1.96387   0.00017  -0.00000   0.00265   0.00264   1.96651
    A8        1.96387   0.00016  -0.00000   0.00265   0.00264   1.96651
    A9        1.87195   0.00005  -0.00063   0.00135   0.00070   1.87265
   A10        1.82086   0.00032   0.00004   0.00129   0.00133   1.82219
   A11        1.94704   0.00011  -0.00064   0.00276   0.00212   1.94915
   A12        1.94703   0.00011  -0.00064   0.00279   0.00215   1.94918
   A13        1.93878  -0.00034   0.00062  -0.00431  -0.00369   1.93509
   A14        1.93877  -0.00034   0.00062  -0.00428  -0.00366   1.93511
   A15        1.87268   0.00012   0.00003   0.00157   0.00158   1.87426
   A16        2.23863  -0.00026  -0.00003  -0.00075  -0.00078   2.23786
   A17        1.95032  -0.00002   0.00060  -0.00063  -0.00003   1.95029
   A18        2.09423   0.00028  -0.00058   0.00138   0.00081   2.09504
   A19        2.06413  -0.00025   0.00013  -0.00134  -0.00121   2.06292
   A20        2.11989   0.00020  -0.00007   0.00133   0.00126   2.12116
   A21        2.09916   0.00006  -0.00006   0.00000  -0.00005   2.09911
   A22        2.07868  -0.00006  -0.00035  -0.00036  -0.00071   2.07797
   A23        2.12699  -0.00005   0.00049   0.00007   0.00055   2.12755
   A24        2.07752   0.00010  -0.00014   0.00030   0.00016   2.07767
   A25        2.08235   0.00005  -0.00082   0.00056  -0.00026   2.08208
   A26        2.09064  -0.00006   0.00015  -0.00066  -0.00052   2.09012
   A27        2.11020   0.00000   0.00067   0.00011   0.00078   2.11098
   A28        2.07417  -0.00025   0.00008  -0.00108  -0.00100   2.07317
   A29        2.12184   0.00034   0.00027   0.00215   0.00242   2.12427
   A30        2.08717  -0.00009  -0.00035  -0.00108  -0.00143   2.08574
   A31        1.93756   0.00030  -0.00040   0.00191   0.00151   1.93907
   A32        2.22113  -0.00051  -0.00031  -0.00231  -0.00262   2.21851
   A33        2.12450   0.00022   0.00071   0.00041   0.00111   2.12561
    D1       -3.14143  -0.00000   0.00003  -0.00055  -0.00052   3.14123
    D2       -1.01997   0.00010   0.00019   0.00079   0.00098  -1.01899
    D3        1.02032  -0.00011  -0.00013  -0.00196  -0.00209   1.01823
    D4       -0.00009   0.00000  -0.00002   0.00044   0.00042   0.00033
    D5        2.12137   0.00011   0.00014   0.00179   0.00192   2.12330
    D6       -2.12152  -0.00010  -0.00018  -0.00097  -0.00114  -2.12267
    D7        3.14144   0.00000  -0.00003   0.00057   0.00054  -3.14121
    D8       -0.00018   0.00001  -0.00003   0.00067   0.00064   0.00046
    D9        0.00010  -0.00000   0.00002  -0.00043  -0.00041  -0.00031
   D10       -3.14152  -0.00000   0.00002  -0.00033  -0.00031   3.14135
   D11        0.00005  -0.00000   0.00001  -0.00031  -0.00029  -0.00024
   D12       -2.09447   0.00015  -0.00042   0.00262   0.00221  -2.09226
   D13        2.09456  -0.00016   0.00044  -0.00318  -0.00274   2.09182
   D14       -2.08300   0.00016  -0.00040   0.00260   0.00220  -2.08080
   D15        2.10566   0.00031  -0.00083   0.00553   0.00471   2.11036
   D16        0.01151   0.00000   0.00003  -0.00027  -0.00025   0.01126
   D17        2.08306  -0.00016   0.00043  -0.00307  -0.00264   2.08042
   D18       -0.01147  -0.00000  -0.00000  -0.00014  -0.00014  -0.01160
[...]
 4068,0.1252498,0.1115967,0.0344148,0.0249801,0.0292489,-0.07497,-0.837
 8603,0.280438,0.0348293,0.0181442,-0.2679771,-0.0345254,-0.0094586,-0.
 030311,-0.0666074,0.0439191,0.0213927,0.0576152,-0.0094003,0.0724974,0
 .005554,0.0980218,-0.0023751,0.0146847,0.048479,0.0386082,-0.0465361,0
 .0231034,0.0670891,0.0136611,-0.0948735,0.0223194,0.0154482,0.0298191,
 -0.0093943,-0.0077077,-0.0008617,0.0506084,-0.0488903,-0.0320091,-0.08
 99627,-0.0344465,0.0286226,-0.0147094,0.0048369,-0.0133782,-0.0014883,
 0.059856,0.030812,0.1007542,0.0188775,0.1098289,0.008404,0.0007861,0.0
 159014,-0.0078518,-0.0262019,0.0020998,-0.0262794,0.1444761,-0.0020476
 ,-0.055404,-0.0119687,-0.0301545,0.097305,-0.0107915,-0.0076775,-0.011
 2287,0.1562603,0.1084998,0.0485171,0.0075194,-0.01404,0.0003551,-0.025
 4488,-0.0030653,-0.0244125,0.1455988\Polar=144.9535661,-17.9426716,106
 .9539286,-1.4816874,9.3572757,51.3683712\Quadrupole=1.7625523,-1.64279
 53,-0.119757,7.8446586,1.3564599,-0.1317961\PG=C01 [X(C9H7Br1O1)]\NIma
 g=0\\0.14194869,-0.21518684,0.78183386,-0.03466444,0.12403945,0.049900
 60,-0.15245604,0.17773343,0.02884713,0.49610229,0.17996158,-0.70774135
 ,-0.10492022,-0.17820062,0.95481819,0.02920291,-0.10489873,-0.08920298
 ,-0.02595250,0.11913420,0.25417367,0.02111065,-0.00027321,0.00005025,-
 0.11075105,-0.00543524,-0.00133214,0.54297642,-0.01589762,-0.04535752,
 -0.01071122,-0.03017974,-0.08020654,0.00072224,-0.03012078,0.36891115,
 -0.00260747,-0.01048962,0.01473986,-0.00543109,0.00116892,-0.08731498,
 -0.00552743,-0.03494712,0.56757494,-0.00313999,-0.00888428,-0.00161952
 ,0.01079547,0.00389411,0.00097042,-0.10105473,0.03171466,0.00508757,0.
 40428209,-0.00475810,-0.00287927,-0.00121475,0.01350278,-0.03786979,-0
 .00473797,0.02889351,-0.11756800,-0.00520967,0.04792572,0.54826185,-0.
 00091217,-0.00128299,0.00363893,0.00257571,-0.00487746,-0.00926996,0.0
 0461310,-0.00515777,-0.08481566,0.00509977,-0.00645842,0.59008432,-0.0
 0999847,0.00311311,0.00033165,-0.00239962,0.03398828,0.00554739,-0.038
 72206,0.00674285,0.00053103,-0.15854409,-0.02530118,-0.00548938,0.6989
 2307,-0.00323848,0.00876269,0.00106581,0.02754732,-0.03795671,-0.00748
 112,0.02199289,0.00773442,0.00186300,-0.03973977,-0.10261291,-0.003942
 02,-0.06639337,0.68157394,-0.00074623,0.00115718,0.00238759,0.00446232
 ,-0.00733974,0.00772461,0.00310822,0.00161129,-0.00083839,-0.00793151,
 -0.00372538,-0.08375248,-0.00328358,0.07818758,0.22496123,0.00015108,0
 .00117375,0.00022806,0.00066537,-0.00108060,-0.00029445,-0.00299325,-0
 .00250827,-0.00050438,-0.02163847,0.01152407,0.00152164,-0.28610526,0.
 06398546,0.00751981,0.67072359,0.00259376,-0.00040947,0.00025779,-0.00
 289775,-0.00573493,-0.00227714,-0.00366951,-0.00070136,-0.00050608,-0.
 01197557,0.01311740,0.00122745,0.12273940,-0.19123799,-0.01602297,-0.0
 1329730,0.76369554,0.00046516,0.00024059,-0.00165108,-0.00059655,-0.00
 225144,0.00709821,-0.00069870,-0.00048445,0.00184395,-0.00244419,0.001
 61387,0.00491701,0.01743716,-0.01699041,-0.08705869,0.00607857,0.10170
 097,0.17713132,0.00114750,-0.00175390,-0.00028109,-0.00156987,-0.00002
 176,-0.00001402,0.00028914,-0.00021443,-0.00004060,0.00106507,0.004322
 59,0.00063890,-0.07416463,0.02543001,0.00288901,-0.25812043,-0.1289697
 5,-0.02471121,0.55857608,-0.00019622,0.00132808,0.00020920,0.00261360,
 -0.00454293,-0.00061720,0.00127256,0.00005831,-0.00005014,0.00347525,-
 0.00053588,-0.00112380,-0.03072019,0.07019688,0.00934502,-0.07075467,-
 0.18719556,-0.01958959,0.05210546,0.60218308,-0.00001576,0.00018168,0.
 00011194,0.00042595,-0.00065708,-0.00075807,0.00021181,-0.00007630,0.0
 0047777,0.00050065,-0.00110464,0.00625205,-0.00658934,0.01026389,0.013
 47445,-0.01489236,-0.02054685,-0.08166517,0.01551509,0.07766592,0.1606
 1000,-0.00101792,0.00119115,0.00018285,0.00282237,-0.00104070,-0.00011
 840,-0.00066418,-0.00033943,-0.00006405,-0.00025739,0.00142232,0.00023
 517,0.00060037,-0.00617074,-0.00111012,-0.03593920,0.02127978,0.002914
 77,-0.12568865,0.05093400,0.00694722,0.17541130,0.00057513,-0.00047907
 ,-0.00009499,-0.00167956,0.00059594,0.00019472,0.00026031,0.00010401,0
 .00005807,-0.00015865,-0.00010330,-0.00002480,-0.00117559,0.00002565,-
 0.00082012,-0.00278087,0.00245275,-0.00056392,0.05117863,-0.05780933,-
 0.00476592,-0.07817651,0.07182327,0.00007822,-0.00008485,0.00012440,-0
 .00022582,0.00020500,-0.00068647,0.00003636,0.00004858,-0.00020904,-0.
 00003169,0.00000083,0.00002909,-0.00026642,-0.00090122,0.00461590,-0.0
 0114583,-0.00017048,0.00547922,0.00698772,-0.00476906,-0.02531868,-0.0
 1051178,0.00898514,0.01238304,0.00077425,0.00250879,0.00045168,0.00201
 041,-0.00842949,-0.00151378,-0.00038760,0.00029244,0.00006769,0.000354
 35,-0.00004491,0.00000784,-0.01999340,0.03399198,0.00554111,0.03692465
 ,-0.03144790,-0.00490984,-0.11844475,-0.03918808,-0.00724381,-0.017147
 89,0.03298921,0.00520189,0.76547083,0.00135262,-0.00046694,0.00007706,
 -0.00744456,-0.00022873,-0.00141177,-0.00150634,0.00049681,0.00030389,
 -0.00105675,-0.00146964,-0.00012622,0.03524438,-0.05469936,-0.00731162
 ,-0.07435762,-0.02712303,-0.00792857,0.01977528,-0.30843752,-0.0382509
 7,0.00899721,-0.01589463,-0.00345447,0.03915199,0.66566691,0.00025367,
 0.00009840,-0.00077225,-0.00134251,-0.00143102,0.00715933,-0.00023895,
 0.00033353,-0.00140313,-0.00015972,-0.00011363,-0.00081955,0.00575367,
 -0.00732867,-0.00912330,-0.01215263,-0.00722780,0.01121629,0.00270889,
 -0.03921722,-0.08659268,0.00114964,-0.00306056,0.00492684,0.01650624,0
 .08614501,0.17408607,0.00603483,-0.00600077,-0.00090135,-0.03285198,-0
 .00859457,-0.00206183,-0.00326546,0.00142825,0.00014379,-0.00052520,0.
 00206789,0.00023828,0.04056828,-0.07502066,-0.01220793,-0.07192920,-0.
 00118370,-0.00128262,0.03048558,0.08856458,0.01525315,0.00332034,-0.00
 422939,-0.00072965,-0.30167439,0.05705196,0.00598608,0.69116772,0.0002
 7885,-0.00511507,-0.00066116,0.00468328,0.02014104,0.00258958,0.004826
 82,-0.00105107,-0.00052711,0.00121191,-0.00373642,-0.00171950,-0.03432
 282,-0.03166990,-0.00802490,-0.00213009,-0.00015951,0.00091443,0.03473
 513,-0.03034940,-0.00659384,0.00056550,-0.00268822,-0.00114961,0.12076
 543,-0.18392896,-0.01592525,-0.00610231,0.76016289,0.00016233,-0.00075
 567,-0.00132262,0.00016259,0.00235877,0.00569467,0.00071942,-0.0005787
 0,0.00243194,0.00009040,-0.00170476,0.00629067,-0.00533888,-0.00868984
 ,0.01099673,-0.00143985,0.00093062,-0.00565773,0.00616492,-0.00571521,
 0.01119516,0.00008064,-0.00122718,0.00396728,0.01673047,-0.01696134,-0
 .08048751,0.00753597,0.09975529,0.18552989,-0.01099631,0.03876366,0.00
 599278,-0.17775665,-0.00911159,-0.00290170,-0.03541668,-0.00437823,-0.
 00169159,-0.01130901,-0.03267956,-0.00589487,-0.13074480,0.02791609,0.
 00410486,0.02857108,0.03546198,0.00619333,-0.01606188,-0.03481592,-0.0
 0595998,-0.00246945,0.00209756,0.00032230,-0.06980515,0.02149844,0.002
 23990,-0.27738588,-0.12020768,-0.02343984,0.71401975,0.05116761,-0.028
 77445,-0.00790454,0.02333997,-0.09746259,-0.00032501,-0.02035336,-0.00
 370080,-0.00471198,-0.01872780,-0.02189868,-0.00601012,-0.03125173,-0.
 31821192,-0.03840914,0.07566997,-0.02708727,-0.00597688,-0.03146564,-0
 .05700955,-0.00828142,0.00121377,0.00062062,0.00020992,-0.02259988,0.0
 6392956,0.00792019,-0.07818386,-0.19892516,-0.02039820,0.07711258,0.70
 527727,0.00812601,-0.00812476,0.02157130,0.00250266,-0.00085514,-0.093
 18455,-0.00433585,-0.00444034,0.02146246,-0.00353702,-0.00622727,0.010
 72261,-0.00588953,-0.03744154,-0.10000605,0.01298945,-0.00663424,0.014
 76989,-0.00539305,-0.00833386,-0.01249188,0.00017371,0.00022366,-0.000
 46378,-0.00519785,0.00863559,0.01616828,-0.01636511,-0.02108286,-0.089
 51683,0.02177823,0.09025492,0.19356712,0.00195434,0.00143246,-0.002030
 29,-0.01497118,-0.00394431,0.01766342,-0.14089445,-0.01482378,0.131455
 40,-0.00890734,-0.00206338,0.01269277,-0.00150077,0.00089447,0.0004833
 0,-0.00050717,-0.00031999,-0.00033233,0.00002963,0.00010392,-0.0000013
 2,-0.00008610,0.00001007,0.00002466,-0.00014505,-0.00026328,0.00012698
 ,-0.00054783,0.00041743,-0.00019795,-0.00204817,-0.00094781,-0.0024467
 8,0.15560539,0.00225323,0.00069900,-0.00381003,-0.01729793,-0.00340341
 ,0.02545518,-0.01723902,-0.04871736,0.02534316,0.01818143,-0.00002850,
 -0.02212490,0.00068142,-0.00303457,-0.00035089,0.00095081,0.00039345,0
 .00076472,-0.00004547,-0.00036818,-0.00005068,0.00005238,0.00004217,-0
 .00005999,-0.00027731,0.00008268,0.00028717,-0.00013971,0.00056621,-0.
 00021886,-0.00230658,-0.00127187,-0.00373368,0.01604896,0.05549855,0.0
 0001520,0.00086214,0.00019810,-0.00463959,-0.00290014,0.00508923,0.129
 55667,0.02151146,-0.21643313,-0.00068626,0.00104823,-0.00110608,-0.000
 99145,-0.00009999,-0.00006230,0.00002106,0.00002519,-0.00013220,-0.000
 04791,0.00000995,0.00000538,0.00001287,-0.00000482,0.00001254,-0.00001
 646,-0.00002620,0.00011098,-0.00012925,0.00015205,-0.00007551,-0.00059
 803,0.00007251,-0.00144805,-0.14062923,-0.02421473,0.23443449,0.001872
 02,0.00069964,0.00242524,-0.01445481,0.00208119,-0.01847301,-0.1328458
 3,0.02841824,-0.12643986,-0.00861594,0.00230674,-0.01299320,-0.0015262
 9,0.00102484,-0.00020574,-0.00051993,-0.00041300,0.00019910,0.00002745
 ,0.00009956,0.00003651,-0.00008536,0.00001802,-0.00002345,-0.00013880,
 -0.00020653,-0.00021300,-0.00055932,0.00033353,0.00030772,-0.00213232,
 -0.00168661,0.00195862,0.01206891,-0.00290819,0.01782725,0.14696454,0.
 00201562,-0.00029005,0.00370263,-0.01697879,0.00459051,-0.02610461,0.0
 2563422,-0.05252093,0.03308960,0.01634330,-0.00676060,0.02076699,0.000
 33676,-0.00286493,-0.00060842,0.00092722,0.00057944,-0.00048904,-0.000
 05853,-0.00034063,-0.00007139,0.00005245,0.00001842,0.00006403,-0.0002
 5712,0.00016879,-0.00027542,-0.00018342,0.00047511,0.00040312,-0.00249
 256,-0.00240808,0.00330747,0.00291402,0.00018830,0.00387849,-0.0302649
 2,0.06003961,0.00073939,-0.00100921,0.00125686,-0.00164052,0.00276141,
 -0.00340921,-0.12541929,0.03700476,-0.22069274,0.00616382,-0.00294218,
 0.00534050,0.00111980,-0.00084613,-0.00021198,0.00028777,0.00020870,-0
 .00030471,0.00003131,-0.00012754,-0.00002021,0.00000119,0.00000764,0.0
 0003525,-0.00008048,0.00003976,0.00001817,0.00005904,0.00004973,0.0000
 2630,-0.00025133,-0.00046420,-0.00024266,-0.01673065,0.00391895,-0.022
 28145,0.13540221,-0.03804379,0.23856164,0.00113985,0.00110349,-0.00015
 321,-0.00387037,-0.00001486,-0.00008155,0.00104521,0.01181070,0.019101
 05,-0.05122754,-0.01553918,-0.03314708,-0.00771278,-0.01619417,-0.0308
 6233,0.00071038,-0.00060954,0.00078177,0.00034124,-0.00029592,0.001110
 16,-0.00002172,0.00005376,-0.00002803,-0.00013913,-0.00024829,-0.00026
 038,-0.00013401,-0.00075433,0.00107701,-0.00246290,-0.00029554,0.00041
 102,-0.00092247,0.00242956,0.00069382,0.00095434,-0.00039775,0.0002755
 3,0.06100752,-0.00074720,-0.00124596,0.00039574,0.00256360,-0.00161481
 ,-0.00163505,-0.00199467,-0.01118055,-0.02118396,-0.01397282,-0.093299
 61,-0.09824609,-0.00515357,-0.00665201,-0.01050518,0.00139693,0.000545
 63,0.00011580,-0.00049152,-0.00081956,0.00041370,-0.00003649,0.0000279
 9,0.00000221,-0.00006580,0.00055090,0.00004388,0.00039822,-0.00041314,
 0.00053325,-0.00178090,0.00002057,-0.00005260,0.00076456,-0.00204313,-
 0.00040674,-0.00020337,0.00120262,-0.00012299,0.01591364,0.10453706,-0
 .00006049,0.00009351,-0.00017390,0.00034034,0.00069584,0.00020623,-0.0
 0031069,0.00118499,-0.00080645,-0.03182484,-0.10018186,-0.26248395,-0.
 00006081,0.00003155,0.00102411,0.00028627,-0.00015853,0.00056283,-0.00
 042640,-0.00042475,0.00015515,-0.00004894,0.00003669,0.00000229,-0.000
 14031,0.00040552,0.00003003,0.00033902,0.00002283,-0.00003258,-0.00040
 639,0.00043211,-0.00041970,-0.00002775,-0.00068656,0.00037626,-0.00002
 076,0.00031184,0.00146599,0.03635543,0.10895491,0.28303233,0.00113023,
 0.00099341,0.00055409,-0.00387665,0.00001457,-0.00005504,0.00158499,0.
 01753454,-0.01416468,-0.05326858,-0.03027700,0.03093251,-0.00856103,-0
 .02531814,0.02349757,0.00073996,-0.00032426,-0.00093297,0.00036777,0.0
 0007585,-0.00113940,-0.00002400,0.00004259,0.00004366,-0.00014949,-0.0
 0031032,0.00016205,-0.00008795,-0.00035728,-0.00126249,-0.00245038,-0.
 00011924,-0.00054386,0.00096632,-0.00027053,-0.00040280,-0.00091598,0.
 00251638,0.00009525,0.00176569,0.00345370,-0.00362977,0.06328925,-0.00
 071614,-0.00097966,-0.00070201,0.00251887,-0.00172638,0.00104933,-0.00
 257595,-0.01635144,0.01581334,-0.02830587,-0.17277903,0.12836267,-0.00
 510612,-0.00891516,0.00671541,0.00141512,0.00052984,-0.00007674,-0.000
 58632,-0.00071432,-0.00072991,-0.00005048,0.00003730,0.00000816,-0.000
 10855,0.00063556,0.00016169,0.00050445,-0.00020093,-0.00056854,-0.0018
 0688,0.00010534,0.00017454,-0.00019884,0.00129037,0.00005739,0.0007196
 2,-0.00213600,-0.00043799,0.00245217,0.01026544,-0.01075524,0.03202542
 ,0.19104098,-0.00014164,-0.00034109,-0.00043081,0.00038364,-0.00136807
 ,0.00031723,-0.00047990,-0.00601140,0.00382243,0.03021007,0.13024504,-
 0.18095396,-0.00202829,-0.00432445,0.00412451,0.00019205,0.00013731,0.
 00055175,0.00025292,0.00012385,0.00002592,0.00003355,-0.00002339,-0.00
 000458,0.00010778,-0.00020731,-0.00004467,-0.00018647,-0.00009123,-0.0
 0029164,-0.00026152,-0.00025570,-0.00051290,-0.00006159,-0.00038291,0.
 00136477,0.00023291,-0.00010284,0.00046528,0.00543988,0.02227294,-0.02
 257959,-0.03401151,-0.13973151,0.19424865,-0.00087662,0.00023862,0.000
 02884,0.00133583,0.00138804,0.00025555,0.00000166,-0.00018538,-0.00002
 961,0.00169990,-0.00039881,0.00001742,0.00404477,0.03037133,0.00510107
 ,-0.06085284,0.01174852,0.00170013,0.00268066,-0.02940348,-0.00498292,
 0.00064365,-0.00083107,-0.00008818,-0.00449747,-0.00176350,-0.00047964
 ,-0.00104051,-0.00002645,-0.00000804,-0.00487237,0.00145365,0.00003463
 ,0.00001217,-0.00007001,-0.00000550,0.00001316,-0.00007018,-0.00001766
 ,-0.00024034,0.00003378,-0.00035000,-0.00027486,-0.00009899,0.00033787
 ,0.06192683,0.00052244,-0.00038794,-0.00003522,-0.00106718,-0.00022458
 ,-0.00005324,-0.00000086,-0.00005498,0.00000293,-0.00022207,0.00076280
 ,0.00071701,-0.00209786,-0.01080399,-0.00280939,0.00822305,-0.33777308
 ,-0.04953475,0.00410290,-0.01326689,-0.00283651,0.00040414,0.00110196,
 0.00062481,-0.00242647,0.00109682,-0.00098066,0.00007755,0.00080082,0.
 00027452,0.00238027,0.00131332,-0.00107827,0.00000352,0.00005668,0.000
 01839,0.00001210,0.00003498,-0.00000128,0.00067236,0.00018988,0.000010
 03,0.00042895,0.00000228,0.00011299,-0.01110677,0.35779302,0.00007641,
 -0.00003973,-0.00013634,-0.00015931,-0.00001378,-0.00001841,0.00000134
 ,0.00000013,-0.00007266,0.00004621,0.00071356,-0.00338617,-0.00038178,
 -0.00227928,0.00524752,0.00110819,-0.04947419,-0.05179791,0.00067019,-
 0.00338536,0.00337540,0.00012072,0.00060455,-0.00245737,-0.00059315,-0
 .00096917,0.00649908,0.00001068,0.00027317,-0.00077107,0.00019458,-0.0
 0109491,0.00775680,0.00002629,-0.00006482,-0.00001309,-0.00002304,0.00
 007929,0.00000749,-0.00062298,-0.00043337,-0.00031650,0.00080731,0.000
 53779,-0.00009476,-0.00131776,0.05551687,0.03711128,-0.00007942,0.0005
 3103,0.00008840,0.00013004,-0.00159537,-0.00027266,-0.00040046,0.00008
 448,0.00001541,-0.00003911,0.00007890,0.00002261,0.00034850,0.00082106
 ,0.00015557,0.00111630,0.00129285,0.00014189,0.00278141,0.00441862,0.0
 0073087,0.00121709,0.00082275,0.00019767,-0.27642231,-0.12567300,-0.02
 502040,-0.01916139,-0.01617467,-0.00313458,-0.00294600,0.00379909,0.00
 045838,-0.00005414,-0.00006451,-0.00001215,-0.00005305,-0.00006308,-0.
 00001123,0.00000997,-0.00002455,-0.00001179,0.00000651,-0.00003064,0.0
 0000357,0.00025965,0.00009512,0.00001644,0.29211788,-0.00003071,-0.000
 17878,-0.00003566,0.00019663,0.00078648,0.00008165,0.00022080,-0.00003
 617,0.00007565,-0.00001710,0.00000569,0.00010384,0.00102842,-0.0006419
 7,0.00002526,0.00161246,-0.00463742,-0.00173833,-0.02950201,-0.0135175
 9,-0.00339222,-0.00041042,0.00044829,0.00047215,-0.12267660,-0.1315353
 4,-0.01689493,0.01611808,0.01256647,0.00144333,0.00329483,-0.00107276,
 -0.00151147,0.00001868,0.00003553,0.00000278,0.00003061,0.00005100,0.0
 0001123,0.00004508,0.00002059,0.00002546,0.00001223,-0.00000902,-0.000
 01397,-0.00130144,-0.00052134,-0.00014904,0.13176489,0.13761593,-0.000
 00672,-0.00002630,0.00002358,0.00003024,0.00005228,0.00033258,0.000038
 14,0.00007368,-0.00045116,0.00000642,0.00010508,-0.00059243,0.00019084
 ,0.00002215,-0.00068471,0.00019671,-0.00174349,0.00552202,-0.00499773,
 -0.00283970,0.00315859,-0.00001014,0.00049219,-0.00230430,-0.02451403,
 -0.01694227,-0.04659020,0.00231759,0.00091612,0.00576889,0.00037314,-0
 .00150380,0.00795559,0.00003882,0.00005423,0.00001341,-0.00003236,-0.0
 0004304,-0.00000321,-0.00009353,-0.00009971,-0.00004118,0.00010422,0.0
 0010938,-0.00000816,-0.00021955,-0.00012622,0.00021062,0.02654920,0.02
 059308,0.03229459,0.00130131,0.00261644,0.00046892,0.00109643,-0.00385
 866,-0.00056862,0.00038769,0.00062149,0.00009882,0.00033050,-0.0009823
 9,-0.00015903,-0.00451179,-0.00190013,-0.00051540,-0.00099666,-0.00000
 804,-0.00000349,-0.00374132,0.00171109,0.00009350,-0.00061327,0.000983
 62,0.00015838,0.00341095,0.02975831,0.00498011,-0.06241363,0.01225776,
 0.00179015,0.00626713,-0.02812516,-0.00472365,-0.00005207,0.00002147,0
 .00003176,-0.00005281,0.00002640,-0.00002415,-0.00024296,-0.00005354,-
 0.00000214,-0.00024179,-0.00005086,-0.00002333,0.00003673,-0.00000118,
 0.00001966,0.00116853,-0.00040443,0.00002873,0.05886704,0.00005048,0.0
 0168190,0.00034214,0.00104663,-0.00221943,0.00031495,0.00006785,0.0001
 4200,-0.00009290,0.00031430,-0.00060611,-0.00008386,-0.00235221,0.0010
 0784,-0.00111397,0.00003059,0.00074558,0.00027375,0.00145931,0.0011409
 9,-0.00116747,0.00011208,-0.00032383,-0.00003114,-0.00217772,-0.008843
 88,-0.00253470,0.01342741,-0.33647475,-0.04888060,0.00105449,-0.013443
 54,-0.00308015,-0.00004671,0.00001407,0.00001403,-0.00006145,-0.000027
 54,-0.00000686,-0.00013115,-0.00009192,0.00000165,-0.00012087,-0.00009
 519,-0.00003826,0.00002214,-0.00011974,0.00017829,-0.00008296,0.000620
 41,0.00090635,-0.01261220,0.35689314,0.00003560,0.00037998,-0.00026319
 ,0.00025733,0.00023769,-0.00395113,0.00000765,-0.00008335,0.00068397,0
 .00005941,-0.00010605,-0.00009494,-0.00059209,-0.00110932,0.00718124,-
 0.00000010,0.00027375,-0.00082501,0.00005306,-0.00116050,0.00800487,0.
 00001111,-0.00001695,-0.00013162,-0.00040499,-0.00201692,0.00561823,0.
 00198061,-0.04889774,-0.05374602,0.00020611,-0.00355377,0.00431235,-0.
 00005377,-0.00012536,-0.00005335,0.00003486,0.00013509,-0.00001130,0.0
 0000341,-0.00004674,-0.00000138,-0.00005414,0.00001225,0.00000051,0.00
 002336,0.00017799,-0.00114391,0.00008279,0.00090118,-0.00460453,-0.001
 65021,0.05499877,0.03902523\\0.00007181,-0.00017828,0.00007576,-0.0001
 2640,0.00022099,-0.00026993,0.00005310,0.00006283,0.00011832,-0.000020
 00,-0.00010008,-0.00001295,0.00005058,0.00004223,-0.00000362,-0.000081
 53,-0.00003240,-0.00002038,0.00000999,0.00008413,0.00001219,-0.0000159
 7,-0.00001300,-0.00000035,0.00006461,-0.00001702,-0.00000564,-0.000026
 89,-0.00001329,0.00001237,0.00007212,-0.00009796,0.00008738,-0.0000402
 2,-0.00003626,-0.00000265,-0.00000587,0.00000480,-0.00000204,-0.000002
 47,0.00002956,0.00000465,-0.00000350,0.00003274,0.00000782,0.00001923,
 0.00000468,0.00000326,-0.00000270,-0.00000590,-0.00000350,-0.00001588,
 0.00001226,-0.00000068\\\@
 The archive entry for this job was punched.


 OLD HORSE! OLD HORSE! WHAT BROUGHT YOU HERE?
 FROM SACARAP' TO PORTLAND PIER
 I'VE CARTED STONE THIS MANY A YEAR;
 TILL, KILLED BY BLOWS AND SORE ABUSE,
 THEY SALTED ME DOWN FOR SAILORS' USE.
 THE SAILORS THEY DO ME DESPISE;
 THEY TURN ME OVER AND DAMN MY EYES;
 CUT OFF MY MEAT, AND SCRAPE MY BONES,
 AND PITCH ME OVER TO DAVY JONES.

    SAILORS' COMPLAINT ABOUT THE BEEF
    SERVED ON SHIPBOARD, CIRCA 1835.
 Job cpu time:       0 days  0 hours 12 minutes 21.3 seconds.
 Elapsed time:       0 days  0 hours  0 minutes 31.1 seconds.
 File lengths (MBytes):  RWF=     56 Int=      0 D2E=      0 Chk=      3 Scr=      1
 Normal termination of Gaussian 16 at Wed Sep 25 14:32:44 2024.
