 Entering Gaussian System, Link 0=/usr/local/Gaussian/G16C/g16/g16
 Input=arbr43_wb97xd.com
 Output=arbr43_wb97xd.log
 Initial command:
 /usr/local/Gaussian/G16C/g16/l1.exe "/home/rpaton/opt/midi/Gau-4134431.inp" -scrdir="/home/rpaton/opt/midi/"
 Entering Link 1 = /usr/local/Gaussian/G16C/g16/l1.exe PID=   4134432.
  
 Copyright (c) 1988-2019, Gaussian, Inc.  All Rights Reserved.
  
 This is part of the Gaussian(R) 16 program.  It is based on
 the Gaussian(R) 09 system (copyright 2009, Gaussian, Inc.),
 the Gaussian(R) 03 system (copyright 2003, Gaussian, Inc.),
 the Gaussian(R) 98 system (copyright 1998, Gaussian, Inc.),
 the Gaussian(R) 94 system (copyright 1995, Gaussian, Inc.),
 the Gaussian 92(TM) system (copyright 1992, Gaussian, Inc.),
 the Gaussian 90(TM) system (copyright 1990, Gaussian, Inc.),
 the Gaussian 88(TM) system (copyright 1988, Gaussian, Inc.),
 the Gaussian 86(TM) system (copyright 1986, Carnegie Mellon
 University), and the Gaussian 82(TM) system (copyright 1983,
 Carnegie Mellon University). Gaussian is a federally registered
 trademark of Gaussian, Inc.
  
 This software contains proprietary and confidential information,
 including trade secrets, belonging to Gaussian, Inc.
  
 This software is provided under written license and may be
 used, copied, transmitted, or stored only in accord with that
 written license.
  
 The following legend is applicable only to US Government
 contracts under FAR:
  
                    RESTRICTED RIGHTS LEGEND
  
 Use, reproduction and disclosure by the US Government is
 subject to restrictions as set forth in subparagraphs (a)
 and (c) of the Commercial Computer Software - Restricted
 Rights clause in FAR 52.227-19.
  
 Gaussian, Inc.
 340 Quinnipiac St., Bldg. 40, Wallingford CT 06492
  
  
 ---------------------------------------------------------------
 Warning -- This program may not be used in any manner that
 competes with the business of Gaussian, Inc. or will provide
 assistance to any competitor of Gaussian, Inc.  The licensee
 of this program is prohibited from giving any competitor of
 Gaussian, Inc. access to this program.  By using this program,
 the user acknowledges that Gaussian, Inc. is engaged in the
 business of creating and licensing software in the field of
 computational chemistry and represents and warrants to the
 licensee that it is not a competitor of Gaussian, Inc. and that
 it will not use this program in any manner prohibited above.
 ---------------------------------------------------------------
  

 Cite this work as:
 Gaussian 16, Revision C.01,
 M. J. Frisch, G. W. Trucks, H. B. Schlegel, G. E. Scuseria, 
 M. A. Robb, J. R. Cheeseman, G. Scalmani, V. Barone, 
 G. A. Petersson, H. Nakatsuji, X. Li, M. Caricato, A. V. Marenich, 
 J. Bloino, B. G. Janesko, R. Gomperts, B. Mennucci, H. P. Hratchian, 
 J. V. Ortiz, A. F. Izmaylov, J. L. Sonnenberg, D. Williams-Young, 
 F. Ding, F. Lipparini, F. Egidi, J. Goings, B. Peng, A. Petrone, 
 T. Henderson, D. Ranasinghe, V. G. Zakrzewski, J. Gao, N. Rega, 
 G. Zheng, W. Liang, M. Hada, M. Ehara, K. Toyota, R. Fukuda, 
 J. Hasegawa, M. Ishida, T. Nakajima, Y. Honda, O. Kitao, H. Nakai, 
 T. Vreven, K. Throssell, J. A. Montgomery, Jr., J. E. Peralta, 
 F. Ogliaro, M. J. Bearpark, J. J. Heyd, E. N. Brothers, K. N. Kudin, 
 V. N. Staroverov, T. A. Keith, R. Kobayashi, J. Normand, 
 K. Raghavachari, A. P. Rendell, J. C. Burant, S. S. Iyengar, 
 J. Tomasi, M. Cossi, J. M. Millam, M. Klene, C. Adamo, R. Cammi, 
 J. W. Ochterski, R. L. Martin, K. Morokuma, O. Farkas, 
 J. B. Foresman, and D. J. Fox, Gaussian, Inc., Wallingford CT, 2019.
 
 ******************************************
 Gaussian 16:  ES64L-G16RevC.01  3-Jul-2019
                25-Sep-2024 
 ******************************************
 %nprocshared=24
 Will use up to   24 processors via shared memory.
 %mem=96GB
 -----------------------
 # opt freq wb97xd/midix
 -----------------------
 1/18=20,19=15,26=3,38=1/1,3;
 2/9=110,12=2,17=6,18=5,40=1/2;
 3/5=20,11=2,25=1,30=1,71=1,74=-58/1,2,3;
 4//1;
 5/5=2,38=5/2;
 6/7=2,8=2,9=2,10=2,28=1/1;
 7//1,2,3,16;
 1/18=20,19=15,26=3/3(2);
 2/9=110/2;
 99//99;
 2/9=110/2;
 3/5=20,11=2,25=1,30=1,71=1,74=-58/1,2,3;
 4/5=5,16=3,69=1/1;
 5/5=2,38=5/2;
 7//1,2,3,16;
 1/18=20,19=15,26=3/3(-5);
 2/9=110/2;
 6/7=2,8=2,9=2,10=2,19=2,28=1/1;
 99/9=1/99;
 --------------------------
 arbr43_rdkit_conf_1_wb97xd
 --------------------------
 Symbolic Z-matrix:
 Charge =  0 Multiplicity = 1
 Br                    4.3306   -1.4244   -0.7581 
 C                     2.6558   -0.643    -0.3592 
 C                     2.6053    0.6238    0.2192 
 C                     1.3687    1.2037    0.5085 
 C                     0.1804    0.5194    0.2174 
 C                     0.249    -0.7631   -0.3413 
 C                     1.4831   -1.3385   -0.6433 
 O                    -0.8545   -1.5113   -0.6568 
 C                    -2.0722   -1.0661   -0.0523 
 C                    -2.2676    0.4328   -0.2035 
 C                    -1.1457    1.1516    0.5305 
 H                     3.519     1.1673    0.4449 
 H                     1.3363    2.1946    0.9561 
 H                     1.5173   -2.3268   -1.0925 
 H                    -2.8914   -1.5945   -0.5512 
 H                    -2.0824   -1.3718    1.0014 
 H                    -2.2351    0.6987   -1.2678 
 H                    -3.2404    0.7434    0.1911 
 H                    -1.3126    1.0947    1.6131 
 H                    -1.1439    2.2095    0.2438 
 

 GradGradGradGradGradGradGradGradGradGradGradGradGradGradGradGradGradGrad
 Berny optimization.
 Initialization pass.
                           ----------------------------
                           !    Initial Parameters    !
                           ! (Angstroms and Degrees)  !
 --------------------------                            --------------------------
 ! Name  Definition              Value          Derivative Info.                !
 --------------------------------------------------------------------------------
 ! R1    R(1,2)                  1.8907         estimate D2E/DX2                !
 ! R2    R(2,3)                  1.3935         estimate D2E/DX2                !
 ! R3    R(2,7)                  1.3927         estimate D2E/DX2                !
 ! R4    R(3,4)                  1.3961         estimate D2E/DX2                !
 ! R5    R(3,12)                 1.0868         estimate D2E/DX2                !
 ! R6    R(4,5)                  1.4018         estimate D2E/DX2                !
 ! R7    R(4,13)                 1.0878         estimate D2E/DX2                !
 ! R8    R(5,6)                  1.4006         estimate D2E/DX2                !
 ! R9    R(5,11)                 1.5021         estimate D2E/DX2                !
 ! R10   R(6,7)                  1.3947         estimate D2E/DX2                !
 ! R11   R(6,8)                  1.3701         estimate D2E/DX2                !
 ! R12   R(7,14)                 1.0861         estimate D2E/DX2                !
 ! R13   R(8,9)                  1.4305         estimate D2E/DX2                !
 ! R14   R(9,10)                 1.5191         estimate D2E/DX2                !
 ! R15   R(9,15)                 1.0951         estimate D2E/DX2                !
 ! R16   R(9,16)                 1.0972         estimate D2E/DX2                !
 ! R17   R(10,11)                1.5212         estimate D2E/DX2                !
 ! R18   R(10,17)                1.0975         estimate D2E/DX2                !
 ! R19   R(10,18)                1.0948         estimate D2E/DX2                !
 ! R20   R(11,19)                1.0969         estimate D2E/DX2                !
 ! R21   R(11,20)                1.0961         estimate D2E/DX2                !
 ! A1    A(1,2,3)              119.695          estimate D2E/DX2                !
 ! A2    A(1,2,7)              119.7656         estimate D2E/DX2                !
 ! A3    A(3,2,7)              120.5393         estimate D2E/DX2                !
 ! A4    A(2,3,4)              119.7161         estimate D2E/DX2                !
 ! A5    A(2,3,12)             120.6864         estimate D2E/DX2                !
 ! A6    A(4,3,12)             119.5972         estimate D2E/DX2                !
 ! A7    A(3,4,5)              120.334          estimate D2E/DX2                !
 ! A8    A(3,4,13)             119.3417         estimate D2E/DX2                !
 ! A9    A(5,4,13)             120.3231         estimate D2E/DX2                !
 ! A10   A(4,5,6)              119.2298         estimate D2E/DX2                !
 ! A11   A(4,5,11)             119.9759         estimate D2E/DX2                !
 ! A12   A(6,5,11)             120.7828         estimate D2E/DX2                !
 ! A13   A(5,6,7)              120.496          estimate D2E/DX2                !
 ! A14   A(5,6,8)              123.5369         estimate D2E/DX2                !
 ! A15   A(7,6,8)              115.9454         estimate D2E/DX2                !
 ! A16   A(2,7,6)              119.6601         estimate D2E/DX2                !
 ! A17   A(2,7,14)             120.8141         estimate D2E/DX2                !
 ! A18   A(6,7,14)             119.5249         estimate D2E/DX2                !
 ! A19   A(6,8,9)              114.73           estimate D2E/DX2                !
 ! A20   A(8,9,10)             111.9935         estimate D2E/DX2                !
 ! A21   A(8,9,15)             107.1032         estimate D2E/DX2                !
 ! A22   A(8,9,16)             109.0881         estimate D2E/DX2                !
 ! A23   A(10,9,15)            109.544          estimate D2E/DX2                !
 ! A24   A(10,9,16)            111.6724         estimate D2E/DX2                !
 ! A25   A(15,9,16)            107.2252         estimate D2E/DX2                !
 ! A26   A(9,10,11)            108.865          estimate D2E/DX2                !
 ! A27   A(9,10,17)            109.3759         estimate D2E/DX2                !
 ! A28   A(9,10,18)            110.9993         estimate D2E/DX2                !
 ! A29   A(11,10,17)           109.3656         estimate D2E/DX2                !
 ! A30   A(11,10,18)           110.326          estimate D2E/DX2                !
 ! A31   A(17,10,18)           107.8855         estimate D2E/DX2                !
 ! A32   A(5,11,10)            110.5881         estimate D2E/DX2                !
 ! A33   A(5,11,19)            108.5561         estimate D2E/DX2                !
 ! A34   A(5,11,20)            110.5029         estimate D2E/DX2                !
 ! A35   A(10,11,19)           109.8466         estimate D2E/DX2                !
 ! A36   A(10,11,20)           109.3335         estimate D2E/DX2                !
 ! A37   A(19,11,20)           107.9682         estimate D2E/DX2                !
 ! D1    D(1,2,3,4)            179.7174         estimate D2E/DX2                !
 ! D2    D(1,2,3,12)            -0.0848         estimate D2E/DX2                !
 ! D3    D(7,2,3,4)             -0.3994         estimate D2E/DX2                !
 ! D4    D(7,2,3,12)           179.7984         estimate D2E/DX2                !
 ! D5    D(1,2,7,6)            179.6453         estimate D2E/DX2                !
 ! D6    D(1,2,7,14)            -0.0109         estimate D2E/DX2                !
 ! D7    D(3,2,7,6)             -0.2378         estimate D2E/DX2                !
 ! D8    D(3,2,7,14)          -179.894          estimate D2E/DX2                !
 ! D9    D(2,3,4,5)             -0.1391         estimate D2E/DX2                !
 ! D10   D(2,3,4,13)          -179.7424         estimate D2E/DX2                !
 ! D11   D(12,3,4,5)           179.6652         estimate D2E/DX2                !
 ! D12   D(12,3,4,13)            0.0619         estimate D2E/DX2                !
 ! D13   D(3,4,5,6)              1.2985         estimate D2E/DX2                !
 ! D14   D(3,4,5,11)          -179.925          estimate D2E/DX2                !
 ! D15   D(13,4,5,6)          -179.1021         estimate D2E/DX2                !
 ! D16   D(13,4,5,11)           -0.3256         estimate D2E/DX2                !
 ! D17   D(4,5,6,7)             -1.9436         estimate D2E/DX2                !
 ! D18   D(4,5,6,8)            179.8205         estimate D2E/DX2                !
 ! D19   D(11,5,6,7)           179.2901         estimate D2E/DX2                !
 ! D20   D(11,5,6,8)             1.0542         estimate D2E/DX2                !
 ! D21   D(4,5,11,10)          164.2173         estimate D2E/DX2                !
 ! D22   D(4,5,11,19)          -75.2087         estimate D2E/DX2                !
 ! D23   D(4,5,11,20)           43.0166         estimate D2E/DX2                !
 ! D24   D(6,5,11,10)          -17.0255         estimate D2E/DX2                !
 ! D25   D(6,5,11,19)          103.5484         estimate D2E/DX2                !
 ! D26   D(6,5,11,20)         -138.2262         estimate D2E/DX2                !
 ! D27   D(5,6,7,2)              1.421          estimate D2E/DX2                !
 ! D28   D(5,6,7,14)          -178.9183         estimate D2E/DX2                !
 ! D29   D(8,6,7,2)            179.7858         estimate D2E/DX2                !
 ! D30   D(8,6,7,14)            -0.5535         estimate D2E/DX2                !
 ! D31   D(5,6,8,9)            -16.3813         estimate D2E/DX2                !
 ! D32   D(7,6,8,9)            165.3091         estimate D2E/DX2                !
 ! D33   D(6,8,9,10)            47.499          estimate D2E/DX2                !
 ! D34   D(6,8,9,15)           167.6155         estimate D2E/DX2                !
 ! D35   D(6,8,9,16)           -76.6414         estimate D2E/DX2                !
 ! D36   D(8,9,10,11)          -63.0306         estimate D2E/DX2                !
 ! D37   D(8,9,10,17)           56.4169         estimate D2E/DX2                !
 ! D38   D(8,9,10,18)          175.3447         estimate D2E/DX2                !
 ! D39   D(15,9,10,11)         178.2877         estimate D2E/DX2                !
 ! D40   D(15,9,10,17)         -62.2648         estimate D2E/DX2                !
 ! D41   D(15,9,10,18)          56.663          estimate D2E/DX2                !
 ! D42   D(16,9,10,11)          59.6544         estimate D2E/DX2                !
 ! D43   D(16,9,10,17)         179.1018         estimate D2E/DX2                !
 ! D44   D(16,9,10,18)         -61.9703         estimate D2E/DX2                !
 ! D45   D(9,10,11,5)           45.419          estimate D2E/DX2                !
 ! D46   D(9,10,11,19)         -74.3824         estimate D2E/DX2                !
 ! D47   D(9,10,11,20)         167.31           estimate D2E/DX2                !
 ! D48   D(17,10,11,5)         -74.0349         estimate D2E/DX2                !
 ! D49   D(17,10,11,19)        166.1637         estimate D2E/DX2                !
 ! D50   D(17,10,11,20)         47.8561         estimate D2E/DX2                !
 ! D51   D(18,10,11,5)         167.4527         estimate D2E/DX2                !
 ! D52   D(18,10,11,19)         47.6514         estimate D2E/DX2                !
 ! D53   D(18,10,11,20)        -70.6563         estimate D2E/DX2                !
 --------------------------------------------------------------------------------
 Trust Radius=3.00D-01 FncErr=1.00D-07 GrdErr=1.00D-06 EigMax=2.50D+02 EigMin=1.00D-04
 Number of steps in this run=    120 maximum allowed number of steps=    120.
 GradGradGradGradGradGradGradGradGradGradGradGradGradGradGradGradGradGrad

                          Input orientation:                          
 ---------------------------------------------------------------------
 Center     Atomic      Atomic             Coordinates (Angstroms)
 Number     Number       Type             X           Y           Z
 ---------------------------------------------------------------------
      1         35           0        4.330600   -1.424400   -0.758100
      2          6           0        2.655800   -0.643000   -0.359200
      3          6           0        2.605300    0.623800    0.219200
      4          6           0        1.368700    1.203700    0.508500
      5          6           0        0.180400    0.519400    0.217400
      6          6           0        0.249000   -0.763100   -0.341300
      7          6           0        1.483100   -1.338500   -0.643300
      8          8           0       -0.854500   -1.511300   -0.656800
      9          6           0       -2.072200   -1.066100   -0.052300
     10          6           0       -2.267600    0.432800   -0.203500
     11          6           0       -1.145700    1.151600    0.530500
     12          1           0        3.519000    1.167300    0.444900
     13          1           0        1.336300    2.194600    0.956100
     14          1           0        1.517300   -2.326800   -1.092500
     15          1           0       -2.891400   -1.594500   -0.551200
     16          1           0       -2.082400   -1.371800    1.001400
     17          1           0       -2.235100    0.698700   -1.267800
     18          1           0       -3.240400    0.743400    0.191100
     19          1           0       -1.312600    1.094700    1.613100
     20          1           0       -1.143900    2.209500    0.243800
 ---------------------------------------------------------------------
                    Distance matrix (angstroms):
                    1          2          3          4          5
     1  Br   0.000000
     2  C    1.890678   0.000000
     3  C    2.850772   1.393513   0.000000
     4  C    4.157407   2.412433   1.396123   0.000000
     5  C    4.685522   2.794861   2.427147   1.401807   0.000000
     6  C    4.155779   2.409861   2.791022   2.417476   1.400592
     7  C    2.851108   1.392716   2.419475   2.793298   2.426855
     8  O    5.186817   3.628321   4.158875   3.697535   2.441103
     9  C    6.451541   4.756804   4.980811   4.160082   2.767807
    10  C    6.876992   5.041969   4.894927   3.784694   2.485430
    11  C    6.187578   4.296924   3.800721   2.515036   1.502082
    12  H    2.970322   2.160758   1.086821   2.151548   3.408487
    13  H    5.000148   3.394564   2.149604   1.087786   2.165197
    14  H    2.973349   2.160809   3.407395   3.879396   3.406464
    15  H    7.226965   5.631487   5.977297   5.205895   3.807266
    16  H    6.650201   4.983264   5.154492   4.334310   3.051484
    17  H    6.919231   5.152341   5.064213   4.049400   2.841233
    18  H    7.932237   6.081949   5.846991   4.642889   3.428227
    19  H    6.619227   4.760018   4.185050   2.901963   2.123205
    20  H    6.646742   4.789372   4.070817   2.719349   2.147302
                    6          7          8          9         10
     6  C    0.000000
     7  C    1.394737   0.000000
     8  O    1.370057   2.344017   0.000000
     9  C    2.358665   3.614366   1.430530   0.000000
    10  C    2.789703   4.171172   2.445784   1.519126   0.000000
    11  C    2.524143   3.806441   2.930105   2.473106   1.521213
    12  H    3.877816   3.407066   5.245583   6.041258   5.868957
    13  H    3.407852   3.881034   4.597254   4.823578   4.175728
    14  H    2.148963   1.086134   2.545645   3.944096   4.767723
    15  H    3.255364   4.382952   2.041332   1.095078   2.149411
    16  H    2.758403   3.926695   2.068049   1.097197   2.177766
    17  H    3.027543   4.285463   2.676467   2.149069   1.097494
    18  H    3.837825   5.228956   3.390446   2.167539   1.094770
    19  H    3.116038   4.339095   3.486192   2.831891   2.156426
    20  H    3.334496   4.502930   3.839165   3.417451   2.149289
                   11         12         13         14         15
    11  C    0.000000
    12  H    4.665512   0.000000
    13  H    2.725676   2.465938   0.000000
    14  H    4.671720   4.310352   4.967150   0.000000
    15  H    3.429083   7.050743   5.873898   4.501767   0.000000
    16  H    2.732527   6.175144   4.940523   4.272503   1.764835
    17  H    2.150766   6.021843   4.465238   4.823369   2.490585
    18  H    2.160923   6.777433   4.861830   5.805985   2.477617
    19  H    1.096866   4.971350   2.942465   5.199545   3.795866
    20  H    1.096062   4.782181   2.580501   5.426389   4.261009
                   16         17         18         19         20
    16  H    0.000000
    17  H    3.075639   0.000000
    18  H    2.543938   1.772291   0.000000
    19  H    2.655257   3.050804   2.421138   0.000000
    20  H    3.778948   2.399618   2.558816   1.773759   0.000000
 Stoichiometry    C9H9BrO
 Framework group  C1[X(C9H9BrO)]
 Deg. of freedom    54
 Full point group                 C1      NOp   1
 Largest Abelian subgroup         C1      NOp   1
 Largest concise Abelian subgroup C1      NOp   1
                         Standard orientation:                         
 ---------------------------------------------------------------------
 Center     Atomic      Atomic             Coordinates (Angstroms)
 Number     Number       Type             X           Y           Z
 ---------------------------------------------------------------------
      1         35           0        3.010083   -0.250462   -0.021675
      2          6           0        1.170119    0.183605    0.006289
      3          6           0        0.776727    1.519180    0.064265
      4          6           0       -0.581847    1.840459    0.078959
      5          6           0       -1.549489    0.827247    0.032785
      6          6           0       -1.137470   -0.510956   -0.000526
      7          6           0        0.219203   -0.833345   -0.028746
      8          8           0       -2.006150   -1.569568   -0.042859
      9          6           0       -3.354333   -1.252097    0.314953
     10          6           0       -3.852401   -0.004396   -0.394211
     11          6           0       -3.008980    1.182107    0.047310
     12          1           0        1.516762    2.314532    0.094983
     13          1           0       -0.882110    2.885176    0.120038
     14          1           0        0.520833   -1.875849   -0.072234
     15          1           0       -3.973802   -2.108389    0.028214
     16          1           0       -3.422202   -1.152673    1.405526
     17          1           0       -3.753001   -0.137968   -1.479002
     18          1           0       -4.909177    0.177018   -0.173223
     19          1           0       -3.286294    1.477361    1.066642
     20          1           0       -3.203876    2.032685   -0.615929
 ---------------------------------------------------------------------
 Rotational constants (GHZ):           2.4435820           0.3708290           0.3257358
 Standard basis: MIDIx (5D, 7F)
 There are   143 symmetry adapted cartesian basis functions of A   symmetry.
 There are   140 symmetry adapted basis functions of A   symmetry.
   140 basis functions,   246 primitive gaussians,   143 cartesian basis functions
    53 alpha electrons       53 beta electrons
       nuclear repulsion energy       824.9237414368 Hartrees.
 NAtoms=   20 NActive=   20 NUniq=   20 SFac= 1.00D+00 NAtFMM=   60 NAOKFM=F Big=F
 Integral buffers will be    131072 words long.
 Raffenetti 2 integral format.
 Two-electron integral symmetry is turned on.
 Nuclear repulsion after empirical dispersion term =      824.9115150062 Hartrees.
 One-electron integrals computed using PRISM.
 NBasis=   140 RedAO= T EigKep=  1.11D-03  NBF=   140
 NBsUse=   140 1.00D-06 EigRej= -1.00D+00 NBFU=   140
 ExpMin= 1.47D-01 ExpMax= 6.10D+03 ExpMxC= 6.10D+03 IAcc=3 IRadAn=         5 AccDes= 0.00D+00
 Harris functional with IExCor= 4639 and IRadAn=       5 diagonalized for initial guess.
 HarFok:  IExCor= 4639 AccDes= 0.00D+00 IRadAn=         5 IDoV= 1 UseB2=F ITyADJ=14
 ICtDFT=  3500011 ScaDFX=  1.000000  1.000000  1.000000  1.000000
 FoFCou: FMM=F IPFlag=           0 FMFlag=      100000 FMFlg1=           0
         NFxFlg=           0 DoJE=T BraDBF=F KetDBF=T FulRan=T
         wScrn=  0.000000 ICntrl=       500 IOpCl=  0 I1Cent=   200000004 NGrid=           0
         NMat0=    1 NMatS0=      1 NMatT0=    0 NMatD0=    1 NMtDS0=    0 NMtDT0=    0
 Petite list used in FoFCou.
 Requested convergence on RMS density matrix=1.00D-08 within 128 cycles.
 Requested convergence on MAX density matrix=1.00D-06.
 Requested convergence on             energy=1.00D-06.
 No special actions if energy rises.
 Integral accuracy reduced to 1.0D-05 until final iterations.
 Initial convergence to 1.0D-05 achieved.  Increase integral accuracy.
 SCF Done:  E(RwB97XD) =  -2983.04661278     A.U. after   16 cycles
            NFock= 16  Conv=0.48D-08     -V/T= 2.0022

 **********************************************************************

            Population analysis using the SCF Density.

 **********************************************************************

 Orbital symmetries:
       Occupied  (A) (A) (A) (A) (A) (A) (A) (A) (A) (A) (A) (A)
                 (A) (A) (A) (A) (A) (A) (A) (A) (A) (A) (A) (A)
                 (A) (A) (A) (A) (A) (A) (A) (A) (A) (A) (A) (A)
                 (A) (A) (A) (A) (A) (A) (A) (A) (A) (A) (A) (A)
                 (A) (A) (A) (A) (A)
       Virtual   (A) (A) (A) (A) (A) (A) (A) (A) (A) (A) (A) (A)
                 (A) (A) (A) (A) (A) (A) (A) (A) (A) (A) (A) (A)
                 (A) (A) (A) (A) (A) (A) (A) (A) (A) (A) (A) (A)
                 (A) (A) (A) (A) (A) (A) (A) (A) (A) (A) (A) (A)
                 (A) (A) (A) (A) (A) (A) (A) (A) (A) (A) (A) (A)
                 (A) (A) (A) (A) (A) (A) (A) (A) (A) (A) (A) (A)
                 (A) (A) (A) (A) (A) (A) (A) (A) (A) (A) (A) (A)
                 (A) (A) (A)
 The electronic state is 1-A.
 Alpha  occ. eigenvalues -- -480.14148 -62.57542 -56.16440 -56.16013 -56.16000
 Alpha  occ. eigenvalues --  -19.18398 -10.30345 -10.29128 -10.29008 -10.24839
 Alpha  occ. eigenvalues --  -10.24513 -10.24409 -10.24171 -10.24013 -10.23908
 Alpha  occ. eigenvalues --   -8.88388  -6.66873  -6.65443  -6.65426  -2.77184
 Alpha  occ. eigenvalues --   -2.76682  -2.76667  -2.75487  -2.75482  -1.17192
 Alpha  occ. eigenvalues --   -0.98361  -0.93157  -0.90162  -0.86019  -0.83476
 Alpha  occ. eigenvalues --   -0.77241  -0.73436  -0.71477  -0.65627  -0.60931
 Alpha  occ. eigenvalues --   -0.59676  -0.58648  -0.54063  -0.53461  -0.52954
 Alpha  occ. eigenvalues --   -0.52411  -0.49523  -0.48499  -0.47290  -0.45561
 Alpha  occ. eigenvalues --   -0.44602  -0.42137  -0.41029  -0.39289  -0.37242
 Alpha  occ. eigenvalues --   -0.35732  -0.31284  -0.29167
 Alpha virt. eigenvalues --    0.06041   0.07890   0.09710   0.16694   0.19724
 Alpha virt. eigenvalues --    0.20571   0.21564   0.22312   0.23842   0.24504
 Alpha virt. eigenvalues --    0.25181   0.25677   0.26943   0.28847   0.31457
 Alpha virt. eigenvalues --    0.32846   0.34842   0.37502   0.39988   0.42285
 Alpha virt. eigenvalues --    0.43650   0.46645   0.54777   0.56229   0.59031
 Alpha virt. eigenvalues --    0.60241   0.61498   0.64863   0.65113   0.65678
 Alpha virt. eigenvalues --    0.67403   0.68729   0.68885   0.69610   0.72554
 Alpha virt. eigenvalues --    0.73772   0.75588   0.77301   0.80103   0.83357
 Alpha virt. eigenvalues --    0.85430   0.86071   0.86625   0.88988   0.89905
 Alpha virt. eigenvalues --    0.93404   0.94876   0.95740   0.96821   0.97413
 Alpha virt. eigenvalues --    0.98341   0.99134   1.00324   1.01509   1.02313
 Alpha virt. eigenvalues --    1.03009   1.03723   1.04428   1.05447   1.06857
 Alpha virt. eigenvalues --    1.08495   1.08593   1.10261   1.11195   1.12502
 Alpha virt. eigenvalues --    1.17569   1.21197   1.24865   1.33704   1.34858
 Alpha virt. eigenvalues --    1.41821   1.43728   1.52994   1.56716   1.58731
 Alpha virt. eigenvalues --    1.64114   1.67162   1.71489   1.79305   1.90999
 Alpha virt. eigenvalues --    1.93831   1.97119   2.00092   2.05927   2.24844
 Alpha virt. eigenvalues --    2.50005   2.68148
          Condensed to atoms (all electrons):
               1          2          3          4          5          6
     1  Br  34.933303   0.208452  -0.037597   0.001703   0.000376   0.001533
     2  C    0.208452   5.071351   0.471624  -0.031496  -0.044847  -0.019564
     3  C   -0.037597   0.471624   4.958208   0.511053  -0.039886  -0.022425
     4  C    0.001703  -0.031496   0.511053   4.907946   0.453900  -0.018344
     5  C    0.000376  -0.044847  -0.039886   0.453900   5.246724   0.458545
     6  C    0.001533  -0.019564  -0.022425  -0.018344   0.458545   4.574833
     7  C   -0.036351   0.452137  -0.052833  -0.019017  -0.034331   0.503316
     8  O   -0.000012   0.002845  -0.000021   0.001832  -0.036091   0.257607
     9  C    0.000001  -0.000233   0.000032  -0.000066  -0.003512  -0.047353
    10  C   -0.000000  -0.000034  -0.000035   0.002158  -0.062677  -0.023484
    11  C    0.000001   0.000750   0.000543  -0.024427   0.260766  -0.014620
    12  H    0.000446  -0.021396   0.394694  -0.019027   0.002925   0.000057
    13  H   -0.000060   0.002792  -0.019737   0.396196  -0.021769   0.001721
    14  H   -0.000029  -0.018695   0.002622  -0.000341   0.004219  -0.017856
    15  H   -0.000000   0.000001   0.000000   0.000013  -0.000514   0.004329
    16  H   -0.000000   0.000007  -0.000009  -0.000158   0.003365  -0.002561
    17  H    0.000000  -0.000003   0.000006  -0.000234  -0.001691   0.001680
    18  H    0.000000   0.000000  -0.000000   0.000024   0.005845   0.000338
    19  H   -0.000000  -0.000001   0.000053  -0.005485  -0.032705  -0.001428
    20  H   -0.000000   0.000009   0.000180  -0.005235  -0.029431   0.001799
               7          8          9         10         11         12
     1  Br  -0.036351  -0.000012   0.000001  -0.000000   0.000001   0.000446
     2  C    0.452137   0.002845  -0.000233  -0.000034   0.000750  -0.021396
     3  C   -0.052833  -0.000021   0.000032  -0.000035   0.000543   0.394694
     4  C   -0.019017   0.001832  -0.000066   0.002158  -0.024427  -0.019027
     5  C   -0.034331  -0.036091  -0.003512  -0.062677   0.260766   0.002925
     6  C    0.503316   0.257607  -0.047353  -0.023484  -0.014620   0.000057
     7  C    5.001069  -0.051270   0.003574   0.000229  -0.000747   0.002525
     8  O   -0.051270   8.393800   0.182974  -0.030127  -0.012897   0.000001
     9  C    0.003574   0.182974   4.945638   0.292209  -0.092424  -0.000000
    10  C    0.000229  -0.030127   0.292209   5.323150   0.307565   0.000001
    11  C   -0.000747  -0.012897  -0.092424   0.307565   5.221898  -0.000035
    12  H    0.002525   0.000001  -0.000000   0.000001  -0.000035   0.440134
    13  H    0.000043  -0.000015   0.000002   0.000089  -0.003711  -0.004015
    14  H    0.384272   0.001293  -0.000010   0.000022  -0.000007  -0.000056
    15  H    0.000091  -0.021630   0.388599  -0.036564   0.006710   0.000000
    16  H    0.000040  -0.025011   0.390267  -0.048046  -0.008990  -0.000000
    17  H   -0.000225   0.000617  -0.031833   0.385613  -0.037513  -0.000000
    18  H    0.000010   0.002119  -0.026581   0.386879  -0.040587  -0.000000
    19  H   -0.000045   0.000022  -0.003026  -0.032200   0.391794   0.000001
    20  H   -0.000074   0.000090   0.006374  -0.035226   0.392658  -0.000005
              13         14         15         16         17         18
     1  Br  -0.000060  -0.000029  -0.000000  -0.000000   0.000000   0.000000
     2  C    0.002792  -0.018695   0.000001   0.000007  -0.000003   0.000000
     3  C   -0.019737   0.002622   0.000000  -0.000009   0.000006  -0.000000
     4  C    0.396196  -0.000341   0.000013  -0.000158  -0.000234   0.000024
     5  C   -0.021769   0.004219  -0.000514   0.003365  -0.001691   0.005845
     6  C    0.001721  -0.017856   0.004329  -0.002561   0.001680   0.000338
     7  C    0.000043   0.384272   0.000091   0.000040  -0.000225   0.000010
     8  O   -0.000015   0.001293  -0.021630  -0.025011   0.000617   0.002119
     9  C    0.000002  -0.000010   0.388599   0.390267  -0.031833  -0.026581
    10  C    0.000089   0.000022  -0.036564  -0.048046   0.385613   0.386879
    11  C   -0.003711  -0.000007   0.006710  -0.008990  -0.037513  -0.040587
    12  H   -0.004015  -0.000056   0.000000  -0.000000  -0.000000  -0.000000
    13  H    0.450363   0.000006  -0.000000   0.000001   0.000002  -0.000006
    14  H    0.000006   0.429929  -0.000030   0.000014   0.000005  -0.000001
    15  H   -0.000000  -0.000030   0.498123  -0.033881  -0.004606  -0.000738
    16  H    0.000001   0.000014  -0.033881   0.528490   0.004715  -0.000273
    17  H    0.000002   0.000005  -0.004606   0.004715   0.494329  -0.023207
    18  H   -0.000006  -0.000001  -0.000738  -0.000273  -0.023207   0.500270
    19  H    0.000705   0.000002  -0.000170   0.003385   0.004146  -0.004506
    20  H    0.002398   0.000002  -0.000170   0.000065  -0.004102  -0.000243
              19         20
     1  Br  -0.000000  -0.000000
     2  C   -0.000001   0.000009
     3  C    0.000053   0.000180
     4  C   -0.005485  -0.005235
     5  C   -0.032705  -0.029431
     6  C   -0.001428   0.001799
     7  C   -0.000045  -0.000074
     8  O    0.000022   0.000090
     9  C   -0.003026   0.006374
    10  C   -0.032200  -0.035226
    11  C    0.391794   0.392658
    12  H    0.000001  -0.000005
    13  H    0.000705   0.002398
    14  H    0.000002   0.000002
    15  H   -0.000170  -0.000170
    16  H    0.003385   0.000065
    17  H    0.004146  -0.004102
    18  H   -0.004506  -0.000243
    19  H    0.495252  -0.024421
    20  H   -0.024421   0.489642
 Mulliken charges:
               1
     1  Br  -0.071765
     2  C   -0.073701
     3  C   -0.166472
     4  C   -0.150994
     5  C   -0.129211
     6  C    0.361880
     7  C   -0.152413
     8  O   -0.666125
     9  C   -0.004633
    10  C   -0.429522
    11  C   -0.346726
    12  H    0.203749
    13  H    0.194996
    14  H    0.214641
    15  H    0.200437
    16  H    0.188583
    17  H    0.212301
    18  H    0.200656
    19  H    0.208629
    20  H    0.205691
 Sum of Mulliken charges =   0.00000
 Mulliken charges with hydrogens summed into heavy atoms:
               1
     1  Br  -0.071765
     2  C   -0.073701
     3  C    0.037277
     4  C    0.044003
     5  C   -0.129211
     6  C    0.361880
     7  C    0.062229
     8  O   -0.666125
     9  C    0.384386
    10  C   -0.016565
    11  C    0.067593
 Electronic spatial extent (au):  <R**2>=           3045.1040
 Charge=             -0.0000 electrons
 Dipole moment (field-independent basis, Debye):
    X=             -3.2590    Y=              1.0219    Z=              0.3383  Tot=              3.4321
 Quadrupole moment (field-independent basis, Debye-Ang):
   XX=            -66.2550   YY=            -73.1999   ZZ=            -78.9081
   XY=             -0.3297   XZ=             -1.1302   YZ=             -0.2405
 Traceless Quadrupole moment (field-independent basis, Debye-Ang):
   XX=              6.5326   YY=             -0.4122   ZZ=             -6.1204
   XY=             -0.3297   XZ=             -1.1302   YZ=             -0.2405
 Octapole moment (field-independent basis, Debye-Ang**2):
  XXX=             44.6055  YYY=             -4.4508  ZZZ=             -0.7261  XYY=             28.6608
  XXY=            -11.0260  XXZ=              3.5696  XZZ=             25.2346  YZZ=             -7.3000
  YYZ=              0.1506  XYZ=              1.6685
 Hexadecapole moment (field-independent basis, Debye-Ang**3):
 XXXX=          -2577.7765 YYYY=           -559.4999 ZZZZ=           -109.5149 XXXY=             13.6139
 XXXZ=            -18.2561 YYYX=            -13.0354 YYYZ=              0.9830 ZZZX=             -3.6022
 ZZZY=             -0.2598 XXYY=           -546.2973 XXZZ=           -487.7639 YYZZ=           -123.7148
 XXYZ=             -3.4523 YYXZ=             -0.2836 ZZXY=             -3.5606
 N-N= 8.249115150062D+02 E-N=-8.751841227694D+03  KE= 2.976612952338D+03
 Calling FoFJK, ICntrl=      2127 FMM=F ISym2X=0 I1Cent= 0 IOpClX= 0 NMat=1 NMatS=1 NMatT=0.
 ***** Axes restored to original set *****
 -------------------------------------------------------------------
 Center     Atomic                   Forces (Hartrees/Bohr)
 Number     Number              X              Y              Z
 -------------------------------------------------------------------
      1       35           0.001917905   -0.001248904   -0.000665244
      2        6          -0.010736695    0.002159164    0.000604838
      3        6          -0.001330537    0.004993047    0.002609643
      4        6           0.001796042   -0.016573413   -0.008485664
      5        6           0.008504938    0.006471655    0.004245515
      6        6           0.002610062    0.003997590    0.000498343
      7        6           0.009554873    0.001687985    0.000833743
      8        8           0.001033215   -0.003342019   -0.005128980
      9        6          -0.011243280   -0.003354537    0.000543576
     10        6          -0.001322866    0.004003315   -0.001475418
     11        6           0.000918612    0.003976312    0.001941662
     12        1           0.000280291   -0.001940914   -0.000763964
     13        1          -0.001646951   -0.000127802   -0.000416689
     14        1          -0.001584104    0.001008092    0.000785085
     15        1           0.004047705   -0.003831521   -0.002790313
     16        1           0.000782604    0.002036240    0.004058075
     17        1          -0.000963478   -0.001932850   -0.001177618
     18        1          -0.001941275   -0.001674566    0.000027612
     19        1          -0.002500800    0.001922735    0.002839817
     20        1           0.001823739    0.001770391    0.001915978
 -------------------------------------------------------------------
 Cartesian Forces:  Max     0.016573413 RMS     0.004259757

 GradGradGradGradGradGradGradGradGradGradGradGradGradGradGradGradGradGrad
 Berny optimization.
 FormGI is forming the generalized inverse of G from B-inverse, IUseBI=4.
 Internal  Forces:  Max     0.010303023 RMS     0.002578991
 Search for a local minimum.
 Step number   1 out of a maximum of  120
 All quantities printed in internal units (Hartrees-Bohrs-Radians)
 Mixed Optimization -- RFO/linear search
 Second derivative matrix not updated -- first step.
 ITU=  0
     Eigenvalues ---    0.00743   0.01096   0.01496   0.01847   0.02088
     Eigenvalues ---    0.02105   0.02137   0.02157   0.02170   0.02173
     Eigenvalues ---    0.02180   0.03709   0.03763   0.04958   0.05414
     Eigenvalues ---    0.05905   0.06362   0.07749   0.08162   0.09106
     Eigenvalues ---    0.10923   0.11700   0.12656   0.16000   0.16000
     Eigenvalues ---    0.16000   0.18714   0.19038   0.19758   0.22470
     Eigenvalues ---    0.23517   0.24513   0.24792   0.25000   0.29241
     Eigenvalues ---    0.29550   0.31550   0.33961   0.33994   0.34031
     Eigenvalues ---    0.34121   0.34232   0.34267   0.35070   0.35183
     Eigenvalues ---    0.35263   0.39278   0.40892   0.42001   0.45104
     Eigenvalues ---    0.46057   0.46385   0.46723   0.49494
 RFO step:  Lambda=-3.24148615D-03 EMin= 7.42592354D-03
 Linear search not attempted -- first point.
 Iteration  1 RMS(Cart)=  0.02097608 RMS(Int)=  0.00039098
 Iteration  2 RMS(Cart)=  0.00040353 RMS(Int)=  0.00011530
 Iteration  3 RMS(Cart)=  0.00000012 RMS(Int)=  0.00011530
 Variable       Old X    -DE/DX   Delta X   Delta X   Delta X     New X
                                 (Linear)    (Quad)   (Total)
    R1        3.57286   0.00236   0.00000   0.01237   0.01237   3.58523
    R2        2.63336  -0.00424   0.00000  -0.00920  -0.00921   2.62415
    R3        2.63185  -0.00807   0.00000  -0.01675  -0.01680   2.61505
    R4        2.63829  -0.00576   0.00000  -0.01291  -0.01288   2.62541
    R5        2.05379  -0.00089   0.00000  -0.00252  -0.00252   2.05128
    R6        2.64903  -0.00785   0.00000  -0.01757  -0.01753   2.63151
    R7        2.05562  -0.00024   0.00000  -0.00067  -0.00067   2.05494
    R8        2.64674  -0.00064   0.00000  -0.00223  -0.00215   2.64458
    R9        2.83852   0.00777   0.00000   0.02308   0.02309   2.86162
   R10        2.63567   0.00061   0.00000   0.00184   0.00180   2.63748
   R11        2.58903   0.00340   0.00000   0.00619   0.00624   2.59527
   R12        2.05250  -0.00129   0.00000  -0.00363  -0.00363   2.04886
   R13        2.70331   0.00443   0.00000   0.01151   0.01150   2.71481
   R14        2.87073   0.00535   0.00000   0.01835   0.01828   2.88901
   R15        2.06940   0.00009   0.00000   0.00026   0.00026   2.06966
   R16        2.07340   0.00332   0.00000   0.00969   0.00969   2.08309
   R17        2.87468   0.01030   0.00000   0.03469   0.03465   2.90933
   R18        2.07396   0.00065   0.00000   0.00188   0.00188   2.07585
   R19        2.06882   0.00126   0.00000   0.00364   0.00364   2.07246
   R20        2.07278   0.00308   0.00000   0.00897   0.00897   2.08175
   R21        2.07126   0.00121   0.00000   0.00352   0.00352   2.07477
    A1        2.08907   0.00020   0.00000   0.00091   0.00093   2.09000
    A2        2.09030  -0.00109   0.00000  -0.00418  -0.00415   2.08615
    A3        2.10381   0.00089   0.00000   0.00327   0.00322   2.10703
    A4        2.08944  -0.00302   0.00000  -0.01573  -0.01570   2.07374
    A5        2.10638  -0.00045   0.00000  -0.00410  -0.00412   2.10225
    A6        2.08736   0.00346   0.00000   0.01982   0.01980   2.10717
    A7        2.10022   0.00687   0.00000   0.02817   0.02826   2.12849
    A8        2.08290  -0.00174   0.00000  -0.00371  -0.00376   2.07915
    A9        2.10003  -0.00513   0.00000  -0.02448  -0.02452   2.07551
   A10        2.08095  -0.00505   0.00000  -0.01962  -0.01972   2.06124
   A11        2.09397   0.00475   0.00000   0.02051   0.02028   2.11426
   A12        2.10806   0.00031   0.00000  -0.00030  -0.00041   2.10765
   A13        2.10305  -0.00008   0.00000   0.00141   0.00136   2.10441
   A14        2.15613   0.00230   0.00000   0.00677   0.00687   2.16299
   A15        2.02363  -0.00221   0.00000  -0.00812  -0.00816   2.01547
   A16        2.08846   0.00039   0.00000   0.00297   0.00291   2.09137
   A17        2.10860   0.00140   0.00000   0.00828   0.00831   2.11691
   A18        2.08610  -0.00179   0.00000  -0.01123  -0.01120   2.07490
   A19        2.00242   0.00085   0.00000   0.00733   0.00722   2.00964
   A20        1.95465  -0.00192   0.00000  -0.01152  -0.01154   1.94312
   A21        1.86930  -0.00377   0.00000  -0.04115  -0.04081   1.82850
   A22        1.90395   0.00219   0.00000   0.00836   0.00811   1.91206
   A23        1.91190   0.00537   0.00000   0.04211   0.04196   1.95387
   A24        1.94905  -0.00260   0.00000  -0.01934  -0.01941   1.92964
   A25        1.87143   0.00081   0.00000   0.02212   0.02205   1.89348
   A26        1.90005   0.00108   0.00000   0.00412   0.00431   1.90436
   A27        1.90897  -0.00161   0.00000  -0.01788  -0.01800   1.89097
   A28        1.93730  -0.00160   0.00000  -0.01578  -0.01590   1.92140
   A29        1.90879   0.00062   0.00000   0.01531   0.01521   1.92400
   A30        1.92555   0.00131   0.00000   0.01489   0.01491   1.94046
   A31        1.88296   0.00019   0.00000  -0.00056  -0.00097   1.88199
   A32        1.93013  -0.00286   0.00000  -0.00785  -0.00793   1.92220
   A33        1.89466   0.00284   0.00000   0.02071   0.02075   1.91541
   A34        1.92864  -0.00081   0.00000  -0.00943  -0.00934   1.91930
   A35        1.91718  -0.00033   0.00000  -0.00613  -0.00597   1.91122
   A36        1.90823   0.00285   0.00000   0.02041   0.02034   1.92857
   A37        1.88440  -0.00168   0.00000  -0.01811  -0.01805   1.86635
    D1        3.13666   0.00001   0.00000  -0.00183  -0.00180   3.13486
    D2       -0.00148   0.00007   0.00000   0.00191   0.00194   0.00046
    D3       -0.00697  -0.00012   0.00000  -0.00224  -0.00219  -0.00916
    D4        3.13807  -0.00006   0.00000   0.00150   0.00154   3.13962
    D5        3.13540   0.00011   0.00000   0.00468   0.00472   3.14012
    D6       -0.00019   0.00010   0.00000   0.00068   0.00069   0.00050
    D7       -0.00415   0.00024   0.00000   0.00509   0.00511   0.00096
    D8       -3.13974   0.00022   0.00000   0.00108   0.00107  -3.13867
    D9       -0.00243   0.00008   0.00000   0.00790   0.00797   0.00554
   D10       -3.13710   0.00024   0.00000   0.01091   0.01099  -3.12610
   D11        3.13575   0.00002   0.00000   0.00415   0.00418   3.13993
   D12        0.00108   0.00018   0.00000   0.00716   0.00720   0.00828
   D13        0.02266  -0.00025   0.00000  -0.01657  -0.01650   0.00617
   D14       -3.14028   0.00034   0.00000   0.01489   0.01491  -3.12538
   D15       -3.12592  -0.00040   0.00000  -0.01952  -0.01943   3.13783
   D16       -0.00568   0.00020   0.00000   0.01194   0.01197   0.00629
   D17       -0.03392   0.00044   0.00000   0.01970   0.01943  -0.01449
   D18        3.13846  -0.00001   0.00000   0.01724   0.01684  -3.12789
   D19        3.12920  -0.00022   0.00000  -0.01228  -0.01211   3.11709
   D20        0.01840  -0.00066   0.00000  -0.01474  -0.01471   0.00369
   D21        2.86613  -0.00013   0.00000  -0.01900  -0.01931   2.84682
   D22       -1.31264  -0.00048   0.00000  -0.01821  -0.01841  -1.33105
   D23        0.75078  -0.00128   0.00000  -0.03319  -0.03341   0.71737
   D24       -0.29715   0.00041   0.00000   0.01272   0.01270  -0.28445
   D25        1.80726   0.00006   0.00000   0.01352   0.01360   1.82086
   D26       -2.41250  -0.00074   0.00000  -0.00147  -0.00140  -2.41390
   D27        0.02480  -0.00034   0.00000  -0.01364  -0.01366   0.01114
   D28       -3.12271  -0.00031   0.00000  -0.00961  -0.00966  -3.13238
   D29        3.13785   0.00015   0.00000  -0.01111  -0.01104   3.12681
   D30       -0.00966   0.00018   0.00000  -0.00709  -0.00704  -0.01670
   D31       -0.28591   0.00073   0.00000   0.00593   0.00591  -0.28000
   D32        2.88519   0.00027   0.00000   0.00343   0.00330   2.88849
   D33        0.82901  -0.00096   0.00000  -0.00092  -0.00095   0.82807
   D34        2.92544   0.00207   0.00000   0.01749   0.01781   2.94325
   D35       -1.33765   0.00212   0.00000   0.02580   0.02591  -1.31173
   D36       -1.10009   0.00000   0.00000  -0.00030  -0.00032  -1.10041
   D37        0.98466   0.00045   0.00000   0.01018   0.00999   0.99465
   D38        3.06034  -0.00132   0.00000  -0.01152  -0.01154   3.04880
   D39        3.11171   0.00240   0.00000   0.03065   0.03086  -3.14062
   D40       -1.08673   0.00284   0.00000   0.04112   0.04117  -1.04555
   D41        0.98896   0.00107   0.00000   0.01942   0.01964   1.00860
   D42        1.04117  -0.00046   0.00000  -0.01204  -0.01192   1.02924
   D43        3.12592  -0.00001   0.00000  -0.00157  -0.00161   3.12431
   D44       -1.08159  -0.00178   0.00000  -0.02327  -0.02314  -1.10473
   D45        0.79271   0.00065   0.00000  -0.00125  -0.00123   0.79148
   D46       -1.29822  -0.00086   0.00000  -0.01808  -0.01814  -1.31636
   D47        2.92011  -0.00033   0.00000  -0.00462  -0.00468   2.91543
   D48       -1.29215   0.00159   0.00000   0.00894   0.00904  -1.28311
   D49        2.90010   0.00008   0.00000  -0.00789  -0.00787   2.89224
   D50        0.83525   0.00061   0.00000   0.00557   0.00559   0.84084
   D51        2.92260   0.00019   0.00000  -0.00870  -0.00867   2.91393
   D52        0.83167  -0.00132   0.00000  -0.02553  -0.02557   0.80610
   D53       -1.23318  -0.00079   0.00000  -0.01207  -0.01212  -1.24530
         Item               Value     Threshold  Converged?
 Maximum Force            0.010303     0.000450     NO 
 RMS     Force            0.002579     0.000300     NO 
 Maximum Displacement     0.085891     0.001800     NO 
 RMS     Displacement     0.020934     0.001200     NO 
 Predicted change in Energy=-1.664970D-03
 GradGradGradGradGradGradGradGradGradGradGradGradGradGradGradGradGradGrad

                          Input orientation:                          
 ---------------------------------------------------------------------
 Center     Atomic      Atomic             Coordinates (Angstroms)
 Number     Number       Type             X           Y           Z
 ---------------------------------------------------------------------
      1         35           0        4.326507   -1.433218   -0.780537
      2          6           0        2.654607   -0.639934   -0.362314
      3          6           0        2.616137    0.621784    0.216399
      4          6           0        1.381117    1.187780    0.507171
      5          6           0        0.185696    0.524839    0.241414
      6          6           0        0.252387   -0.751391   -0.328899
      7          6           0        1.485681   -1.328336   -0.635617
      8          8           0       -0.849237   -1.504223   -0.654134
      9          6           0       -2.081893   -1.072508   -0.055763
     10          6           0       -2.275657    0.436274   -0.208249
     11          6           0       -1.150905    1.167780    0.546765
     12          1           0        3.535871    1.157053    0.430556
     13          1           0        1.344723    2.181630    0.946989
     14          1           0        1.505095   -2.314942   -1.084782
     15          1           0       -2.859501   -1.639951   -0.578103
     16          1           0       -2.095495   -1.358944    1.008608
     17          1           0       -2.238333    0.683275   -1.277958
     18          1           0       -3.262494    0.729428    0.169849
     19          1           0       -1.346141    1.123975    1.630055
     20          1           0       -1.128466    2.229630    0.268547
 ---------------------------------------------------------------------
                    Distance matrix (angstroms):
                    1          2          3          4          5
     1  Br   0.000000
     2  C    1.897224   0.000000
     3  C    2.853468   1.388640   0.000000
     4  C    4.147667   2.391300   1.389307   0.000000
     5  C    4.693047   2.795837   2.432503   1.392533   0.000000
     6  C    4.155396   2.405036   2.787521   2.394458   1.399453
     7  C    2.846452   1.383827   2.409736   2.765454   2.427634
     8  O    5.177774   3.620646   4.157710   3.683746   2.447486
     9  C    6.459335   4.766081   5.001619   4.173516   2.789587
    10  C    6.885570   5.048708   4.913694   3.801129   2.503656
    11  C    6.207170   4.310008   3.820714   2.532410   1.514303
    12  H    2.966708   2.152774   1.085490   2.156335   3.414549
    13  H    4.994247   3.375099   2.140882   1.087429   2.141526
    14  H    2.971594   2.156151   3.398800   3.849512   3.400584
    15  H    7.191830   5.608206   5.977398   5.211211   3.825068
    16  H    6.666983   4.995985   5.172074   4.338671   3.056314
    17  H    6.915496   5.150742   5.079642   4.067140   2.865224
    18  H    7.948157   6.096755   5.879800   4.678353   3.454995
    19  H    6.673015   4.804882   4.236776   2.950064   2.152629
    20  H    6.653853   4.789992   4.075530   2.727710   2.152689
                    6          7          8          9         10
     6  C    0.000000
     7  C    1.395692   0.000000
     8  O    1.373357   2.341607   0.000000
     9  C    2.372042   3.623433   1.436616   0.000000
    10  C    2.795731   4.176620   2.449289   1.528797   0.000000
    11  C    2.533621   3.818404   2.944955   2.499735   1.539550
    12  H    3.873009   3.393695   5.242911   6.063558   5.890794
    13  H    3.379897   3.852840   4.578490   4.830800   4.181865
    14  H    2.141338   1.084213   2.526975   3.933066   4.757266
    15  H    3.245841   4.356721   2.016274   1.095218   2.188236
    16  H    2.769584   3.940715   2.083020   1.102322   2.176236
    17  H    3.026989   4.281059   2.665312   2.144996   1.098490
    18  H    3.846552   5.237207   3.389978   2.166032   1.096697
    19  H    3.147982   4.377936   3.517365   2.864935   2.171703
    20  H    3.339189   4.506706   3.856289   3.452292   2.181629
                   11         12         13         14         15
    11  C    0.000000
    12  H    4.688229   0.000000
    13  H    2.723276   2.473376   0.000000
    14  H    4.673931   4.298262   4.936899   0.000000
    15  H    3.473900   7.052759   5.882677   4.445450   0.000000
    16  H    2.736765   6.194891   4.937060   4.273226   1.783345
    17  H    2.178729   6.040275   4.475908   4.799987   2.504601
    18  H    2.189298   6.816788   4.892779   5.794151   2.517100
    19  H    1.101614   5.027320   2.970853   5.227431   3.847792
    20  H    1.097923   4.788811   2.565006   5.424046   4.322841
                   16         17         18         19         20
    16  H    0.000000
    17  H    3.069111   0.000000
    18  H    2.535093   1.774029   0.000000
    19  H    2.666948   3.073559   2.441368   0.000000
    20  H    3.789551   2.452488   2.610445   1.767360   0.000000
 Stoichiometry    C9H9BrO
 Framework group  C1[X(C9H9BrO)]
 Deg. of freedom    54
 Full point group                 C1      NOp   1
 Largest Abelian subgroup         C1      NOp   1
 Largest concise Abelian subgroup C1      NOp   1
                         Standard orientation:                         
 ---------------------------------------------------------------------
 Center     Atomic      Atomic             Coordinates (Angstroms)
 Number     Number       Type             X           Y           Z
 ---------------------------------------------------------------------
      1         35           0        3.011277   -0.254690   -0.024657
      2          6           0        1.167642    0.191757    0.009337
      3          6           0        0.782383    1.524774    0.063742
      4          6           0       -0.572880    1.830035    0.079658
      5          6           0       -1.551708    0.840025    0.049254
      6          6           0       -1.136973   -0.495955    0.008993
      7          6           0        0.220976   -0.817242   -0.017556
      8          8           0       -1.997990   -1.564796   -0.039367
      9          6           0       -3.359104   -1.268545    0.312016
     10          6           0       -3.859468   -0.016288   -0.408199
     11          6           0       -3.023975    1.194331    0.046298
     12          1           0        1.528748    2.312625    0.086509
     13          1           0       -0.880280    2.872740    0.107505
     14          1           0        0.511494   -1.861050   -0.057317
     15          1           0       -3.923129   -2.161092    0.020917
     16          1           0       -3.439588   -1.145030    1.404436
     17          1           0       -3.746708   -0.171241   -1.489843
     18          1           0       -4.925266    0.137296   -0.200275
     19          1           0       -3.335878    1.497346    1.058450
     20          1           0       -3.201506    2.053581   -0.613706
 ---------------------------------------------------------------------
 Rotational constants (GHZ):           2.4356686           0.3701606           0.3251390
 Standard basis: MIDIx (5D, 7F)
 There are   143 symmetry adapted cartesian basis functions of A   symmetry.
 There are   140 symmetry adapted basis functions of A   symmetry.
   140 basis functions,   246 primitive gaussians,   143 cartesian basis functions
    53 alpha electrons       53 beta electrons
       nuclear repulsion energy       824.0687356181 Hartrees.
 NAtoms=   20 NActive=   20 NUniq=   20 SFac= 1.00D+00 NAtFMM=   60 NAOKFM=F Big=F
 Integral buffers will be    131072 words long.
 Raffenetti 2 integral format.
 Two-electron integral symmetry is turned on.
 Nuclear repulsion after empirical dispersion term =      824.0565453824 Hartrees.
 One-electron integrals computed using PRISM.
 NBasis=   140 RedAO= T EigKep=  1.09D-03  NBF=   140
 NBsUse=   140 1.00D-06 EigRej= -1.00D+00 NBFU=   140
 Initial guess from the checkpoint file:  "/home/rpaton/opt/midi/Gau-4134432.chk"
 B after Tr=    -0.000000    0.000000   -0.000000
         Rot=    1.000000    0.000612    0.000109   -0.000209 Ang=   0.08 deg.
 ExpMin= 1.47D-01 ExpMax= 6.10D+03 ExpMxC= 6.10D+03 IAcc=3 IRadAn=         5 AccDes= 0.00D+00
 Harris functional with IExCor= 4639 and IRadAn=       5 diagonalized for initial guess.
 HarFok:  IExCor= 4639 AccDes= 0.00D+00 IRadAn=         5 IDoV= 1 UseB2=F ITyADJ=14
 ICtDFT=  3500011 ScaDFX=  1.000000  1.000000  1.000000  1.000000
 FoFCou: FMM=F IPFlag=           0 FMFlag=      100000 FMFlg1=           0
         NFxFlg=           0 DoJE=T BraDBF=F KetDBF=T FulRan=T
         wScrn=  0.000000 ICntrl=       500 IOpCl=  0 I1Cent=   200000004 NGrid=           0
         NMat0=    1 NMatS0=      1 NMatT0=    0 NMatD0=    1 NMtDS0=    0 NMtDT0=    0
 Petite list used in FoFCou.
 Requested convergence on RMS density matrix=1.00D-08 within 128 cycles.
 Requested convergence on MAX density matrix=1.00D-06.
 Requested convergence on             energy=1.00D-06.
 No special actions if energy rises.
 Integral accuracy reduced to 1.0D-05 until final iterations.
 Initial convergence to 1.0D-05 achieved.  Increase integral accuracy.
 SCF Done:  E(RwB97XD) =  -2983.04820947     A.U. after   13 cycles
            NFock= 13  Conv=0.47D-08     -V/T= 2.0022
 Calling FoFJK, ICntrl=      2127 FMM=F ISym2X=0 I1Cent= 0 IOpClX= 0 NMat=1 NMatS=1 NMatT=0.
 ***** Axes restored to original set *****
 -------------------------------------------------------------------
 Center     Atomic                   Forces (Hartrees/Bohr)
 Number     Number              X              Y              Z
 -------------------------------------------------------------------
      1       35           0.000264213   -0.000222772   -0.000098246
      2        6          -0.001777677   -0.001056160   -0.000384167
      3        6           0.000450772    0.002575680    0.000973406
      4        6           0.000549588   -0.001524221   -0.000667109
      5        6          -0.000461218    0.001217731    0.000404912
      6        6          -0.001758191   -0.000558408    0.000302678
      7        6           0.002374777   -0.000590489   -0.000632549
      8        8           0.002567594   -0.000950328   -0.001425382
      9        6          -0.001655993   -0.000667455    0.001974161
     10        6          -0.000577555    0.001431234   -0.001661276
     11        6           0.000102827   -0.001524576    0.000315793
     12        1          -0.000256853   -0.000241035   -0.000091893
     13        1          -0.000184312    0.000756689    0.000411298
     14        1          -0.000803589   -0.000091117    0.000088129
     15        1           0.000636715    0.000853933    0.000113482
     16        1           0.000435166    0.000441982    0.000079593
     17        1           0.000289696    0.000344796    0.000239975
     18        1           0.000297356    0.000132671    0.000537836
     19        1          -0.000358972   -0.000119004   -0.000264878
     20        1          -0.000134344   -0.000209151   -0.000215765
 -------------------------------------------------------------------
 Cartesian Forces:  Max     0.002575680 RMS     0.000961117

 GradGradGradGradGradGradGradGradGradGradGradGradGradGradGradGradGradGrad
 Berny optimization.
 Using GEDIIS/GDIIS optimizer.
 FormGI is forming the generalized inverse of G from B-inverse, IUseBI=4.
 Internal  Forces:  Max     0.002123721 RMS     0.000466207
 Search for a local minimum.
 Step number   2 out of a maximum of  120
 All quantities printed in internal units (Hartrees-Bohrs-Radians)
 Mixed Optimization -- En-DIIS/RFO-DIIS
 Update second derivatives using D2CorX and points    1    2
 DE= -1.60D-03 DEPred=-1.66D-03 R= 9.59D-01
 TightC=F SS=  1.41D+00  RLast= 1.58D-01 DXNew= 5.0454D-01 4.7431D-01
 Trust test= 9.59D-01 RLast= 1.58D-01 DXMaxT set to 4.74D-01
 ITU=  1  0
 Use linear search instead of GDIIS.
     Eigenvalues ---    0.00745   0.01106   0.01488   0.01848   0.02090
     Eigenvalues ---    0.02105   0.02137   0.02156   0.02170   0.02174
     Eigenvalues ---    0.02180   0.03707   0.03741   0.04922   0.05350
     Eigenvalues ---    0.05843   0.06393   0.07944   0.08175   0.09103
     Eigenvalues ---    0.10818   0.11779   0.12616   0.15726   0.15999
     Eigenvalues ---    0.16045   0.18651   0.19230   0.19959   0.22067
     Eigenvalues ---    0.23481   0.24637   0.24735   0.24996   0.29044
     Eigenvalues ---    0.30226   0.32022   0.33943   0.33966   0.34027
     Eigenvalues ---    0.34121   0.34257   0.34410   0.35163   0.35173
     Eigenvalues ---    0.35292   0.38969   0.40611   0.41908   0.45116
     Eigenvalues ---    0.45966   0.46344   0.47100   0.50012
 RFO step:  Lambda=-1.26548175D-04 EMin= 7.45117134D-03
 Quartic linear search produced a step of -0.00937.
 Iteration  1 RMS(Cart)=  0.00664088 RMS(Int)=  0.00003083
 Iteration  2 RMS(Cart)=  0.00003588 RMS(Int)=  0.00001070
 Iteration  3 RMS(Cart)=  0.00000000 RMS(Int)=  0.00001070
 Variable       Old X    -DE/DX   Delta X   Delta X   Delta X     New X
                                 (Linear)    (Quad)   (Total)
    R1        3.58523   0.00035  -0.00012   0.00243   0.00231   3.58755
    R2        2.62415   0.00182   0.00009   0.00353   0.00362   2.62777
    R3        2.61505  -0.00062   0.00016  -0.00201  -0.00185   2.61321
    R4        2.62541  -0.00056   0.00012  -0.00180  -0.00167   2.62374
    R5        2.05128  -0.00035   0.00002  -0.00112  -0.00109   2.05018
    R6        2.63151  -0.00001   0.00016  -0.00096  -0.00080   2.63071
    R7        2.05494   0.00086   0.00001   0.00241   0.00241   2.05736
    R8        2.64458   0.00063   0.00002   0.00144   0.00146   2.64605
    R9        2.86162  -0.00065  -0.00022  -0.00071  -0.00093   2.86069
   R10        2.63748   0.00066  -0.00002   0.00148   0.00146   2.63894
   R11        2.59527  -0.00099  -0.00006  -0.00146  -0.00151   2.59376
   R12        2.04886   0.00003   0.00003  -0.00008  -0.00005   2.04882
   R13        2.71481   0.00212  -0.00011   0.00548   0.00537   2.72018
   R14        2.88901   0.00070  -0.00017   0.00297   0.00279   2.89180
   R15        2.06966  -0.00095  -0.00000  -0.00273  -0.00274   2.06693
   R16        2.08309  -0.00004  -0.00009   0.00034   0.00025   2.08334
   R17        2.90933  -0.00127  -0.00032  -0.00293  -0.00326   2.90607
   R18        2.07585  -0.00015  -0.00002  -0.00034  -0.00035   2.07549
   R19        2.07246  -0.00005  -0.00003   0.00004   0.00000   2.07246
   R20        2.08175  -0.00019  -0.00008  -0.00013  -0.00022   2.08153
   R21        2.07477  -0.00015  -0.00003  -0.00027  -0.00030   2.07447
    A1        2.09000  -0.00012  -0.00001  -0.00059  -0.00060   2.08941
    A2        2.08615  -0.00044   0.00004  -0.00210  -0.00207   2.08408
    A3        2.10703   0.00055  -0.00003   0.00269   0.00266   2.10969
    A4        2.07374  -0.00054   0.00015  -0.00301  -0.00286   2.07088
    A5        2.10225   0.00019   0.00004   0.00042   0.00046   2.10271
    A6        2.10717   0.00036  -0.00019   0.00260   0.00241   2.10958
    A7        2.12849   0.00030  -0.00026   0.00242   0.00215   2.13064
    A8        2.07915   0.00001   0.00004   0.00028   0.00031   2.07946
    A9        2.07551  -0.00031   0.00023  -0.00271  -0.00248   2.07303
   A10        2.06124   0.00008   0.00018  -0.00069  -0.00050   2.06074
   A11        2.11426  -0.00011  -0.00019   0.00123   0.00105   2.11530
   A12        2.10765   0.00002   0.00000  -0.00058  -0.00059   2.10706
   A13        2.10441   0.00004  -0.00001   0.00030   0.00029   2.10470
   A14        2.16299   0.00029  -0.00006   0.00082   0.00075   2.16374
   A15        2.01547  -0.00033   0.00008  -0.00117  -0.00108   2.01438
   A16        2.09137  -0.00044  -0.00003  -0.00172  -0.00174   2.08962
   A17        2.11691   0.00105  -0.00008   0.00644   0.00636   2.12328
   A18        2.07490  -0.00061   0.00010  -0.00473  -0.00462   2.07028
   A19        2.00964  -0.00105  -0.00007  -0.00590  -0.00598   2.00365
   A20        1.94312   0.00047   0.00011  -0.00048  -0.00041   1.94271
   A21        1.82850  -0.00014   0.00038  -0.00196  -0.00157   1.82693
   A22        1.91206  -0.00003  -0.00008   0.00002  -0.00005   1.91201
   A23        1.95387  -0.00056  -0.00039  -0.00099  -0.00138   1.95249
   A24        1.92964  -0.00023   0.00018  -0.00253  -0.00234   1.92729
   A25        1.89348   0.00050  -0.00021   0.00620   0.00599   1.89948
   A26        1.90436  -0.00095  -0.00004  -0.00889  -0.00896   1.89540
   A27        1.89097   0.00056   0.00017   0.00695   0.00712   1.89810
   A28        1.92140   0.00041   0.00015  -0.00034  -0.00024   1.92116
   A29        1.92400   0.00020  -0.00014   0.00222   0.00211   1.92611
   A30        1.94046  -0.00021  -0.00014  -0.00416  -0.00432   1.93614
   A31        1.88199   0.00003   0.00001   0.00470   0.00470   1.88669
   A32        1.92220   0.00071   0.00007   0.00007   0.00012   1.92232
   A33        1.91541   0.00002  -0.00019   0.00496   0.00477   1.92018
   A34        1.91930  -0.00014   0.00009  -0.00128  -0.00118   1.91812
   A35        1.91122  -0.00032   0.00006  -0.00205  -0.00198   1.90923
   A36        1.92857  -0.00053  -0.00019  -0.00241  -0.00261   1.92596
   A37        1.86635   0.00023   0.00017   0.00078   0.00094   1.86729
    D1        3.13486   0.00005   0.00002   0.00175   0.00177   3.13663
    D2        0.00046   0.00000  -0.00002   0.00016   0.00014   0.00060
    D3       -0.00916   0.00002   0.00002   0.00120   0.00121  -0.00795
    D4        3.13962  -0.00003  -0.00001  -0.00040  -0.00042   3.13920
    D5        3.14012  -0.00002  -0.00004  -0.00073  -0.00077   3.13935
    D6        0.00050   0.00004  -0.00001   0.00121   0.00121   0.00170
    D7        0.00096   0.00001  -0.00005  -0.00017  -0.00022   0.00074
    D8       -3.13867   0.00008  -0.00001   0.00176   0.00176  -3.13691
    D9        0.00554  -0.00008  -0.00007  -0.00204  -0.00212   0.00342
   D10       -3.12610  -0.00003  -0.00010  -0.00053  -0.00064  -3.12674
   D11        3.13993  -0.00003  -0.00004  -0.00045  -0.00049   3.13944
   D12        0.00828   0.00001  -0.00007   0.00106   0.00099   0.00928
   D13        0.00617   0.00010   0.00015   0.00178   0.00194   0.00811
   D14       -3.12538   0.00008  -0.00014   0.00591   0.00578  -3.11960
   D15        3.13783   0.00006   0.00018   0.00029   0.00048   3.13831
   D16        0.00629   0.00004  -0.00011   0.00443   0.00432   0.01061
   D17       -0.01449  -0.00007  -0.00018  -0.00072  -0.00090  -0.01539
   D18       -3.12789  -0.00011  -0.00016   0.00118   0.00102  -3.12687
   D19        3.11709  -0.00005   0.00011  -0.00483  -0.00471   3.11238
   D20        0.00369  -0.00010   0.00014  -0.00293  -0.00280   0.00090
   D21        2.84682  -0.00028   0.00018  -0.01018  -0.01001   2.83681
   D22       -1.33105  -0.00021   0.00017  -0.00951  -0.00935  -1.34040
   D23        0.71737   0.00000   0.00031  -0.00636  -0.00605   0.71132
   D24       -0.28445  -0.00030  -0.00012  -0.00594  -0.00607  -0.29052
   D25        1.82086  -0.00023  -0.00013  -0.00527  -0.00541   1.81545
   D26       -2.41390  -0.00002   0.00001  -0.00212  -0.00211  -2.41602
   D27        0.01114   0.00001   0.00013  -0.00006   0.00007   0.01121
   D28       -3.13238  -0.00005   0.00009  -0.00193  -0.00184  -3.13421
   D29        3.12681   0.00006   0.00010  -0.00178  -0.00167   3.12515
   D30       -0.01670  -0.00000   0.00007  -0.00365  -0.00357  -0.02027
   D31       -0.28000   0.00017  -0.00006   0.00274   0.00268  -0.27732
   D32        2.88849   0.00013  -0.00003   0.00453   0.00449   2.89298
   D33        0.82807   0.00036   0.00001   0.00764   0.00765   0.83572
   D34        2.94325  -0.00014  -0.00017   0.00498   0.00481   2.94806
   D35       -1.31173   0.00035  -0.00024   0.01116   0.01092  -1.30082
   D36       -1.10041  -0.00047   0.00000  -0.01491  -0.01489  -1.11530
   D37        0.99465  -0.00044  -0.00009  -0.01329  -0.01339   0.98126
   D38        3.04880   0.00015   0.00011  -0.00374  -0.00363   3.04518
   D39       -3.14062  -0.00024  -0.00029  -0.01150  -0.01178   3.13079
   D40       -1.04555  -0.00022  -0.00039  -0.00989  -0.01028  -1.05584
   D41        1.00860   0.00038  -0.00018  -0.00033  -0.00052   1.00808
   D42        1.02924  -0.00033   0.00011  -0.01697  -0.01685   1.01239
   D43        3.12431  -0.00031   0.00002  -0.01535  -0.01535   3.10895
   D44       -1.10473   0.00028   0.00022  -0.00580  -0.00559  -1.11032
   D45        0.79148   0.00023   0.00001   0.01164   0.01162   0.80310
   D46       -1.31636  -0.00004   0.00017   0.00677   0.00692  -1.30944
   D47        2.91543   0.00018   0.00004   0.00849   0.00851   2.92393
   D48       -1.28311   0.00001  -0.00008   0.00725   0.00715  -1.27596
   D49        2.89224  -0.00026   0.00007   0.00237   0.00245   2.89468
   D50        0.84084  -0.00004  -0.00005   0.00409   0.00404   0.84487
   D51        2.91393  -0.00003   0.00008   0.00260   0.00268   2.91662
   D52        0.80610  -0.00030   0.00024  -0.00228  -0.00203   0.80408
   D53       -1.24530  -0.00008   0.00011  -0.00056  -0.00044  -1.24574
         Item               Value     Threshold  Converged?
 Maximum Force            0.002124     0.000450     NO 
 RMS     Force            0.000466     0.000300     NO 
 Maximum Displacement     0.026787     0.001800     NO 
 RMS     Displacement     0.006649     0.001200     NO 
 Predicted change in Energy=-6.348125D-05
 GradGradGradGradGradGradGradGradGradGradGradGradGradGradGradGradGradGrad

                          Input orientation:                          
 ---------------------------------------------------------------------
 Center     Atomic      Atomic             Coordinates (Angstroms)
 Number     Number       Type             X           Y           Z
 ---------------------------------------------------------------------
      1         35           0        4.325680   -1.430585   -0.787393
      2          6           0        2.652728   -0.638722   -0.365146
      3          6           0        2.614926    0.624078    0.215846
      4          6           0        1.379322    1.184852    0.510005
      5          6           0        0.184463    0.521391    0.245240
      6          6           0        0.252184   -0.754708   -0.327145
      7          6           0        1.486315   -1.329792   -0.637494
      8          8           0       -0.847595   -1.508441   -0.653170
      9          6           0       -2.079795   -1.070189   -0.051789
     10          6           0       -2.273111    0.438860   -0.216514
     11          6           0       -1.152656    1.163227    0.548197
     12          1           0        3.534143    1.159562    0.428749
     13          1           0        1.339964    2.178970    0.952118
     14          1           0        1.501218   -2.316653   -1.086208
     15          1           0       -2.858006   -1.639405   -0.568233
     16          1           0       -2.087334   -1.344769    1.015897
     17          1           0       -2.227613    0.686036   -1.285674
     18          1           0       -3.259550    0.735326    0.160042
     19          1           0       -1.357610    1.115239    1.629396
     20          1           0       -1.127975    2.225722    0.273276
 ---------------------------------------------------------------------
                    Distance matrix (angstroms):
                    1          2          3          4          5
     1  Br   0.000000
     2  C    1.898449   0.000000
     3  C    2.855663   1.390556   0.000000
     4  C    4.147864   2.390162   1.388421   0.000000
     5  C    4.693210   2.794775   2.432809   1.392109   0.000000
     6  C    4.154757   2.403645   2.788985   2.394400   1.400228
     7  C    2.845105   1.382849   2.412377   2.766159   2.429180
     8  O    5.175601   3.618236   4.158350   3.683200   2.447959
     9  C    6.457640   4.762471   4.998257   4.167290   2.783562
    10  C    6.882206   5.044518   4.910615   3.797973   2.501939
    11  C    6.206756   4.308383   3.820446   2.532358   1.513811
    12  H    2.968904   2.154295   1.084911   2.156501   3.414864
    13  H    4.996928   3.376081   2.141334   1.088707   2.140660
    14  H    2.975230   2.159018   3.403467   3.850102   3.400160
    15  H    7.190061   5.604534   5.974204   5.205187   3.819345
    16  H    6.662279   4.987381   5.160202   4.321181   3.039329
    17  H    6.904637   5.140047   5.070363   4.059958   2.861628
    18  H    7.945094   6.092525   5.875794   4.673722   3.451703
    19  H    6.679961   4.810134   4.245045   2.957817   2.155582
    20  H    6.651012   4.786057   4.071593   2.725067   2.151284
                    6          7          8          9         10
     6  C    0.000000
     7  C    1.396466   0.000000
     8  O    1.372559   2.340790   0.000000
     9  C    2.369278   3.623201   1.439459   0.000000
    10  C    2.795345   4.175959   2.452498   1.530272   0.000000
    11  C    2.533431   3.819054   2.945192   2.491529   1.537826
    12  H    3.873894   3.395196   5.242939   6.059621   5.887272
    13  H    3.380273   3.854828   4.578139   4.822822   4.177079
    14  H    2.139143   1.084186   2.521438   3.930312   4.753396
    15  H    3.242544   4.355890   2.016462   1.093770   2.187463
    16  H    2.761391   3.937625   2.085552   1.102454   2.175933
    17  H    3.023890   4.275156   2.668378   2.151429   1.098302
    18  H    3.845755   5.236794   3.393130   2.167159   1.096699
    19  H    3.148998   4.382337   3.514814   2.850268   2.168643
    20  H    3.338908   4.506184   3.857576   3.445962   2.178097
                   11         12         13         14         15
    11  C    0.000000
    12  H    4.688322   0.000000
    13  H    2.721771   2.475385   0.000000
    14  H    4.671605   4.302551   4.938765   0.000000
    15  H    3.465455   7.048954   5.874896   4.441824   0.000000
    16  H    2.717059   6.182024   4.916011   4.270961   1.786118
    17  H    2.178606   6.030033   4.468128   4.791671   2.513920
    18  H    2.184666   6.812227   4.885389   5.790736   2.516141
    19  H    1.101499   5.037139   2.977774   5.227359   3.829989
    20  H    1.097764   4.784999   2.560026   5.421626   4.317447
                   16         17         18         19         20
    16  H    0.000000
    17  H    3.072634   0.000000
    18  H    2.536410   1.776912   0.000000
    19  H    2.638278   3.072255   2.433251   0.000000
    20  H    3.770976   2.451563   2.603405   1.767757   0.000000
 Stoichiometry    C9H9BrO
 Framework group  C1[X(C9H9BrO)]
 Deg. of freedom    54
 Full point group                 C1      NOp   1
 Largest Abelian subgroup         C1      NOp   1
 Largest concise Abelian subgroup C1      NOp   1
                         Standard orientation:                         
 ---------------------------------------------------------------------
 Center     Atomic      Atomic             Coordinates (Angstroms)
 Number     Number       Type             X           Y           Z
 ---------------------------------------------------------------------
      1         35           0        3.010893   -0.253780   -0.025917
      2          6           0        1.165922    0.192240    0.009545
      3          6           0        0.780449    1.527194    0.063900
      4          6           0       -0.574732    1.828582    0.082911
      5          6           0       -1.552783    0.838374    0.053352
      6          6           0       -1.136502   -0.497933    0.012963
      7          6           0        0.222395   -0.818402   -0.015598
      8          8           0       -1.995159   -1.567631   -0.035788
      9          6           0       -3.358142   -1.264247    0.313894
     10          6           0       -3.855962   -0.016862   -0.419549
     11          6           0       -3.025081    1.190387    0.046388
     12          1           0        1.526233    2.314827    0.085599
     13          1           0       -0.885591    2.871580    0.111295
     14          1           0        0.508811   -1.863380   -0.053620
     15          1           0       -3.922540   -2.156798    0.029042
     16          1           0       -3.437174   -1.126340    1.404830
     17          1           0       -3.733998   -0.170430   -1.500202
     18          1           0       -4.922204    0.139219   -0.215794
     19          1           0       -3.346554    1.487366    1.057208
     20          1           0       -3.200332    2.051301   -0.611792
 ---------------------------------------------------------------------
 Rotational constants (GHZ):           2.4357980           0.3703288           0.3253439
 Standard basis: MIDIx (5D, 7F)
 There are   143 symmetry adapted cartesian basis functions of A   symmetry.
 There are   140 symmetry adapted basis functions of A   symmetry.
   140 basis functions,   246 primitive gaussians,   143 cartesian basis functions
    53 alpha electrons       53 beta electrons
       nuclear repulsion energy       824.1252930162 Hartrees.
 NAtoms=   20 NActive=   20 NUniq=   20 SFac= 1.00D+00 NAtFMM=   60 NAOKFM=F Big=F
 Integral buffers will be    131072 words long.
 Raffenetti 2 integral format.
 Two-electron integral symmetry is turned on.
 Nuclear repulsion after empirical dispersion term =      824.1130891561 Hartrees.
 One-electron integrals computed using PRISM.
 NBasis=   140 RedAO= T EigKep=  1.09D-03  NBF=   140
 NBsUse=   140 1.00D-06 EigRej= -1.00D+00 NBFU=   140
 Initial guess from the checkpoint file:  "/home/rpaton/opt/midi/Gau-4134432.chk"
 B after Tr=    -0.000000   -0.000000    0.000000
         Rot=    1.000000    0.000198    0.000056   -0.000171 Ang=   0.03 deg.
 ExpMin= 1.47D-01 ExpMax= 6.10D+03 ExpMxC= 6.10D+03 IAcc=3 IRadAn=         5 AccDes= 0.00D+00
 Harris functional with IExCor= 4639 and IRadAn=       5 diagonalized for initial guess.
 HarFok:  IExCor= 4639 AccDes= 0.00D+00 IRadAn=         5 IDoV= 1 UseB2=F ITyADJ=14
 ICtDFT=  3500011 ScaDFX=  1.000000  1.000000  1.000000  1.000000
 FoFCou: FMM=F IPFlag=           0 FMFlag=      100000 FMFlg1=           0
         NFxFlg=           0 DoJE=T BraDBF=F KetDBF=T FulRan=T
         wScrn=  0.000000 ICntrl=       500 IOpCl=  0 I1Cent=   200000004 NGrid=           0
         NMat0=    1 NMatS0=      1 NMatT0=    0 NMatD0=    1 NMtDS0=    0 NMtDT0=    0
 Petite list used in FoFCou.
 Requested convergence on RMS density matrix=1.00D-08 within 128 cycles.
 Requested convergence on MAX density matrix=1.00D-06.
 Requested convergence on             energy=1.00D-06.
 No special actions if energy rises.
 Integral accuracy reduced to 1.0D-05 until final iterations.
 Initial convergence to 1.0D-05 achieved.  Increase integral accuracy.
 SCF Done:  E(RwB97XD) =  -2983.04827800     A.U. after   12 cycles
            NFock= 12  Conv=0.54D-08     -V/T= 2.0022
 Calling FoFJK, ICntrl=      2127 FMM=F ISym2X=0 I1Cent= 0 IOpClX= 0 NMat=1 NMatS=1 NMatT=0.
 ***** Axes restored to original set *****
 -------------------------------------------------------------------
 Center     Atomic                   Forces (Hartrees/Bohr)
 Number     Number              X              Y              Z
 -------------------------------------------------------------------
      1       35           0.000045285    0.000027777   -0.000005185
      2        6          -0.000265461   -0.000378057   -0.000110056
      3        6           0.000056265    0.000303408    0.000189794
      4        6           0.000301252    0.000301190    0.000035847
      5        6          -0.000582939   -0.000070309   -0.000009900
      6        6          -0.000748691   -0.000003117    0.000110225
      7        6           0.000904058    0.000003277   -0.000093566
      8        8           0.000613111   -0.000018736   -0.000093840
      9        6          -0.000857780   -0.000348194    0.000236860
     10        6          -0.000196568    0.000243045   -0.000216077
     11        6           0.000438370   -0.000038589   -0.000027591
     12        1           0.000003287   -0.000069257   -0.000047346
[...]
 816,-0.00589330,-0.00261756,0.00077985,0.00342486,0.00153959,-0.005661
 75,-0.01340834,-0.00511458,-0.22420877,-0.10952340,-0.04201749,-0.0632
 1160,-0.02685500,-0.00943364,0.53229775,0.00053106,0.00036354,0.000101
 37,0.00191401,-0.00516114,-0.00410033,-0.00510806,0.00256484,0.0017503
 0,0.01005328,-0.00146136,-0.00433478,-0.04245465,-0.02343753,-0.014999
 71,-0.08287936,-0.16419249,-0.06323105,0.00741734,0.01520249,0.0037083
 9,0.07041449,0.27429000,0.00062774,0.00013190,0.00006077,0.00337605,-0
 .00325470,0.00376535,-0.00202389,-0.00024703,-0.00104134,0.00288312,-0
 .00369521,0.00598054,-0.01856511,-0.01240819,0.00061507,-0.01748563,-0
 .05663878,-0.07483947,0.00396962,0.00640001,0.01066069,-0.05367544,0.1
 2184191,0.16040156,0.00054854,-0.00024195,-0.00013239,-0.00276279,0.00
 123120,0.00043996,0.00289862,0.00074794,0.00028633,-0.00310988,0.00038
 870,0.00034281,0.00735739,0.00579710,0.00136811,-0.06660081,-0.0054666
 4,0.00783544,0.00439642,-0.00338592,-0.00136664,-0.16927936,0.02293061
 ,0.05084302,0.54378386,-0.00032702,-0.00002367,-0.00000112,0.00064561,
 0.00140082,-0.00063352,-0.00043495,-0.00062358,-0.00025663,0.00070580,
 -0.00006643,-0.00043696,-0.00167518,-0.00182782,0.00094500,-0.01323118
 ,0.01409399,0.01631049,-0.00486220,-0.00262872,-0.00141978,0.04323509,
 -0.09708050,-0.04400970,0.08643875,0.49772117,-0.00063167,0.00015402,-
 0.00006028,-0.00019780,-0.00103246,0.00114363,-0.00090546,0.00033803,0
 .00015349,0.00122406,-0.00010897,-0.00074180,-0.00214304,-0.00285893,0
 .00189178,-0.00682045,0.01119446,-0.00022660,-0.00346640,-0.00314149,0
 .00119073,0.06876566,-0.03489757,-0.10100068,0.05655409,0.01953128,0.5
 9609435,-0.00009369,0.00005848,-0.00000300,0.00067210,0.00005800,0.000
 27435,-0.00088782,-0.00158880,-0.00023931,-0.00271676,0.00434272,0.001
 36285,-0.03489974,-0.01703064,-0.01724157,0.00535056,0.00430738,-0.000
 70978,-0.00169337,-0.00090501,0.00028460,-0.02086258,0.03893749,0.0041
 5677,-0.08120092,-0.00434408,-0.00292348,0.56584567,0.00011190,-0.0001
 0211,-0.00000408,0.00035750,0.00088498,0.00041993,0.00095986,0.0000646
 3,-0.00054223,0.00162651,-0.00213237,-0.00095757,0.00884011,0.00947138
 ,0.00705749,0.00140537,-0.00124999,0.00011547,-0.00103783,0.00013199,0
 .00004221,0.01303485,-0.01362261,-0.00345991,0.00318958,-0.16237334,0.
 01768365,-0.03966180,0.44430336,0.00022828,-0.00012909,-0.00003316,-0.
 00011828,0.00045166,0.00010040,0.00086193,-0.00001240,-0.00009035,0.00
 184056,-0.00140615,0.00008107,0.00389060,0.00469365,0.00378851,-0.0014
 5437,-0.00264147,0.00215825,0.00014978,0.00015888,-0.00060162,0.010932
 56,-0.01762353,0.00115572,-0.00352034,0.01868568,-0.08868936,-0.053194
 69,-0.01974868,0.58673238,0.00023754,-0.00004888,-0.00001730,0.0000974
 8,0.00112937,0.00048277,0.00054468,-0.00361898,-0.00170476,-0.03289343
 ,0.01426206,0.00680379,-0.16846862,0.04051615,0.02296209,0.00153437,0.
 00820668,0.00307285,-0.00031121,-0.00192516,-0.00124034,-0.00570581,-0
 .00170816,0.00010639,0.00334229,-0.00774844,-0.00185186,-0.12454247,-0
 .02887551,-0.03184845,0.44936843,0.00000840,0.00011887,0.00020399,-0.0
 0053951,-0.00184393,-0.00043265,-0.00464733,-0.00044455,-0.00165756,-0
 .01114128,0.01085878,0.00366101,0.03923617,-0.11295268,-0.01593410,0.0
 3198650,-0.01073160,-0.00982456,-0.00072880,-0.00221075,-0.00417118,-0
 .00081420,0.00610935,0.00352320,-0.03363293,-0.03310376,-0.02020130,-0
 .02408097,-0.09889743,-0.01995433,0.00466017,0.58362572,0.00007549,0.0
 0027027,-0.00048860,0.00043858,-0.00030124,-0.00074780,-0.00223749,-0.
 00319258,0.00538798,-0.00475584,0.00269444,0.00630084,0.01745057,-0.01
 494236,-0.08652557,0.01680274,-0.00659326,0.00258551,-0.00094780,-0.00
 338289,0.00501862,-0.00287418,0.00163166,-0.00229251,0.00239386,-0.002
 20464,0.00203536,-0.03224737,-0.02047971,-0.10715236,-0.02608337,-0.02
 692982,0.54754361,0.00128191,0.00059294,0.00013680,0.00314111,0.004353
 32,0.00199869,-0.26791756,-0.12316892,-0.04840971,-0.01934354,-0.01630
 637,-0.00660477,-0.00216002,0.00319362,0.00179419,0.00018935,0.0009144
 4,0.00035213,0.00129154,0.00106326,0.00061422,0.00017825,-0.00005592,0
 .00001449,0.00001035,0.00012439,-0.00001753,-0.00028425,0.00020038,0.0
 0018761,-0.00052699,-0.00085950,-0.00040027,0.28298133,-0.00036780,0.0
 0018402,0.00121734,-0.02698206,-0.01140863,-0.00567231,-0.12068573,-0.
 12816172,-0.03613928,0.01391620,0.01091764,0.00243926,0.00272075,0.000
 38394,-0.00326817,0.00102807,-0.00068811,-0.00009852,0.00159886,-0.003
 13461,-0.00412164,-0.00012280,0.00005922,0.00038438,0.00004579,-0.0001
 1139,-0.00002131,0.00013170,-0.00004524,-0.00002197,0.00027175,0.00049
 740,0.00008538,0.12985317,0.13187038,-0.00026754,0.00116892,-0.0018866
 8,-0.01245257,-0.00694917,0.00033773,-0.04733905,-0.03586745,-0.054790
 66,0.00735954,0.00348869,0.00581477,0.00114184,-0.00332210,0.00574934,
 0.00033348,-0.00001062,-0.00056651,0.00118450,-0.00401926,0.00379787,-
 0.00005726,0.00032057,-0.00056744,-0.00004057,0.00011637,-0.00003838,0
 .00008007,-0.00013384,-0.00010911,0.00031423,0.00003260,0.00038399,0.0
 5053274,0.04338206,0.04527414,-0.00070868,0.00093693,0.00046048,-0.003
 73599,0.00155513,0.00104785,0.00248796,0.02875552,0.01301827,-0.062439
 79,0.00884030,0.00433979,0.00330122,-0.02708038,-0.01197804,-0.0043096
 0,-0.00153873,-0.00039850,-0.00098138,-0.00016389,-0.00008952,-0.00052
 824,-0.00150492,-0.00051781,0.00083191,-0.00016085,-0.00016261,0.00008
 242,0.00031438,0.00003206,0.00149880,-0.00109544,-0.00020273,0.0010705
 4,-0.00016983,-0.00026218,0.06399470,0.00026382,-0.00040494,-0.0001973
 9,0.00150190,0.00204635,-0.00228306,-0.00196769,-0.00814110,-0.0061734
 8,0.00889541,-0.29009423,-0.10975014,0.00272774,-0.01185511,-0.0078624
 7,-0.00214671,0.00224394,-0.00204843,-0.00005456,0.00050057,0.00062818
 ,-0.00025361,-0.00096817,-0.00026379,0.00060300,0.00002023,-0.00020960
 ,-0.00001414,0.00008757,0.00005067,0.00095167,0.00047476,0.00206079,0.
 00005525,-0.00002352,0.00204477,-0.00912071,0.30584457,0.00014000,-0.0
 0021992,-0.00007777,0.00114931,-0.00206486,0.00630614,-0.00023498,-0.0
 0744832,0.00225740,0.00377616,-0.10956663,-0.09219565,0.00108361,-0.00
 630472,0.00288337,-0.00047278,-0.00256177,0.00599270,-0.00030725,0.000
 62382,-0.00065790,-0.00016407,-0.00013233,-0.00037865,0.00025320,-0.00
 003362,0.00003458,-0.00020728,0.00022072,-0.00008418,0.00051052,0.0009
 0356,-0.00294378,-0.00016494,0.00211748,-0.00376306,-0.00511161,0.1235
 4246,0.08332265,0.00073056,-0.00064829,-0.00044072,0.00358052,-0.02646
 069,-0.01203705,-0.00442211,-0.00206355,-0.00052958,-0.00124135,0.0000
 2270,0.00000851,-0.00477395,0.00098601,0.00080457,0.00384306,0.0272939
 7,0.01265018,-0.05921463,0.00551609,0.00317461,0.00212891,-0.00032497,
 -0.00062484,-0.00037576,-0.00014448,0.00019927,0.00047944,-0.00004304,
 -0.00005196,0.00030514,0.00105830,0.00033920,0.00026061,-0.00120058,-0
 .00054423,0.00002592,0.00001814,-0.00002391,0.05899014,0.00041885,0.00
 046430,0.00146488,0.00321865,-0.01001272,-0.00621241,-0.00232802,0.001
 98895,-0.00187714,0.00039308,0.00071150,0.00076242,0.00167627,0.001505
 63,-0.00215974,-0.00219672,-0.00830719,-0.00646541,0.00424288,-0.29881
 510,-0.11764681,-0.00124829,0.00011846,0.00164874,0.00027918,-0.000043
 49,0.00029840,-0.00008688,0.00003893,-0.00005426,-0.00048523,-0.000376
 00,-0.00000239,0.00007445,-0.00033643,-0.00037455,0.00002160,-0.000157
 27,0.00018138,-0.00406035,0.31323061,0.00002183,0.00151017,-0.00208885
 ,0.00140426,-0.00515534,0.00088272,-0.00080189,-0.00174964,0.00547434,
 0.00035300,0.00084008,-0.00056018,0.00131759,-0.00195587,0.00483535,-0
 .00179549,-0.00809940,0.00306094,0.00313136,-0.11758909,-0.09367149,-0
 .00094552,0.00174983,-0.00255128,0.00037157,0.00041591,-0.00066013,-0.
 00028784,0.00009842,0.00012356,-0.00019684,-0.00017294,-0.00035492,0.0
 0004211,-0.00034917,0.00037400,-0.00001018,0.00016035,-0.00045225,-0.0
 0294419,0.13039560,0.08578584,-0.00024772,0.00004484,0.00000935,0.0000
 6963,0.00024550,0.00011371,-0.00012520,-0.00007754,-0.00002511,0.00018
 886,-0.00001819,-0.00007356,-0.00029086,0.00010506,0.00005643,-0.00166
 726,0.00517430,0.00235722,-0.00136889,-0.00127194,-0.00022348,-0.03506
 255,-0.01564981,-0.00904557,-0.17677751,-0.09749531,-0.09055545,0.0063
 2175,0.00368738,0.00267981,0.00059384,0.00193750,-0.00043571,-0.000005
 98,-0.00001577,-0.00000362,-0.00005748,-0.00007232,-0.00002569,0.00000
 636,0.00000952,-0.00001607,0.20592282,0.00000875,0.00002150,0.00002576
 ,-0.00001228,-0.00017079,-0.00007192,-0.00002764,0.00010708,0.00004610
 ,-0.00008412,0.00008377,0.00007825,0.00092272,0.00020814,0.00007169,0.
 00151661,-0.00075153,-0.00080467,0.00044686,0.00051242,0.00003235,0.01
 271009,0.00706000,0.00414756,-0.10408048,-0.12710217,-0.06816573,-0.02
 417905,-0.01738630,-0.01768816,0.00220225,-0.00663674,0.00269829,-0.00
 001802,0.00001046,-0.00000005,0.00009222,0.00004828,0.00002745,-0.0000
 2870,0.00001217,0.00000115,0.10536425,0.13649167,0.00004702,0.00001763
 ,0.00000998,0.00000098,-0.00024155,-0.00016560,-0.00007821,0.00013412,
 0.00007056,0.00009789,0.00007380,0.00001215,0.00038345,-0.00006332,-0.
 00016887,0.00317919,-0.00122542,-0.00009163,0.00071161,0.00058417,0.00
 019448,0.01830584,0.00856238,0.00729693,-0.09940660,-0.07058777,-0.121
 95557,0.00378238,0.00488786,0.00264087,-0.00001975,0.00064674,0.000802
 89,-0.00000693,0.00000680,0.00000558,0.00000164,0.00003365,0.00000324,
 -0.00002135,-0.00002967,0.00001369,0.09600571,0.07537000,0.12469241,-0
 .00008723,-0.00000031,0.00002439,0.00076206,0.00088913,0.00001588,0.00
 013345,-0.00071758,-0.00028992,-0.00046448,-0.00003682,-0.00019627,0.0
 0018053,0.00039754,-0.00077564,0.00713518,0.00315688,0.00464270,-0.002
 01718,0.00026181,-0.00049609,-0.01750650,-0.00352469,0.03643523,-0.053
 43033,-0.00324015,-0.01332190,0.00244799,0.00046858,-0.00585033,0.0001
 3734,-0.00101630,0.00112046,0.00001494,-0.00003411,0.00002927,-0.00005
 622,-0.00005028,-0.00001243,0.00012067,-0.00015847,0.00021366,0.001846
 08,0.00645508,-0.02355042,0.05977641,0.00007869,-0.00003361,-0.0000272
 3,-0.00020912,0.00004342,0.00008111,0.00023113,0.00001920,0.00003780,-
 0.00018401,-0.00002139,-0.00005333,-0.00011234,0.00073916,-0.00037870,
 -0.00245125,-0.00142562,0.00004609,0.00038372,-0.00011516,0.00008146,0
 .00696849,0.00461491,-0.01257630,-0.00268689,-0.06843317,0.06003070,0.
 00079884,-0.01335121,0.03524303,0.00072115,0.00181375,0.00129478,0.000
 00042,0.00000509,-0.00000504,0.00000492,0.00001756,0.00001388,-0.00001
 080,0.00002297,-0.00002964,-0.00117936,0.00578718,-0.01753225,-0.00350
 398,0.07571731,0.00011674,-0.00003227,-0.00001822,-0.00059475,-0.00023
 472,-0.00004057,0.00029105,0.00041928,0.00019322,0.00011299,-0.0000610
 3,-0.00017504,0.00059315,0.00120961,0.00004895,-0.00411348,-0.00259378
 ,-0.00111494,0.00151712,0.00011064,0.00002668,0.01486753,-0.00089942,-
 0.01107890,-0.01117126,0.06152996,-0.28222575,-0.00168175,0.00004007,-
 0.00346625,0.00053199,-0.00109966,0.00050531,-0.00000397,0.00000458,0.
 00000845,0.00002241,0.00006144,-0.00000287,-0.00009984,0.00007866,-0.0
 0006681,-0.00110063,0.00539981,-0.01459415,0.00141493,-0.06513686,0.30
 984437,0.00007962,-0.00003087,-0.00001582,-0.00009457,0.00010326,0.000
 03708,0.00013733,-0.00008895,-0.00000761,-0.00025059,-0.00016931,0.000
 18656,0.00118779,0.00015408,-0.00021591,-0.00130564,-0.00024500,-0.000
 52956,0.00012440,0.00002446,0.00008384,0.00134193,0.00021241,-0.000630
 29,-0.00051369,0.00298282,-0.00285644,-0.05329828,-0.00325032,0.015104
 77,-0.00066202,0.00369647,-0.02703358,0.00001024,0.00001163,-0.0000214
 3,0.00006711,0.00006404,-0.00004291,-0.00001834,0.00003565,-0.00003358
 ,-0.00005443,-0.00034685,0.00040989,0.00057754,0.00068883,-0.00055324,
 0.05569002,-0.00004458,0.00001437,0.00001075,0.00012453,0.00006402,0.0
 0004379,0.00002687,-0.00008050,-0.00004429,-0.00011146,-0.00008931,0.0
 0009118,0.00108430,-0.00014848,0.00134884,0.00108393,0.00038897,0.0000
 3231,-0.00019942,0.00005779,0.00005956,-0.00223844,0.00332869,-0.00197
 966,-0.00155340,-0.01437563,0.03887176,-0.00176609,-0.06107311,0.05606
 078,-0.00070637,0.00234591,-0.01997844,-0.00000706,0.00000569,-0.00001
 894,-0.00000228,-0.00000102,-0.00002459,0.00001960,-0.00001031,0.00001
 544,-0.00037893,0.00133155,-0.00020410,0.00134691,-0.00629437,0.000033
 32,0.00544957,0.07265980,-0.00003358,0.00001074,0.00001758,0.00006920,
 0.00014186,0.00005957,0.00010499,-0.00013291,-0.00006339,-0.00045214,0
 .00003911,0.00015784,0.00052407,-0.00006901,0.00064456,-0.00065959,0.0
 0028534,-0.00037431,-0.00014139,0.00006049,-0.00000313,-0.00068790,-0.
 00057244,0.00132154,0.00127926,0.00036282,-0.00438566,0.01294541,0.057
 83687,-0.29825724,0.00072608,0.00243927,-0.01650884,-0.00001594,0.0000
 1293,-0.00002048,0.00003807,0.00002754,-0.00002628,-0.00001865,0.00002
 875,-0.00002296,0.00009733,0.00044599,0.00058380,0.00046433,0.00019858
 ,0.00129727,-0.01199496,-0.06222850,0.32566737,-0.00013479,0.00008174,
 0.00002780,0.00013098,-0.00017637,-0.00009914,-0.00035211,-0.00019629,
 0.00005550,-0.00076335,0.00097601,0.00040511,-0.00166808,-0.00398045,-
 0.00324860,0.00049880,-0.00058480,-0.00008373,0.00010893,0.00003118,0.
 00010357,0.00153192,0.00030676,-0.00058643,-0.00341324,-0.00099473,0.0
 0169658,-0.26102735,0.06557931,0.08359693,-0.02211223,0.00761833,0.008
 07185,-0.00011092,0.00004750,0.00003002,0.00001966,0.00000954,-0.00004
 533,-0.00001860,0.00001910,0.00001447,0.00037518,0.00040108,0.00006530
 ,0.00006086,0.00032907,-0.00040140,-0.00104746,0.00049277,-0.00001493,
 0.28676275,0.00002174,0.00002614,0.00000437,-0.00022021,-0.00018654,-0
 .00017791,-0.00010529,0.00003676,0.00017056,-0.00068538,0.00068001,0.0
 0000772,-0.00202269,-0.00167253,-0.00234042,-0.00308890,-0.00199925,-0
 .00036770,0.00077554,0.00018500,-0.00002067,0.00495312,-0.00797081,0.0
 0055654,0.03184328,-0.00663608,-0.01405344,0.06445192,-0.07047036,-0.0
 2300386,-0.01741645,0.00542321,0.00583780,-0.00006225,0.00001433,0.000
 07369,0.00003517,0.00006369,-0.00004091,-0.00013283,0.00004395,0.00007
 105,-0.00069794,0.00108551,-0.00078765,-0.00041734,0.00110629,0.000882
 26,-0.00781091,0.00239612,0.00287342,-0.07034952,0.07688074,0.00000696
 ,0.00000582,0.00000598,-0.00002372,-0.00002276,0.00000039,-0.00014230,
 -0.00017254,-0.00008637,-0.00078511,0.00059687,0.00039769,-0.00260118,
 -0.00255014,-0.00139535,-0.00057651,-0.00043173,-0.00035797,0.00011305
 ,0.00003349,-0.00002589,0.00041806,0.00057334,0.00146477,-0.00408150,0
 .00261965,-0.00009326,0.08606518,-0.02499257,-0.08310333,-0.01917381,0
 .00501904,0.00423984,-0.00007255,0.00003223,0.00001183,0.00001822,-0.0
 0001569,-0.00000991,-0.00000559,0.00002346,0.00000056,0.00002758,-0.00
 048473,0.00005988,0.00005405,-0.00038527,-0.00004222,0.03001251,-0.009
 94818,-0.01068765,-0.08985107,0.02929590,0.08840118,-0.00032694,0.0000
 8813,0.00015184,0.00004978,-0.00014742,0.00014669,-0.00003946,0.000781
 64,-0.00095775,0.00037354,0.00138425,-0.00001448,-0.01136704,0.0019714
 6,0.03147298,-0.00304912,-0.00126485,-0.00045311,-0.00027429,0.0005850
 4,-0.00111380,0.00191281,-0.00000323,0.00097725,-0.00029698,0.00193545
 ,0.00040938,0.00117114,-0.00018794,-0.02984660,-0.05478736,-0.00413941
 ,0.04938190,-0.00007910,-0.00001221,-0.00000037,-0.00012853,-0.0007938
 2,0.00044454,-0.00012101,0.00006217,0.00007005,-0.00003714,0.00021396,
 0.00009655,0.00033299,-0.00029099,0.00026661,-0.00322416,-0.00319412,-
 0.00249762,0.00102808,0.00061229,-0.00012941,0.06856187,0.00005849,-0.
 00003905,-0.00005973,0.00042542,0.00089290,0.00039413,0.00067707,-0.00
 110403,-0.00014359,-0.00184662,0.00017306,0.00002473,0.00692187,0.0002
 1894,-0.01673867,0.00263689,-0.00043891,0.00022709,-0.00094250,-0.0004
 6115,0.00053549,-0.00070679,-0.00027862,-0.00010307,0.00067367,0.00119
 682,-0.00170075,0.00069965,-0.00038401,-0.01722571,-0.00344855,-0.0511
 8205,0.01527477,0.00001207,-0.00000879,0.00002414,-0.00018941,0.000167
 51,-0.00008774,0.00006388,-0.00001052,-0.00013021,-0.00011144,0.000131
 36,0.00033720,-0.00020181,-0.00062181,0.00034071,-0.00198294,-0.001101
 36,-0.00138529,0.00072095,0.00090445,0.00059656,0.00252902,0.05394272,
 0.00010601,-0.00004142,-0.00005948,-0.00011151,0.00050492,0.00015085,0
 .00063510,-0.00059544,0.00011639,-0.00070092,-0.00028232,0.00047842,0.
 00345180,-0.00145257,-0.00349507,0.00080560,0.00082775,-0.00038458,-0.
 00017336,-0.00032359,0.00011742,-0.00068903,-0.00004824,0.00063071,0.0
 0107591,0.00060695,-0.00061002,0.00116818,0.00153646,-0.01836842,0.045
 17664,0.01493572,-0.29098327,0.00004074,-0.00001534,-0.00001962,0.0001
 6831,0.00020794,-0.00047043,0.00006762,-0.00002008,-0.00003796,-0.0000
 5894,-0.00005530,0.00031121,0.00012399,-0.00075382,0.00059010,-0.00246
 322,-0.00190807,-0.00001007,-0.00015709,0.00044415,0.00092542,-0.04997
 402,-0.01397157,0.32049228,-0.00016101,0.00003197,0.00000630,-0.000047
 64,-0.00003649,-0.00023119,0.00026034,0.00001928,0.00034588,0.00143786
 ,0.00142097,0.00100149,-0.00415535,0.03314720,-0.00584478,-0.00552767,
 -0.00041729,-0.00108884,0.00049843,0.00028407,0.00124260,0.00196668,0.
 00049633,-0.00023468,-0.00540810,-0.00140934,-0.00299495,-0.00086384,-
 0.02671929,0.00638012,-0.04764977,-0.00750613,0.00114371,-0.00000178,-
 0.00003453,-0.00001687,-0.00043434,-0.00061665,-0.00054416,-0.00028559
 ,0.00011258,0.00009172,0.00037051,-0.00155672,-0.00000418,0.00003590,0
 .00042349,-0.00001418,0.00125319,0.00057371,0.00026796,0.00013098,0.00
 031667,0.00072714,0.00030092,-0.00598891,0.00150820,0.05828027,0.00011
 256,-0.00005487,0.00005647,-0.00011068,0.00055173,0.00033693,0.0006500
 2,-0.00004453,-0.00087106,-0.00226235,0.00108537,-0.00037323,0.0018213
 0,-0.01401459,0.00126470,0.00164060,0.00006697,0.00119500,-0.00046033,
 -0.00032824,-0.00059048,0.00032092,0.00046175,0.00000210,-0.00312060,-
 0.00000328,-0.00171073,-0.00012871,-0.01389476,0.00416527,-0.00693953,
 -0.29288827,0.06615915,0.00004033,-0.00002974,0.00004920,0.00047027,0.
 00013032,0.00085466,0.00013959,-0.00006845,-0.00002671,0.00040021,-0.0
 0084356,0.00001738,-0.00007406,0.00040949,-0.00005262,0.00050194,0.000
 58121,-0.00037555,-0.00033116,0.00008937,0.00020723,-0.00012943,-0.001
 99747,0.00040388,0.00745909,0.32079153,-0.00001400,0.00000633,0.000027
 89,-0.00040912,-0.00044554,-0.00013382,-0.00031216,0.00030605,-0.00019
 084,-0.00036818,0.00019298,0.00065934,0.00239260,-0.01038601,0.0013878
 6,0.00040914,0.00006428,-0.00000197,0.00067708,-0.00036071,-0.00041915
 ,0.00023314,0.00059963,0.00039663,-0.00332424,-0.00154037,-0.00185643,
 -0.00138372,-0.01962054,0.00317463,0.00144914,0.06901294,-0.06680631,-
 0.00001709,0.00002527,0.00000423,-0.00041392,-0.00001374,0.00026265,0.
 00009796,-0.00003983,-0.00008418,0.00021669,-0.00107382,0.00027817,-0.
 00004590,-0.00014898,0.00031137,0.00056392,-0.00023297,0.00061049,0.00
 042058,0.00057510,0.00029441,0.00156938,0.03379150,-0.00937388,-0.0017
 4128,-0.07071158,0.07145892\\0.00000792,-0.00003305,-0.00001777,0.0000
 3014,0.00011677,0.00007008,0.00013280,0.00001523,0.00001021,-0.0001483
 2,-0.00014351,-0.00008634,0.00010517,0.00023490,0.00010530,0.00018924,
 -0.00010438,-0.00003473,-0.00013118,-0.00004339,-0.00005749,-0.0001107
 2,-0.00003018,0.00004017,-0.00003172,-0.00009807,-0.00015407,0.0000829
 6,-0.00002493,-0.00001255,-0.00011647,-0.00002839,0.00003922,-0.000030
 60,0.00000054,-0.00000500,0.00000235,0.00005401,0.00003377,-0.00000454
 ,0.00000585,0.00001969,-0.00003988,0.00000693,0.00002495,0.00001798,0.
 00004914,0.00002966,-0.00001573,0.00001394,0.00001515,-0.00001126,-0.0
 0001461,0.00003229,0.00001748,0.00000511,-0.00003616,0.00005437,0.0000
 1808,-0.00001636\\\@
 The archive entry for this job was punched.


 ALL SCIENCE IS EITHER PHYSICS, OR STAMP COLLECTING.
   --ERNEST RUTHERFORD, 1871-1937.
 Job cpu time:       0 days  0 hours 14 minutes 20.7 seconds.
 Elapsed time:       0 days  0 hours  0 minutes 36.3 seconds.
 File lengths (MBytes):  RWF=     65 Int=      0 D2E=      0 Chk=      3 Scr=      1
 Normal termination of Gaussian 16 at Wed Sep 25 15:48:12 2024.
