 Entering Gaussian System, Link 0=/usr/local/Gaussian/G16C/g16/g16
 Input=arbr47_wb97xd.com
 Output=arbr47_wb97xd.log
 Initial command:
 /usr/local/Gaussian/G16C/g16/l1.exe "/home/rpaton/opt/midi/Gau-4146479.inp" -scrdir="/home/rpaton/opt/midi/"
 Entering Link 1 = /usr/local/Gaussian/G16C/g16/l1.exe PID=   4146480.
  
 Copyright (c) 1988-2019, Gaussian, Inc.  All Rights Reserved.
  
 This is part of the Gaussian(R) 16 program.  It is based on
 the Gaussian(R) 09 system (copyright 2009, Gaussian, Inc.),
 the Gaussian(R) 03 system (copyright 2003, Gaussian, Inc.),
 the Gaussian(R) 98 system (copyright 1998, Gaussian, Inc.),
 the Gaussian(R) 94 system (copyright 1995, Gaussian, Inc.),
 the Gaussian 92(TM) system (copyright 1992, Gaussian, Inc.),
 the Gaussian 90(TM) system (copyright 1990, Gaussian, Inc.),
 the Gaussian 88(TM) system (copyright 1988, Gaussian, Inc.),
 the Gaussian 86(TM) system (copyright 1986, Carnegie Mellon
 University), and the Gaussian 82(TM) system (copyright 1983,
 Carnegie Mellon University). Gaussian is a federally registered
 trademark of Gaussian, Inc.
  
 This software contains proprietary and confidential information,
 including trade secrets, belonging to Gaussian, Inc.
  
 This software is provided under written license and may be
 used, copied, transmitted, or stored only in accord with that
 written license.
  
 The following legend is applicable only to US Government
 contracts under FAR:
  
                    RESTRICTED RIGHTS LEGEND
  
 Use, reproduction and disclosure by the US Government is
 subject to restrictions as set forth in subparagraphs (a)
 and (c) of the Commercial Computer Software - Restricted
 Rights clause in FAR 52.227-19.
  
 Gaussian, Inc.
 340 Quinnipiac St., Bldg. 40, Wallingford CT 06492
  
  
 ---------------------------------------------------------------
 Warning -- This program may not be used in any manner that
 competes with the business of Gaussian, Inc. or will provide
 assistance to any competitor of Gaussian, Inc.  The licensee
 of this program is prohibited from giving any competitor of
 Gaussian, Inc. access to this program.  By using this program,
 the user acknowledges that Gaussian, Inc. is engaged in the
 business of creating and licensing software in the field of
 computational chemistry and represents and warrants to the
 licensee that it is not a competitor of Gaussian, Inc. and that
 it will not use this program in any manner prohibited above.
 ---------------------------------------------------------------
  

 Cite this work as:
 Gaussian 16, Revision C.01,
 M. J. Frisch, G. W. Trucks, H. B. Schlegel, G. E. Scuseria, 
 M. A. Robb, J. R. Cheeseman, G. Scalmani, V. Barone, 
 G. A. Petersson, H. Nakatsuji, X. Li, M. Caricato, A. V. Marenich, 
 J. Bloino, B. G. Janesko, R. Gomperts, B. Mennucci, H. P. Hratchian, 
 J. V. Ortiz, A. F. Izmaylov, J. L. Sonnenberg, D. Williams-Young, 
 F. Ding, F. Lipparini, F. Egidi, J. Goings, B. Peng, A. Petrone, 
 T. Henderson, D. Ranasinghe, V. G. Zakrzewski, J. Gao, N. Rega, 
 G. Zheng, W. Liang, M. Hada, M. Ehara, K. Toyota, R. Fukuda, 
 J. Hasegawa, M. Ishida, T. Nakajima, Y. Honda, O. Kitao, H. Nakai, 
 T. Vreven, K. Throssell, J. A. Montgomery, Jr., J. E. Peralta, 
 F. Ogliaro, M. J. Bearpark, J. J. Heyd, E. N. Brothers, K. N. Kudin, 
 V. N. Staroverov, T. A. Keith, R. Kobayashi, J. Normand, 
 K. Raghavachari, A. P. Rendell, J. C. Burant, S. S. Iyengar, 
 J. Tomasi, M. Cossi, J. M. Millam, M. Klene, C. Adamo, R. Cammi, 
 J. W. Ochterski, R. L. Martin, K. Morokuma, O. Farkas, 
 J. B. Foresman, and D. J. Fox, Gaussian, Inc., Wallingford CT, 2019.
 
 ******************************************
 Gaussian 16:  ES64L-G16RevC.01  3-Jul-2019
                25-Sep-2024 
 ******************************************
 %nprocshared=24
 Will use up to   24 processors via shared memory.
 %mem=96GB
 -----------------------
 # opt freq wb97xd/midix
 -----------------------
 1/18=20,19=15,26=3,38=1/1,3;
 2/9=110,12=2,17=6,18=5,40=1/2;
 3/5=20,11=2,25=1,30=1,71=1,74=-58/1,2,3;
 4//1;
 5/5=2,38=5/2;
 6/7=2,8=2,9=2,10=2,28=1/1;
 7//1,2,3,16;
 1/18=20,19=15,26=3/3(2);
 2/9=110/2;
 99//99;
 2/9=110/2;
 3/5=20,11=2,25=1,30=1,71=1,74=-58/1,2,3;
 4/5=5,16=3,69=1/1;
 5/5=2,38=5/2;
 7//1,2,3,16;
 1/18=20,19=15,26=3/3(-5);
 2/9=110/2;
 6/7=2,8=2,9=2,10=2,19=2,28=1/1;
 99/9=1/99;
 --------------------------
 arbr47_rdkit_conf_1_wb97xd
 --------------------------
 Symbolic Z-matrix:
 Charge =  0 Multiplicity = 1
 O                    -3.5967   -0.5784   -0.2191 
 C                    -2.4383   -0.2242    0.0026 
 C                    -2.0827    1.2009    0.3647 
 O                    -0.9061    1.6887   -0.2618 
 C                     0.1612    0.8367   -0.1928 
 C                     1.4195    1.423    -0.3391 
 C                     2.571     0.6368   -0.2903 
 C                     2.4558   -0.7384   -0.1059 
 Br                    4.0116   -1.8097   -0.0394 
 C                     1.1999   -1.3333    0.0218 
 C                     0.0376   -0.5471   -0.0275 
 C                    -1.3066   -1.2119    0.0645 
 H                    -2.909     1.8497    0.056 
 H                    -1.9821    1.279     1.4536 
 H                     1.5033    2.4971   -0.486 
 H                     3.5456    1.105    -0.3988 
 H                     1.1214   -2.4111    0.1496 
 H                    -1.3836   -1.7486    1.0162 
 H                    -1.4218   -1.9141   -0.7683 
 

 GradGradGradGradGradGradGradGradGradGradGradGradGradGradGradGradGradGrad
 Berny optimization.
 Initialization pass.
                           ----------------------------
                           !    Initial Parameters    !
                           ! (Angstroms and Degrees)  !
 --------------------------                            --------------------------
 ! Name  Definition              Value          Derivative Info.                !
 --------------------------------------------------------------------------------
 ! R1    R(1,2)                  1.2315         estimate D2E/DX2                !
 ! R2    R(2,3)                  1.5128         estimate D2E/DX2                !
 ! R3    R(2,12)                 1.5034         estimate D2E/DX2                !
 ! R4    R(3,4)                  1.4195         estimate D2E/DX2                !
 ! R5    R(3,13)                 1.095          estimate D2E/DX2                !
 ! R6    R(3,14)                 1.0963         estimate D2E/DX2                !
 ! R7    R(4,5)                  1.3674         estimate D2E/DX2                !
 ! R8    R(5,6)                  1.3959         estimate D2E/DX2                !
 ! R9    R(5,11)                 1.3991         estimate D2E/DX2                !
 ! R10   R(6,7)                  1.3952         estimate D2E/DX2                !
 ! R11   R(6,15)                 1.0873         estimate D2E/DX2                !
 ! R12   R(7,8)                  1.3923         estimate D2E/DX2                !
 ! R13   R(7,16)                 1.0867         estimate D2E/DX2                !
 ! R14   R(8,9)                  1.8901         estimate D2E/DX2                !
 ! R15   R(8,10)                 1.3955         estimate D2E/DX2                !
 ! R16   R(10,11)                1.4041         estimate D2E/DX2                !
 ! R17   R(10,17)                1.0882         estimate D2E/DX2                !
 ! R18   R(11,12)                1.5024         estimate D2E/DX2                !
 ! R19   R(12,18)                1.0953         estimate D2E/DX2                !
 ! R20   R(12,19)                1.0954         estimate D2E/DX2                !
 ! A1    A(1,2,3)              122.3553         estimate D2E/DX2                !
 ! A2    A(1,2,12)             121.7732         estimate D2E/DX2                !
 ! A3    A(3,2,12)             115.6014         estimate D2E/DX2                !
 ! A4    A(2,3,4)              114.3896         estimate D2E/DX2                !
 ! A5    A(2,3,13)             108.2589         estimate D2E/DX2                !
 ! A6    A(2,3,14)             109.0517         estimate D2E/DX2                !
 ! A7    A(4,3,13)             107.3051         estimate D2E/DX2                !
 ! A8    A(4,3,14)             109.7451         estimate D2E/DX2                !
 ! A9    A(13,3,14)            107.8813         estimate D2E/DX2                !
 ! A10   A(3,4,5)              114.2423         estimate D2E/DX2                !
 ! A11   A(4,5,6)              115.8875         estimate D2E/DX2                !
 ! A12   A(4,5,11)             123.5916         estimate D2E/DX2                !
 ! A13   A(6,5,11)             120.4938         estimate D2E/DX2                !
 ! A14   A(5,6,7)              120.242          estimate D2E/DX2                !
 ! A15   A(5,6,15)             119.9037         estimate D2E/DX2                !
 ! A16   A(7,6,15)             119.8533         estimate D2E/DX2                !
 ! A17   A(6,7,8)              119.5347         estimate D2E/DX2                !
 ! A18   A(6,7,16)             119.6007         estimate D2E/DX2                !
 ! A19   A(8,7,16)             120.8645         estimate D2E/DX2                !
 ! A20   A(7,8,9)              119.761          estimate D2E/DX2                !
 ! A21   A(7,8,10)             120.5069         estimate D2E/DX2                !
 ! A22   A(9,8,10)             119.7308         estimate D2E/DX2                !
 ! A23   A(8,10,11)            120.2028         estimate D2E/DX2                !
 ! A24   A(8,10,17)            119.8605         estimate D2E/DX2                !
 ! A25   A(11,10,17)           119.9337         estimate D2E/DX2                !
 ! A26   A(5,11,10)            119.0011         estimate D2E/DX2                !
 ! A27   A(5,11,12)            121.5952         estimate D2E/DX2                !
 ! A28   A(10,11,12)           119.3867         estimate D2E/DX2                !
 ! A29   A(2,12,11)            112.3502         estimate D2E/DX2                !
 ! A30   A(2,12,18)            107.7449         estimate D2E/DX2                !
 ! A31   A(2,12,19)            108.1007         estimate D2E/DX2                !
 ! A32   A(11,12,18)           109.4459         estimate D2E/DX2                !
 ! A33   A(11,12,19)           109.3408         estimate D2E/DX2                !
 ! A34   A(18,12,19)           109.821          estimate D2E/DX2                !
 ! D1    D(1,2,3,4)           -138.7151         estimate D2E/DX2                !
 ! D2    D(1,2,3,13)           -19.1434         estimate D2E/DX2                !
 ! D3    D(1,2,3,14)            97.9857         estimate D2E/DX2                !
 ! D4    D(12,2,3,4)            47.1606         estimate D2E/DX2                !
 ! D5    D(12,2,3,13)          166.7322         estimate D2E/DX2                !
 ! D6    D(12,2,3,14)          -76.1387         estimate D2E/DX2                !
 ! D7    D(1,2,12,11)          164.4831         estimate D2E/DX2                !
 ! D8    D(1,2,12,18)          -74.8857         estimate D2E/DX2                !
 ! D9    D(1,2,12,19)           43.7445         estimate D2E/DX2                !
 ! D10   D(3,2,12,11)          -21.3552         estimate D2E/DX2                !
 ! D11   D(3,2,12,18)           99.276          estimate D2E/DX2                !
 ! D12   D(3,2,12,19)         -142.0938         estimate D2E/DX2                !
 ! D13   D(2,3,4,5)            -47.507          estimate D2E/DX2                !
 ! D14   D(13,3,4,5)          -167.612          estimate D2E/DX2                !
 ! D15   D(14,3,4,5)            75.4179         estimate D2E/DX2                !
 ! D16   D(3,4,5,6)           -157.6231         estimate D2E/DX2                !
 ! D17   D(3,4,5,11)            24.266          estimate D2E/DX2                !
 ! D18   D(4,5,6,7)           -179.6894         estimate D2E/DX2                !
 ! D19   D(4,5,6,15)             0.659          estimate D2E/DX2                !
 ! D20   D(11,5,6,7)            -1.5156         estimate D2E/DX2                !
 ! D21   D(11,5,6,15)          178.8328         estimate D2E/DX2                !
 ! D22   D(4,5,11,10)          179.5699         estimate D2E/DX2                !
 ! D23   D(4,5,11,12)            1.0776         estimate D2E/DX2                !
 ! D24   D(6,5,11,10)            1.5423         estimate D2E/DX2                !
 ! D25   D(6,5,11,12)         -176.95           estimate D2E/DX2                !
 ! D26   D(5,6,7,8)              0.5385         estimate D2E/DX2                !
 ! D27   D(5,6,7,16)          -179.5944         estimate D2E/DX2                !
 ! D28   D(15,6,7,8)          -179.8097         estimate D2E/DX2                !
 ! D29   D(15,6,7,16)            0.0573         estimate D2E/DX2                !
 ! D30   D(6,7,8,9)            179.9788         estimate D2E/DX2                !
 ! D31   D(6,7,8,10)             0.3855         estimate D2E/DX2                !
 ! D32   D(16,7,8,9)             0.1135         estimate D2E/DX2                !
 ! D33   D(16,7,8,10)         -179.4799         estimate D2E/DX2                !
 ! D34   D(7,8,10,11)           -0.3421         estimate D2E/DX2                !
 ! D35   D(7,8,10,17)          179.0223         estimate D2E/DX2                !
 ! D36   D(9,8,10,11)         -179.9355         estimate D2E/DX2                !
 ! D37   D(9,8,10,17)           -0.5712         estimate D2E/DX2                !
 ! D38   D(8,10,11,5)           -0.6178         estimate D2E/DX2                !
 ! D39   D(8,10,11,12)         177.9084         estimate D2E/DX2                !
 ! D40   D(17,10,11,5)        -179.9817         estimate D2E/DX2                !
 ! D41   D(17,10,11,12)         -1.4555         estimate D2E/DX2                !
 ! D42   D(5,11,12,2)           -1.8062         estimate D2E/DX2                !
 ! D43   D(5,11,12,18)        -121.4515         estimate D2E/DX2                !
 ! D44   D(5,11,12,19)         118.2155         estimate D2E/DX2                !
 ! D45   D(10,11,12,2)         179.7072         estimate D2E/DX2                !
 ! D46   D(10,11,12,18)         60.0619         estimate D2E/DX2                !
 ! D47   D(10,11,12,19)        -60.2711         estimate D2E/DX2                !
 --------------------------------------------------------------------------------
 Trust Radius=3.00D-01 FncErr=1.00D-07 GrdErr=1.00D-06 EigMax=2.50D+02 EigMin=1.00D-04
 Number of steps in this run=    111 maximum allowed number of steps=    114.
 GradGradGradGradGradGradGradGradGradGradGradGradGradGradGradGradGradGrad

                          Input orientation:                          
 ---------------------------------------------------------------------
 Center     Atomic      Atomic             Coordinates (Angstroms)
 Number     Number       Type             X           Y           Z
 ---------------------------------------------------------------------
      1          8           0       -3.596700   -0.578400   -0.219100
      2          6           0       -2.438300   -0.224200    0.002600
      3          6           0       -2.082700    1.200900    0.364700
      4          8           0       -0.906100    1.688700   -0.261800
      5          6           0        0.161200    0.836700   -0.192800
      6          6           0        1.419500    1.423000   -0.339100
      7          6           0        2.571000    0.636800   -0.290300
      8          6           0        2.455800   -0.738400   -0.105900
      9         35           0        4.011600   -1.809700   -0.039400
     10          6           0        1.199900   -1.333300    0.021800
     11          6           0        0.037600   -0.547100   -0.027500
     12          6           0       -1.306600   -1.211900    0.064500
     13          1           0       -2.909000    1.849700    0.056000
     14          1           0       -1.982100    1.279000    1.453600
     15          1           0        1.503300    2.497100   -0.486000
     16          1           0        3.545600    1.105000   -0.398800
     17          1           0        1.121400   -2.411100    0.149600
     18          1           0       -1.383600   -1.748600    1.016200
     19          1           0       -1.421800   -1.914100   -0.768300
 ---------------------------------------------------------------------
                    Distance matrix (angstroms):
                    1          2          3          4          5
     1  O    0.000000
     2  C    1.231462   0.000000
     3  C    2.408096   1.512772   0.000000
     4  O    3.518649   2.465103   1.419450   0.000000
     5  C    4.015596   2.814443   2.340627   1.367404   0.000000
     6  C    5.402061   4.208640   3.579115   2.342005   1.395876
     7  C    6.286677   5.091188   4.733303   3.632841   2.420042
     8  C    6.055673   4.922234   4.957855   4.149396   2.784543
     9  Br   7.709385   6.642047   6.809369   6.039208   4.674671
    10  C    4.861613   3.803547   4.161155   3.694340   2.415337
    11  C    3.639482   2.497049   2.775788   2.438087   1.399108
    12  C    2.392971   1.503372   2.552265   2.946244   2.533259
    13  H    2.538559   2.127316   1.094993   2.034337   3.242560
    14  H    2.975700   2.138488   1.096323   2.065969   2.738612
    15  H    5.961538   4.814604   3.906817   2.551271   2.155024
    16  H    7.340203   6.142878   5.680659   4.491894   3.401262
    17  H    5.074958   4.180383   4.833122   4.592207   3.404031
    18  H    2.791621   2.112717   3.100442   3.698151   3.245283
    19  H    2.610729   2.117385   3.379897   3.674596   3.225522
                    6          7          8          9         10
     6  C    0.000000
     7  C    1.395150   0.000000
     8  C    2.408309   1.392282   0.000000
     9  Br   4.154414   2.850200   1.890137   0.000000
    10  C    2.788488   2.420458   1.395528   2.852430   0.000000
    11  C    2.426528   2.808701   2.427022   4.169769   1.404095
    12  C    3.812770   4.310378   3.795905   5.352701   2.509801
    13  H    4.367389   5.623295   5.958654   7.829113   5.197665
    14  H    3.847778   4.917756   5.118291   6.906052   4.358817
    15  H    1.087333   2.153833   3.394141   5.003953   3.875807
    16  H    2.150579   1.086659   2.161383   2.973517   3.409475
    17  H    3.876598   3.403608   2.154955   2.958151   1.088186
    18  H    4.444463   4.799577   4.125604   5.497837   2.799246
    19  H    4.403798   4.762145   4.105707   5.483068   2.799089
                   11         12         13         14         15
    11  C    0.000000
    12  C    1.502430   0.000000
    13  H    3.799220   3.455597   0.000000
    14  H    3.099595   2.930952   1.771476   0.000000
    15  H    3.409641   4.685645   4.492358   4.170591   0.000000
    16  H    3.895300   5.396899   6.513316   5.832421   2.473163
    17  H    2.163442   2.709337   5.865774   4.994894   4.963896
    18  H    2.133711   1.095312   4.024499   3.117031   5.349464
    19  H    2.132445   1.095405   4.130064   3.930224   5.300433
                   16         17         18         19
    16  H    0.000000
    17  H    4.305862   0.000000
    18  H    5.868754   2.732202   0.000000
    19  H    5.824651   2.749075   1.792565   0.000000
 Stoichiometry    C9H7BrO2
 Framework group  C1[X(C9H7BrO2)]
 Deg. of freedom    51
 Full point group                 C1      NOp   1
 Largest Abelian subgroup         C1      NOp   1
 Largest concise Abelian subgroup C1      NOp   1
                         Standard orientation:                         
 ---------------------------------------------------------------------
 Center     Atomic      Atomic             Coordinates (Angstroms)
 Number     Number       Type             X           Y           Z
 ---------------------------------------------------------------------
      1          8           0       -4.386546   -1.442081   -0.293370
      2          6           0       -3.386041   -0.779652   -0.016465
      3          6           0       -3.469571    0.658446    0.445461
      4          8           0       -2.483662    1.512242   -0.114766
      5          6           0       -1.213258    1.008447   -0.069403
      6          6           0       -0.182514    1.946939   -0.141997
      7          6           0        1.149122    1.531995   -0.110189
      8          6           0        1.442876    0.174257   -0.016874
      9         35           0        3.244725   -0.395054    0.026090
     10          6           0        0.417123   -0.770444    0.036687
     11          6           0       -0.924827   -0.358635    0.004071
     12          6           0       -2.014033   -1.393433    0.015046
     13          1           0       -4.447698    1.055820    0.154994
     14          1           0       -3.405974    0.687153    1.539560
     15          1           0       -0.417828    3.005785   -0.217925
     16          1           0        1.943275    2.271991   -0.160718
     17          1           0        0.658759   -1.829941    0.093479
     18          1           0       -1.937681   -1.993549    0.928140
     19          1           0       -1.909817   -2.039175   -0.863628
 ---------------------------------------------------------------------
 Rotational constants (GHZ):           2.0323273           0.2999339           0.2636997
 Standard basis: MIDIx (5D, 7F)
 There are   154 symmetry adapted cartesian basis functions of A   symmetry.
 There are   150 symmetry adapted basis functions of A   symmetry.
   150 basis functions,   261 primitive gaussians,   154 cartesian basis functions
    56 alpha electrons       56 beta electrons
       nuclear repulsion energy       903.4108364314 Hartrees.
 NAtoms=   19 NActive=   19 NUniq=   19 SFac= 1.00D+00 NAtFMM=   60 NAOKFM=F Big=F
 Integral buffers will be    131072 words long.
 Raffenetti 2 integral format.
 Two-electron integral symmetry is turned on.
 Nuclear repulsion after empirical dispersion term =      903.3998399348 Hartrees.
 One-electron integrals computed using PRISM.
 NBasis=   150 RedAO= T EigKep=  1.11D-03  NBF=   150
 NBsUse=   150 1.00D-06 EigRej= -1.00D+00 NBFU=   150
 ExpMin= 1.47D-01 ExpMax= 6.10D+03 ExpMxC= 6.10D+03 IAcc=3 IRadAn=         5 AccDes= 0.00D+00
 Harris functional with IExCor= 4639 and IRadAn=       5 diagonalized for initial guess.
 HarFok:  IExCor= 4639 AccDes= 0.00D+00 IRadAn=         5 IDoV= 1 UseB2=F ITyADJ=14
 ICtDFT=  3500011 ScaDFX=  1.000000  1.000000  1.000000  1.000000
 FoFCou: FMM=F IPFlag=           0 FMFlag=      100000 FMFlg1=           0
         NFxFlg=           0 DoJE=T BraDBF=F KetDBF=T FulRan=T
         wScrn=  0.000000 ICntrl=       500 IOpCl=  0 I1Cent=   200000004 NGrid=           0
         NMat0=    1 NMatS0=      1 NMatT0=    0 NMatD0=    1 NMtDS0=    0 NMtDT0=    0
 Petite list used in FoFCou.
 Requested convergence on RMS density matrix=1.00D-08 within 128 cycles.
 Requested convergence on MAX density matrix=1.00D-06.
 Requested convergence on             energy=1.00D-06.
 No special actions if energy rises.
 Integral accuracy reduced to 1.0D-05 until final iterations.
 Initial convergence to 1.0D-05 achieved.  Increase integral accuracy.
 SCF Done:  E(RwB97XD) =  -3056.60662682     A.U. after   17 cycles
            NFock= 17  Conv=0.77D-08     -V/T= 2.0025

 **********************************************************************

            Population analysis using the SCF Density.

 **********************************************************************

 Orbital symmetries:
       Occupied  (A) (A) (A) (A) (A) (A) (A) (A) (A) (A) (A) (A)
                 (A) (A) (A) (A) (A) (A) (A) (A) (A) (A) (A) (A)
                 (A) (A) (A) (A) (A) (A) (A) (A) (A) (A) (A) (A)
                 (A) (A) (A) (A) (A) (A) (A) (A) (A) (A) (A) (A)
                 (A) (A) (A) (A) (A) (A) (A) (A)
       Virtual   (A) (A) (A) (A) (A) (A) (A) (A) (A) (A) (A) (A)
                 (A) (A) (A) (A) (A) (A) (A) (A) (A) (A) (A) (A)
                 (A) (A) (A) (A) (A) (A) (A) (A) (A) (A) (A) (A)
                 (A) (A) (A) (A) (A) (A) (A) (A) (A) (A) (A) (A)
                 (A) (A) (A) (A) (A) (A) (A) (A) (A) (A) (A) (A)
                 (A) (A) (A) (A) (A) (A) (A) (A) (A) (A) (A) (A)
                 (A) (A) (A) (A) (A) (A) (A) (A) (A) (A) (A) (A)
                 (A) (A) (A) (A) (A) (A) (A) (A) (A) (A)
 The electronic state is 1-A.
 Alpha  occ. eigenvalues -- -480.14840 -62.58234 -56.17133 -56.16706 -56.16690
 Alpha  occ. eigenvalues --  -19.20102 -19.15962 -10.33972 -10.31490 -10.30503
 Alpha  occ. eigenvalues --  -10.29559 -10.26769 -10.26167 -10.26015 -10.25695
 Alpha  occ. eigenvalues --  -10.25073  -8.89079  -6.67566  -6.66127  -6.66121
 Alpha  occ. eigenvalues --   -2.77876  -2.77378  -2.77354  -2.76176  -2.76171
 Alpha  occ. eigenvalues --   -1.19334  -1.15425  -0.99694  -0.93066  -0.91223
 Alpha  occ. eigenvalues --   -0.86202  -0.84433  -0.79690  -0.72872  -0.71993
 Alpha  occ. eigenvalues --   -0.64880  -0.63278  -0.60480  -0.58848  -0.56113
 Alpha  occ. eigenvalues --   -0.55029  -0.54535  -0.53707  -0.51917  -0.50615
 Alpha  occ. eigenvalues --   -0.49484  -0.47483  -0.45764  -0.44838  -0.43163
 Alpha  occ. eigenvalues --   -0.42439  -0.37460  -0.36489  -0.34156  -0.33484
 Alpha  occ. eigenvalues --   -0.29611
 Alpha virt. eigenvalues --    0.03778   0.05139   0.06570   0.09089   0.17573
 Alpha virt. eigenvalues --    0.19312   0.20171   0.20845   0.22581   0.23030
 Alpha virt. eigenvalues --    0.24898   0.25882   0.27312   0.28716   0.31215
 Alpha virt. eigenvalues --    0.34978   0.37975   0.38886   0.40457   0.41635
 Alpha virt. eigenvalues --    0.46978   0.48253   0.53661   0.55332   0.57961
 Alpha virt. eigenvalues --    0.59289   0.60895   0.64148   0.64432   0.64917
 Alpha virt. eigenvalues --    0.66384   0.67314   0.69590   0.71832   0.72412
 Alpha virt. eigenvalues --    0.73411   0.74661   0.76062   0.77152   0.79997
 Alpha virt. eigenvalues --    0.83270   0.85012   0.86234   0.87657   0.89902
 Alpha virt. eigenvalues --    0.91799   0.92883   0.93892   0.95676   0.96861
 Alpha virt. eigenvalues --    0.97660   0.97947   0.98902   0.99860   1.00649
 Alpha virt. eigenvalues --    1.01588   1.02895   1.03848   1.04850   1.05099
 Alpha virt. eigenvalues --    1.09906   1.10395   1.13460   1.14571   1.18399
 Alpha virt. eigenvalues --    1.22275   1.24802   1.30437   1.32362   1.38489
 Alpha virt. eigenvalues --    1.42603   1.47804   1.50403   1.56907   1.59089
 Alpha virt. eigenvalues --    1.65183   1.66697   1.70363   1.71917   1.74421
 Alpha virt. eigenvalues --    1.87614   1.88637   1.89593   1.91505   1.93177
 Alpha virt. eigenvalues --    1.95958   1.99004   2.04961   2.11734   2.23336
 Alpha virt. eigenvalues --    2.31989   2.50233   2.67086   2.96842
          Condensed to atoms (all electrons):
               1          2          3          4          5          6
     1  O    8.144477   0.503133  -0.067620   0.000552   0.000105   0.000000
     2  C    0.503133   4.655941   0.292037  -0.004718  -0.019373   0.000176
     3  C   -0.067620   0.292037   5.141789   0.154484  -0.055728   0.002120
     4  O    0.000552  -0.004718   0.154484   8.402411   0.252945  -0.050817
     5  C    0.000105  -0.019373  -0.055728   0.252945   4.589330   0.508536
     6  C    0.000000   0.000176   0.002120  -0.050817   0.508536   4.975114
     7  C    0.000000  -0.000013  -0.000133   0.002780  -0.029676   0.467372
     8  C   -0.000000  -0.000036   0.000005  -0.000038  -0.035279  -0.040498
     9  Br  -0.000000   0.000000  -0.000000   0.000000   0.000438   0.001638
    10  C   -0.000007   0.002100  -0.000204   0.001834  -0.013744  -0.020023
    11  C    0.003665  -0.028117   0.025668  -0.040192   0.456354  -0.034569
    12  C   -0.090989   0.261015  -0.181487  -0.011218  -0.007779   0.000467
    13  H    0.007343  -0.026122   0.356954  -0.019217   0.004832   0.000107
    14  H    0.002829  -0.039608   0.358695  -0.021374  -0.001894   0.000482
    15  H   -0.000000   0.000010   0.000018   0.001058  -0.023236   0.392956
    16  H    0.000000  -0.000000   0.000002  -0.000024   0.002299  -0.015420
    17  H    0.000000   0.000134   0.000008  -0.000014   0.001388   0.000107
    18  H    0.001972  -0.021532   0.004950   0.000060   0.000489  -0.000057
    19  H    0.005549  -0.020994   0.007204   0.000059   0.000004  -0.000116
               7          8          9         10         11         12
     1  O    0.000000  -0.000000  -0.000000  -0.000007   0.003665  -0.090989
     2  C   -0.000013  -0.000036   0.000000   0.002100  -0.028117   0.261015
     3  C   -0.000133   0.000005  -0.000000  -0.000204   0.025668  -0.181487
     4  O    0.002780  -0.000038   0.000000   0.001834  -0.040192  -0.011218
     5  C   -0.029676  -0.035279   0.000438  -0.013744   0.456354  -0.007779
     6  C    0.467372  -0.040498   0.001638  -0.020023  -0.034569   0.000467
     7  C    4.991264   0.468286  -0.038067  -0.042091  -0.034587   0.000417
     8  C    0.468286   5.032132   0.209298   0.498379  -0.022737   0.000544
     9  Br  -0.038067   0.209298  34.933846  -0.039599   0.001985  -0.000036
    10  C   -0.042091   0.498379  -0.039599   4.932575   0.434485  -0.022913
    11  C   -0.034587  -0.022737   0.001985   0.434485   5.307187   0.139954
    12  C    0.000417   0.000544  -0.000036  -0.022913   0.139954   5.599556
    13  H   -0.000001   0.000000   0.000000   0.000016  -0.001203   0.008867
    14  H   -0.000018  -0.000009   0.000000  -0.000081   0.001950   0.000778
    15  H   -0.020568   0.002989  -0.000052  -0.000393   0.004320  -0.000011
    16  H    0.389670  -0.019276   0.000598   0.002425   0.000077   0.000003
    17  H    0.002480  -0.016836   0.001107   0.387238  -0.016413  -0.004234
    18  H    0.000005   0.000137  -0.000003  -0.006100  -0.022319   0.361308
    19  H    0.000021   0.000097  -0.000003  -0.005380  -0.020100   0.354383
              13         14         15         16         17         18
     1  O    0.007343   0.002829  -0.000000   0.000000   0.000000   0.001972
     2  C   -0.026122  -0.039608   0.000010  -0.000000   0.000134  -0.021532
     3  C    0.356954   0.358695   0.000018   0.000002   0.000008   0.004950
     4  O   -0.019217  -0.021374   0.001058  -0.000024  -0.000014   0.000060
     5  C    0.004832  -0.001894  -0.023236   0.002299   0.001388   0.000489
     6  C    0.000107   0.000482   0.392956  -0.015420   0.000107  -0.000057
     7  C   -0.000001  -0.000018  -0.020568   0.389670   0.002480   0.000005
     8  C    0.000000  -0.000009   0.002989  -0.019276  -0.016836   0.000137
     9  Br   0.000000   0.000000  -0.000052   0.000598   0.001107  -0.000003
    10  C    0.000016  -0.000081  -0.000393   0.002425   0.387238  -0.006100
    11  C   -0.001203   0.001950   0.004320   0.000077  -0.016413  -0.022319
    12  C    0.008867   0.000778  -0.000011   0.000003  -0.004234   0.361308
    13  H    0.467292  -0.022119  -0.000027  -0.000000  -0.000000  -0.000196
    14  H   -0.022119   0.506679  -0.000005   0.000000  -0.000002  -0.000423
    15  H   -0.000027  -0.000005   0.435010  -0.003982   0.000006   0.000001
    16  H   -0.000000   0.000000  -0.003982   0.428761  -0.000063  -0.000000
    17  H   -0.000000  -0.000002   0.000006  -0.000063   0.434871   0.001307
    18  H   -0.000196  -0.000423   0.000001  -0.000000   0.001307   0.443994
    19  H   -0.000260  -0.000005   0.000002  -0.000000   0.001203  -0.011508
              19
     1  O    0.005549
     2  C   -0.020994
     3  C    0.007204
     4  O    0.000059
     5  C    0.000004
     6  C   -0.000116
     7  C    0.000021
     8  C    0.000097
     9  Br  -0.000003
    10  C   -0.005380
    11  C   -0.020100
    12  C    0.354383
    13  H   -0.000260
    14  H   -0.000005
    15  H    0.000002
    16  H   -0.000000
    17  H    0.001203
    18  H   -0.011508
    19  H    0.442201
 Mulliken charges:
               1
     1  O   -0.511010
     2  C    0.445966
     3  C   -0.038762
     4  O   -0.668573
     5  C    0.369990
     6  C   -0.187573
     7  C   -0.157142
     8  C   -0.077155
     9  Br  -0.071151
    10  C   -0.108519
    11  C   -0.155409
    12  C   -0.408626
    13  H    0.223734
    14  H    0.214125
    15  H    0.211905
    16  H    0.214931
    17  H    0.207712
    18  H    0.247914
    19  H    0.247643
 Sum of Mulliken charges =  -0.00000
 Mulliken charges with hydrogens summed into heavy atoms:
               1
     1  O   -0.511010
     2  C    0.445966
     3  C    0.399096
     4  O   -0.668573
     5  C    0.369990
     6  C    0.024332
     7  C    0.057789
     8  C   -0.077155
     9  Br  -0.071151
    10  C    0.099193
    11  C   -0.155409
    12  C    0.086930
 Electronic spatial extent (au):  <R**2>=           3595.7206
 Charge=             -0.0000 electrons
 Dipole moment (field-independent basis, Debye):
    X=             -0.1153    Y=              0.4809    Z=              1.1526  Tot=              1.2542
 Quadrupole moment (field-independent basis, Debye-Ang):
   XX=            -89.1990   YY=            -77.4734   ZZ=            -81.4461
   XY=             -3.5976   XZ=             -4.8028   YZ=             -0.7136
 Traceless Quadrupole moment (field-independent basis, Debye-Ang):
   XX=             -6.4928   YY=              5.2328   ZZ=              1.2601
   XY=             -3.5976   XZ=             -4.8028   YZ=             -0.7136
 Octapole moment (field-independent basis, Debye-Ang**2):
  XXX=            127.1666  YYY=             -6.5732  ZZZ=              1.4565  XYY=             42.1220
  XXY=             28.6933  XXZ=             17.8072  XZZ=             17.7892  YZZ=             -8.1262
  YYZ=              0.4402  XYZ=              1.0576
 Hexadecapole moment (field-independent basis, Debye-Ang**3):
 XXXX=          -3401.4157 YYYY=           -633.6520 ZZZZ=           -104.3390 XXXY=           -226.6202
 XXXZ=            -60.2316 YYYX=            -30.3593 YYYZ=             -5.9949 ZZZX=              3.4781
 ZZZY=              2.7989 XXYY=           -695.3838 XXZZ=           -544.0873 YYZZ=           -131.8839
 XXYZ=            -10.1433 YYXZ=             -4.9635 ZZXY=             -7.8461
 N-N= 9.033998399348D+02 E-N=-9.081896313742D+03  KE= 3.049134389658D+03
 Calling FoFJK, ICntrl=      2127 FMM=F ISym2X=0 I1Cent= 0 IOpClX= 0 NMat=1 NMatS=1 NMatT=0.
 ***** Axes restored to original set *****
 -------------------------------------------------------------------
 Center     Atomic                   Forces (Hartrees/Bohr)
 Number     Number              X              Y              Z
 -------------------------------------------------------------------
      1        8           0.021059783    0.010530848    0.003651995
      2        6          -0.029024916   -0.014045682   -0.001758188
      3        6          -0.014361248    0.006278665    0.000305517
      4        8           0.001448404    0.003821553   -0.005885844
      5        6           0.009093206   -0.003175715   -0.000407487
      6        6           0.010061159   -0.006060682    0.001007797
      7        6          -0.008097871    0.003942345   -0.001375322
      8        6          -0.007835289   -0.001249874    0.000367873
      9       35           0.002579826   -0.001978850    0.000270294
     10        6           0.001436819    0.012964816   -0.001345340
     11        6           0.013948396   -0.002584958    0.002163446
     12        6           0.007498597    0.005589399   -0.006828675
     13        1           0.001710438   -0.000396652   -0.000944828
     14        1           0.001012270   -0.001593107    0.006072288
     15        1          -0.003043451   -0.001456844    0.000721831
     16        1          -0.000269556   -0.001705069    0.000299703
     17        1          -0.000496396    0.000936205    0.000009370
     18        1          -0.002946868   -0.005455994    0.001298541
     19        1          -0.003773302   -0.004360405    0.002377029
 -------------------------------------------------------------------
 Cartesian Forces:  Max     0.029024916 RMS     0.007191443

 GradGradGradGradGradGradGradGradGradGradGradGradGradGradGradGradGradGrad
 Berny optimization.
 FormGI is forming the generalized inverse of G from B-inverse, IUseBI=4.
 Internal  Forces:  Max     0.023496696 RMS     0.003768948
 Search for a local minimum.
 Step number   1 out of a maximum of  111
 All quantities printed in internal units (Hartrees-Bohrs-Radians)
 Mixed Optimization -- RFO/linear search
 Second derivative matrix not updated -- first step.
 ITU=  0
     Eigenvalues ---    0.00671   0.00830   0.01423   0.01519   0.01997
     Eigenvalues ---    0.02078   0.02099   0.02136   0.02148   0.02165
     Eigenvalues ---    0.02166   0.02176   0.04426   0.05611   0.06892
     Eigenvalues ---    0.07601   0.09878   0.10761   0.11957   0.12389
     Eigenvalues ---    0.15999   0.16000   0.16000   0.18741   0.20496
     Eigenvalues ---    0.22057   0.22514   0.23514   0.24383   0.24736
     Eigenvalues ---    0.24841   0.24999   0.30133   0.31206   0.31772
     Eigenvalues ---    0.34092   0.34195   0.34206   0.34242   0.35023
     Eigenvalues ---    0.35123   0.35202   0.40151   0.41571   0.41794
     Eigenvalues ---    0.45128   0.45871   0.46340   0.46666   0.50006
     Eigenvalues ---    0.90480
 RFO step:  Lambda=-4.22672401D-03 EMin= 6.71035798D-03
 Linear search not attempted -- first point.
 Iteration  1 RMS(Cart)=  0.01922443 RMS(Int)=  0.00042481
 Iteration  2 RMS(Cart)=  0.00041041 RMS(Int)=  0.00027099
 Iteration  3 RMS(Cart)=  0.00000013 RMS(Int)=  0.00027099
 Variable       Old X    -DE/DX   Delta X   Delta X   Delta X     New X
                                 (Linear)    (Quad)   (Total)
    R1        2.32713  -0.02350   0.00000  -0.02585  -0.02585   2.30128
    R2        2.85872   0.00432   0.00000   0.01608   0.01617   2.87489
    R3        2.84096   0.00785   0.00000   0.02534   0.02537   2.86634
    R4        2.68237   0.01072   0.00000   0.02736   0.02739   2.70976
    R5        2.06924  -0.00126   0.00000  -0.00363  -0.00363   2.06560
    R6        2.07175   0.00601   0.00000   0.01742   0.01742   2.08917
    R7        2.58402   0.00891   0.00000   0.01652   0.01649   2.60051
    R8        2.63782  -0.00137   0.00000  -0.00250  -0.00253   2.63530
    R9        2.64393  -0.00257   0.00000  -0.00798  -0.00808   2.63585
   R10        2.63645  -0.00855   0.00000  -0.01770  -0.01771   2.61874
   R11        2.05476  -0.00177   0.00000  -0.00498  -0.00498   2.04978
   R12        2.63103  -0.00249   0.00000  -0.00516  -0.00514   2.62589
   R13        2.05349  -0.00101   0.00000  -0.00282  -0.00282   2.05066
   R14        3.57184   0.00325   0.00000   0.01698   0.01698   3.58882
   R15        2.63717  -0.00831   0.00000  -0.01818  -0.01816   2.61901
   R16        2.65335  -0.00924   0.00000  -0.02093  -0.02092   2.63243
   R17        2.05637  -0.00089   0.00000  -0.00251  -0.00251   2.05386
   R18        2.83918   0.00902   0.00000   0.02525   0.02520   2.86438
   R19        2.06984   0.00401   0.00000   0.01158   0.01158   2.08142
   R20        2.07002   0.00139   0.00000   0.00400   0.00400   2.07402
    A1        2.13550  -0.00408   0.00000  -0.01479  -0.01588   2.11962
    A2        2.12534   0.00505   0.00000   0.02025   0.01919   2.14453
    A3        2.01763  -0.00087   0.00000   0.00207   0.00121   2.01884
    A4        1.99648  -0.00281   0.00000  -0.00923  -0.00916   1.98732
    A5        1.88947   0.00113   0.00000   0.00752   0.00745   1.89692
    A6        1.90331  -0.00079   0.00000  -0.01217  -0.01219   1.89112
    A7        1.87283   0.00083   0.00000  -0.00383  -0.00379   1.86904
    A8        1.91541   0.00082   0.00000   0.00416   0.00395   1.91936
    A9        1.88288   0.00107   0.00000   0.01543   0.01545   1.89834
   A10        1.99390   0.00291   0.00000   0.02091   0.02063   2.01454
   A11        2.02262   0.00202   0.00000   0.01015   0.01026   2.03288
   A12        2.15708  -0.00102   0.00000  -0.00799  -0.00814   2.14894
   A13        2.10301  -0.00101   0.00000  -0.00250  -0.00250   2.10051
   A14        2.09862   0.00050   0.00000   0.00310   0.00303   2.10165
   A15        2.09272  -0.00327   0.00000  -0.01992  -0.01990   2.07282
   A16        2.09183   0.00277   0.00000   0.01686   0.01688   2.10872
   A17        2.08627  -0.00041   0.00000  -0.00167  -0.00171   2.08456
   A18        2.08743   0.00168   0.00000   0.00980   0.00979   2.09722
   A19        2.10948  -0.00126   0.00000  -0.00810  -0.00811   2.10137
   A20        2.09022   0.00083   0.00000   0.00410   0.00410   2.09432
   A21        2.10324  -0.00100   0.00000  -0.00560  -0.00559   2.09765
   A22        2.08970   0.00017   0.00000   0.00151   0.00151   2.09120
   A23        2.09793   0.00366   0.00000   0.01300   0.01299   2.11093
   A24        2.09196  -0.00125   0.00000  -0.00299  -0.00299   2.08896
   A25        2.09324  -0.00241   0.00000  -0.01006  -0.01006   2.08318
   A26        2.07696  -0.00174   0.00000  -0.00621  -0.00618   2.07078
   A27        2.12224  -0.00038   0.00000  -0.00663  -0.00683   2.11540
   A28        2.08369   0.00211   0.00000   0.01253   0.01262   2.09631
   A29        1.96088   0.00239   0.00000   0.01846   0.01808   1.97896
   A30        1.88050  -0.00187   0.00000  -0.01660  -0.01677   1.86373
   A31        1.88671  -0.00165   0.00000  -0.00602  -0.00682   1.87989
   A32        1.91019   0.00184   0.00000   0.01349   0.01369   1.92388
   A33        1.90836   0.00224   0.00000   0.03547   0.03524   1.94360
   A34        1.91674  -0.00320   0.00000  -0.04771  -0.04806   1.86868
    D1       -2.42103  -0.00081   0.00000   0.02722   0.02672  -2.39431
    D2       -0.33412  -0.00075   0.00000   0.02180   0.02133  -0.31278
    D3        1.71017   0.00072   0.00000   0.03771   0.03715   1.74732
    D4        0.82311  -0.00223   0.00000  -0.05565  -0.05528   0.76783
    D5        2.91003  -0.00217   0.00000  -0.06106  -0.06067   2.84935
    D6       -1.32887  -0.00070   0.00000  -0.04516  -0.04485  -1.37372
    D7        2.87077  -0.00074   0.00000  -0.02100  -0.02153   2.84924
    D8       -1.30700   0.00178   0.00000  -0.00394  -0.00468  -1.31169
    D9        0.76348  -0.00392   0.00000  -0.07277  -0.07300   0.69048
   D10       -0.37272   0.00009   0.00000   0.05909   0.05949  -0.31322
   D11        1.73269   0.00261   0.00000   0.07615   0.07634   1.80904
   D12       -2.48000  -0.00310   0.00000   0.00732   0.00803  -2.47198
   D13       -0.82915  -0.00003   0.00000  -0.00057  -0.00068  -0.82983
   D14       -2.92538  -0.00030   0.00000  -0.00162  -0.00175  -2.92713
   D15        1.31629  -0.00247   0.00000  -0.02001  -0.02012   1.29617
   D16       -2.75104   0.00044   0.00000   0.01406   0.01410  -2.73694
   D17        0.42352   0.00050   0.00000   0.02550   0.02547   0.44899
   D18       -3.13617   0.00039   0.00000   0.02325   0.02320  -3.11297
   D19        0.01150   0.00024   0.00000   0.01604   0.01610   0.02760
   D20       -0.02645   0.00033   0.00000   0.01207   0.01205  -0.01440
   D21        3.12122   0.00018   0.00000   0.00486   0.00495   3.12617
   D22        3.13409  -0.00008   0.00000  -0.01336  -0.01317   3.12092
   D23        0.01881   0.00039   0.00000   0.00040   0.00048   0.01929
   D24        0.02692  -0.00008   0.00000  -0.00164  -0.00161   0.02531
   D25       -3.08836   0.00040   0.00000   0.01212   0.01205  -3.07631
   D26        0.00940  -0.00041   0.00000  -0.01505  -0.01505  -0.00565
   D27       -3.13451  -0.00009   0.00000  -0.00377  -0.00371  -3.13823
   D28       -3.13827  -0.00028   0.00000  -0.00797  -0.00792   3.13699
   D29        0.00100   0.00004   0.00000   0.00331   0.00341   0.00441
   D30        3.14122   0.00028   0.00000   0.01068   0.01067  -3.13129
   D31        0.00673   0.00021   0.00000   0.00758   0.00761   0.01434
   D32        0.00198  -0.00005   0.00000  -0.00077  -0.00072   0.00126
   D33       -3.13251  -0.00011   0.00000  -0.00387  -0.00377  -3.13629
   D34       -0.00597   0.00006   0.00000   0.00290   0.00290  -0.00307
   D35        3.12453  -0.00011   0.00000  -0.00228  -0.00232   3.12221
   D36       -3.14047  -0.00000   0.00000  -0.00021  -0.00016  -3.14063
   D37       -0.00997  -0.00017   0.00000  -0.00538  -0.00538  -0.01535
   D38       -0.01078  -0.00015   0.00000  -0.00590  -0.00592  -0.01670
   D39        3.10509  -0.00065   0.00000  -0.01964  -0.01971   3.08538
   D40       -3.14127   0.00002   0.00000  -0.00077  -0.00076   3.14115
   D41       -0.02540  -0.00049   0.00000  -0.01451  -0.01456  -0.03996
   D42       -0.03152  -0.00085   0.00000  -0.04204  -0.04217  -0.07369
   D43       -2.11973  -0.00128   0.00000  -0.04210  -0.04220  -2.16193
   D44        2.06325   0.00013   0.00000  -0.01371  -0.01344   2.04981
   D45        3.13648  -0.00031   0.00000  -0.02795  -0.02803   3.10845
   D46        1.04828  -0.00074   0.00000  -0.02801  -0.02806   1.02021
   D47       -1.05193   0.00067   0.00000   0.00038   0.00070  -1.05123
         Item               Value     Threshold  Converged?
 Maximum Force            0.023497     0.000450     NO 
 RMS     Force            0.003769     0.000300     NO 
 Maximum Displacement     0.078739     0.001800     NO 
 RMS     Displacement     0.019158     0.001200     NO 
 Predicted change in Energy=-2.214680D-03
 GradGradGradGradGradGradGradGradGradGradGradGradGradGradGradGradGradGrad

                          Input orientation:                          
 ---------------------------------------------------------------------
 Center     Atomic      Atomic             Coordinates (Angstroms)
 Number     Number       Type             X           Y           Z
 ---------------------------------------------------------------------
      1          8           0       -3.604096   -0.561858   -0.209695
      2          6           0       -2.457914   -0.230454    0.034102
      3          6           0       -2.102325    1.210597    0.367814
      4          8           0       -0.907249    1.676600   -0.273148
      5          6           0        0.176081    0.832183   -0.188930
      6          6           0        1.433406    1.417527   -0.334687
      7          6           0        2.578654    0.638143   -0.297924
      8          6           0        2.465334   -0.733641   -0.107521
      9         35           0        4.025270   -1.814566   -0.037739
     10          6           0        1.215688   -1.317619    0.027104
     11          6           0        0.056015   -0.547358   -0.021555
     12          6           0       -1.303243   -1.213813    0.054619
     13          1           0       -2.918042    1.858333    0.036389
     14          1           0       -2.001336    1.299055    1.465172
     15          1           0        1.496015    2.490916   -0.477800
     16          1           0        3.555142    1.098351   -0.408659
     17          1           0        1.135573   -2.393636    0.157581
     18          1           0       -1.392974   -1.790267    0.988865
     19          1           0       -1.449997   -1.918392   -0.773986
 ---------------------------------------------------------------------
                    Distance matrix (angstroms):
                    1          2          3          4          5
     1  O    0.000000
     2  C    1.217784   0.000000
     3  C    2.393831   1.521326   0.000000
     4  O    3.505382   2.477058   1.433945   0.000000
     5  C    4.029084   2.849012   2.375772   1.376131   0.000000
     6  C    5.413872   4.241959   3.610778   2.355753   1.394539
     7  C    6.298745   5.121692   4.762612   3.637379   2.412859
     8  C    6.072720   4.950922   4.986934   4.148616   2.774727
     9  Br   7.733439   6.674298   6.845693   6.047595   4.673799
    10  C    4.884421   3.831101   4.185352   3.682711   2.397728
    11  C    3.664972   2.534436   2.810773   2.436630   1.394834
    12  C    2.405999   1.516800   2.571844   2.935767   2.536496
    13  H    2.527558   2.138867   1.093069   2.042579   3.267622
    14  H    2.972712   2.143787   1.105540   2.088378   2.774017
    15  H    5.949995   4.827158   3.911819   2.545717   2.139409
    16  H    7.351909   6.174027   5.711606   4.501741   3.396642
    17  H    5.094582   4.196160   4.849606   4.574437   3.383283
    18  H    2.799035   2.116291   3.145483   3.721259   3.275115
    19  H    2.607442   2.125568   3.394084   3.670065   3.248396
                    6          7          8          9         10
     6  C    0.000000
     7  C    1.385780   0.000000
     8  C    2.396665   1.389563   0.000000
     9  Br   4.153597   2.859402   1.899124   0.000000
    10  C    2.767547   2.405893   1.385918   2.853929   0.000000
    11  C    2.419924   2.800982   2.418039   4.166662   1.393023
    12  C    3.816380   4.315455   3.802503   5.363068   2.521220
    13  H    4.389431   5.640417   5.976603   7.855271   5.212915
    14  H    3.879559   4.951931   5.153287   6.947904   4.389108
    15  H    1.084697   2.153424   3.387397   5.012781   3.852071
    16  H    2.146884   1.085165   2.152803   2.973835   3.391142
    17  H    3.854347   3.388458   2.143392   2.953612   1.086856
    18  H    4.475506   4.829786   4.147899   5.514696   2.820195
    19  H    4.431179   4.795053   4.144590   5.525522   2.847552
                   11         12         13         14         15
    11  C    0.000000
    12  C    1.515766   0.000000
    13  H    3.825666   3.470733   0.000000
    14  H    3.138836   2.965046   1.787334   0.000000
    15  H    3.393062   4.673793   4.488703   4.174582   0.000000
    16  H    3.886142   5.400429   6.532821   5.867365   2.486769
    17  H    2.146224   2.711164   5.875860   5.018562   4.938874
    18  H    2.159939   1.101438   4.067595   3.184476   5.368975
    19  H    2.171165   1.097522   4.132253   3.958506   5.311187
                   16         17         18         19
    16  H    0.000000
    17  H    4.285898   0.000000
    18  H    5.897545   2.729219   0.000000
    19  H    5.855392   2.789058   1.768421   0.000000
 Stoichiometry    C9H7BrO2
 Framework group  C1[X(C9H7BrO2)]
 Deg. of freedom    51
 Full point group                 C1      NOp   1
 Largest Abelian subgroup         C1      NOp   1
 Largest concise Abelian subgroup C1      NOp   1
                         Standard orientation:                         
 ---------------------------------------------------------------------
 Center     Atomic      Atomic             Coordinates (Angstroms)
 Number     Number       Type             X           Y           Z
 ---------------------------------------------------------------------
      1          8           0       -4.404409   -1.427664   -0.292028
      2          6           0       -3.409021   -0.793247    0.007496
      3          6           0       -3.496779    0.660884    0.445945
      4          8           0       -2.485966    1.501486   -0.126629
      5          6           0       -1.202836    1.007940   -0.065589
      6          6           0       -0.172355    1.945008   -0.134524
      7          6           0        1.151239    1.535021   -0.114666
      8          6           0        1.445167    0.180308   -0.018513
      9         35           0        3.253534   -0.397979    0.026918
     10          6           0        0.421727   -0.752407    0.039640
     11          6           0       -0.912852   -0.354492    0.006882
     12          6           0       -2.016196   -1.393771   -0.001997
     13          1           0       -4.463922    1.063113    0.133460
     14          1           0       -3.436676    0.696025    1.549290
     15          1           0       -0.427307    2.996979   -0.204690
     16          1           0        1.949876    2.267953   -0.165375
     17          1           0        0.660843   -1.811107    0.096502
     18          1           0       -1.940977   -2.036732    0.889131
     19          1           0       -1.941109   -2.049018   -0.879248
 ---------------------------------------------------------------------
 Rotational constants (GHZ):           2.0398768           0.2978981           0.2622499
 Standard basis: MIDIx (5D, 7F)
 There are   154 symmetry adapted cartesian basis functions of A   symmetry.
 There are   150 symmetry adapted basis functions of A   symmetry.
   150 basis functions,   261 primitive gaussians,   154 cartesian basis functions
    56 alpha electrons       56 beta electrons
       nuclear repulsion energy       901.8384139688 Hartrees.
 NAtoms=   19 NActive=   19 NUniq=   19 SFac= 1.00D+00 NAtFMM=   60 NAOKFM=F Big=F
 Integral buffers will be    131072 words long.
 Raffenetti 2 integral format.
 Two-electron integral symmetry is turned on.
 Nuclear repulsion after empirical dispersion term =      901.8274691498 Hartrees.
 One-electron integrals computed using PRISM.
 NBasis=   150 RedAO= T EigKep=  1.07D-03  NBF=   150
 NBsUse=   150 1.00D-06 EigRej= -1.00D+00 NBFU=   150
 Initial guess from the checkpoint file:  "/home/rpaton/opt/midi/Gau-4146480.chk"
 B after Tr=    -0.000000   -0.000000   -0.000000
         Rot=    1.000000   -0.000197    0.000069    0.000258 Ang=  -0.04 deg.
 ExpMin= 1.47D-01 ExpMax= 6.10D+03 ExpMxC= 6.10D+03 IAcc=3 IRadAn=         5 AccDes= 0.00D+00
 Harris functional with IExCor= 4639 and IRadAn=       5 diagonalized for initial guess.
 HarFok:  IExCor= 4639 AccDes= 0.00D+00 IRadAn=         5 IDoV= 1 UseB2=F ITyADJ=14
 ICtDFT=  3500011 ScaDFX=  1.000000  1.000000  1.000000  1.000000
 FoFCou: FMM=F IPFlag=           0 FMFlag=      100000 FMFlg1=           0
         NFxFlg=           0 DoJE=T BraDBF=F KetDBF=T FulRan=T
         wScrn=  0.000000 ICntrl=       500 IOpCl=  0 I1Cent=   200000004 NGrid=           0
         NMat0=    1 NMatS0=      1 NMatT0=    0 NMatD0=    1 NMtDS0=    0 NMtDT0=    0
 Petite list used in FoFCou.
 Requested convergence on RMS density matrix=1.00D-08 within 128 cycles.
 Requested convergence on MAX density matrix=1.00D-06.
 Requested convergence on             energy=1.00D-06.
 No special actions if energy rises.
 Integral accuracy reduced to 1.0D-05 until final iterations.
 Initial convergence to 1.0D-05 achieved.  Increase integral accuracy.
 SCF Done:  E(RwB97XD) =  -3056.60863774     A.U. after   14 cycles
            NFock= 14  Conv=0.65D-08     -V/T= 2.0025
 Calling FoFJK, ICntrl=      2127 FMM=F ISym2X=0 I1Cent= 0 IOpClX= 0 NMat=1 NMatS=1 NMatT=0.
 ***** Axes restored to original set *****
 -------------------------------------------------------------------
 Center     Atomic                   Forces (Hartrees/Bohr)
 Number     Number              X              Y              Z
 -------------------------------------------------------------------
      1        8           0.003483841    0.000211672    0.003380907
      2        6          -0.005081597   -0.001369430   -0.008665045
      3        6          -0.000391633    0.001012929    0.005308725
      4        8           0.000808545    0.001091472   -0.002052794
      5        6          -0.002313822   -0.000099847    0.000244854
      6        6           0.001412200    0.000131942   -0.000061467
      7        6          -0.000423841    0.001693381    0.000077905
      8        6          -0.000008558   -0.001515149    0.000193688
      9       35          -0.000577796    0.000431104   -0.000051242
     10        6           0.000161942   -0.000397202    0.000186976
     11        6          -0.001900456   -0.002200671    0.000552127
     12        6           0.003937578    0.003277588    0.001342953
     13        1           0.001202325   -0.000291582   -0.000815996
     14        1           0.000769436    0.000432479   -0.000134105
     15        1          -0.000860939    0.000351192    0.000174061
     16        1           0.000263181   -0.000226643   -0.000086550
     17        1          -0.000074348   -0.000409428    0.000174310
     18        1           0.000173525   -0.001754366    0.000117812
     19        1          -0.000579584   -0.000369444    0.000112880
 -------------------------------------------------------------------
 Cartesian Forces:  Max     0.008665045 RMS     0.001964682

 GradGradGradGradGradGradGradGradGradGradGradGradGradGradGradGradGradGrad
 Berny optimization.
 Using GEDIIS/GDIIS optimizer.
 FormGI is forming the generalized inverse of G from B-inverse, IUseBI=4.
 Internal  Forces:  Max     0.004013614 RMS     0.000818695
 Search for a local minimum.
 Step number   2 out of a maximum of  111
 All quantities printed in internal units (Hartrees-Bohrs-Radians)
 Mixed Optimization -- En-DIIS/RFO-DIIS
 Update second derivatives using D2CorX and points    1    2
 DE= -2.01D-03 DEPred=-2.21D-03 R= 9.08D-01
 TightC=F SS=  1.41D+00  RLast= 2.20D-01 DXNew= 5.0454D-01 6.5994D-01
 Trust test= 9.08D-01 RLast= 2.20D-01 DXMaxT set to 5.05D-01
 ITU=  1  0
 Use linear search instead of GDIIS.
     Eigenvalues ---    0.00693   0.00885   0.01471   0.01540   0.02003
     Eigenvalues ---    0.02082   0.02105   0.02132   0.02147   0.02165
     Eigenvalues ---    0.02175   0.02176   0.04243   0.05636   0.06446
     Eigenvalues ---    0.07578   0.10020   0.10968   0.11915   0.12481
     Eigenvalues ---    0.15673   0.15998   0.16001   0.18821   0.20772
     Eigenvalues ---    0.22197   0.22581   0.23656   0.24306   0.24643
     Eigenvalues ---    0.25000   0.25315   0.29277   0.31390   0.32662
     Eigenvalues ---    0.33918   0.34193   0.34209   0.34332   0.35044
     Eigenvalues ---    0.35163   0.35232   0.40264   0.41376   0.41716
     Eigenvalues ---    0.44984   0.45885   0.46243   0.46862   0.50458
     Eigenvalues ---    0.85871
 RFO step:  Lambda=-9.84387256D-04 EMin= 6.92861667D-03
 Quartic linear search produced a step of -0.04406.
 Iteration  1 RMS(Cart)=  0.02052885 RMS(Int)=  0.00104955
 Iteration  2 RMS(Cart)=  0.00084088 RMS(Int)=  0.00049490
 Iteration  3 RMS(Cart)=  0.00000056 RMS(Int)=  0.00049489
 Variable       Old X    -DE/DX   Delta X   Delta X   Delta X     New X
                                 (Linear)    (Quad)   (Total)
    R1        2.30128  -0.00401   0.00114  -0.01226  -0.01112   2.29015
    R2        2.87489   0.00249  -0.00071   0.01139   0.01097   2.88586
    R3        2.86634   0.00090  -0.00112   0.00966   0.00886   2.87520
    R4        2.70976   0.00017  -0.00121   0.00856   0.00738   2.71715
    R5        2.06560  -0.00082   0.00016  -0.00343  -0.00327   2.06234
    R6        2.08917  -0.00003  -0.00077   0.00532   0.00455   2.09372
    R7        2.60051  -0.00078  -0.00073   0.00418   0.00315   2.60366
    R8        2.63530   0.00028   0.00011  -0.00033  -0.00022   2.63507
    R9        2.63585   0.00088   0.00036   0.00004   0.00006   2.63591
   R10        2.61874  -0.00033   0.00078  -0.00608  -0.00530   2.61344
   R11        2.04978   0.00027   0.00022  -0.00079  -0.00057   2.04921
   R12        2.62589   0.00152   0.00023   0.00171   0.00194   2.62784
   R13        2.05066   0.00015   0.00012  -0.00047  -0.00034   2.05032
   R14        3.58882  -0.00072  -0.00075   0.00158   0.00083   3.58965
   R15        2.61901  -0.00012   0.00080  -0.00575  -0.00494   2.61406
   R16        2.63243   0.00003   0.00092  -0.00650  -0.00557   2.62686
   R17        2.05386   0.00043   0.00011   0.00040   0.00051   2.05437
   R18        2.86438  -0.00331  -0.00111  -0.00151  -0.00267   2.86171
   R19        2.08142   0.00100  -0.00051   0.00639   0.00588   2.08730
   R20        2.07402   0.00023  -0.00018   0.00188   0.00171   2.07572
    A1        2.11962   0.00088   0.00070   0.00013  -0.00227   2.11735
    A2        2.14453  -0.00011  -0.00085   0.00723   0.00317   2.14770
    A3        2.01884  -0.00080  -0.00005  -0.00977  -0.01137   2.00747
    A4        1.98732  -0.00035   0.00040  -0.01445  -0.01365   1.97367
    A5        1.89692  -0.00005  -0.00033   0.00190   0.00121   1.89814
    A6        1.89112   0.00113   0.00054   0.00882   0.00936   1.90048
    A7        1.86904  -0.00077   0.00017  -0.00773  -0.00781   1.86123
    A8        1.91936  -0.00036  -0.00017  -0.00046  -0.00067   1.91869
    A9        1.89834   0.00042  -0.00068   0.01301   0.01230   1.91064
   A10        2.01454  -0.00150  -0.00091  -0.00618  -0.00726   2.00728
   A11        2.03288  -0.00149  -0.00045  -0.00115  -0.00145   2.03143
   A12        2.14894   0.00147   0.00036   0.00217   0.00222   2.15115
   A13        2.10051   0.00003   0.00011  -0.00057  -0.00036   2.10015
   A14        2.10165  -0.00016  -0.00013  -0.00010  -0.00028   2.10137
   A15        2.07282  -0.00083   0.00088  -0.01106  -0.01017   2.06265
   A16        2.10872   0.00099  -0.00074   0.01117   0.01045   2.11916
   A17        2.08456  -0.00006   0.00008  -0.00047  -0.00043   2.08413
   A18        2.09722   0.00035  -0.00043   0.00488   0.00447   2.10168
   A19        2.10137  -0.00029   0.00036  -0.00443  -0.00406   2.09731
   A20        2.09432  -0.00023  -0.00018   0.00022   0.00005   2.09437
   A21        2.09765   0.00036   0.00025  -0.00002   0.00021   2.09786
   A22        2.09120  -0.00013  -0.00007  -0.00019  -0.00025   2.09096
   A23        2.11093  -0.00054  -0.00057   0.00146   0.00087   2.11180
   A24        2.08896   0.00032   0.00013   0.00066   0.00080   2.08976
   A25        2.08318   0.00022   0.00044  -0.00212  -0.00167   2.08151
   A26        2.07078   0.00038   0.00027  -0.00029  -0.00002   2.07076
   A27        2.11540  -0.00023   0.00030  -0.00434  -0.00406   2.11135
   A28        2.09631  -0.00014  -0.00056   0.00466   0.00412   2.10043
   A29        1.97896   0.00040  -0.00080   0.00284   0.00273   1.98168
   A30        1.86373   0.00050   0.00074   0.00394   0.00455   1.86828
   A31        1.87989  -0.00051   0.00030  -0.00637  -0.00640   1.87349
   A32        1.92388  -0.00032  -0.00060   0.00463   0.00376   1.92764
   A33        1.94360   0.00047  -0.00155   0.01564   0.01397   1.95757
   A34        1.86868  -0.00059   0.00212  -0.02291  -0.02071   1.84797
    D1       -2.39431  -0.00029  -0.00118  -0.09090  -0.09172  -2.48603
    D2       -0.31278  -0.00151  -0.00094  -0.10854  -0.10923  -0.42202
    D3        1.74732  -0.00041  -0.00164  -0.08703  -0.08845   1.65887
    D4        0.76783   0.00129   0.00244   0.03726   0.03960   0.80743
    D5        2.84935   0.00006   0.00267   0.01962   0.02209   2.87144
    D6       -1.37372   0.00116   0.00198   0.04114   0.04287  -1.33085
    D7        2.84924   0.00112   0.00095   0.11081   0.11187   2.96111
    D8       -1.31169   0.00131   0.00021   0.12111   0.12150  -1.19019
    D9        0.69048   0.00063   0.00322   0.09355   0.09683   0.78732
   D10       -0.31322  -0.00047  -0.00262  -0.01947  -0.02208  -0.33530
   D11        1.80904  -0.00028  -0.00336  -0.00918  -0.01245   1.79659
   D12       -2.47198  -0.00096  -0.00035  -0.03673  -0.03712  -2.50910
   D13       -0.82983  -0.00082   0.00003  -0.03398  -0.03426  -0.86409
   D14       -2.92713  -0.00002   0.00008  -0.02217  -0.02234  -2.94947
   D15        1.29617   0.00013   0.00089  -0.03301  -0.03216   1.26401
   D16       -2.73694   0.00069  -0.00062   0.02346   0.02270  -2.71423
   D17        0.44899   0.00059  -0.00112   0.01189   0.01051   0.45950
   D18       -3.11297  -0.00011  -0.00102  -0.00502  -0.00610  -3.11907
   D19        0.02760  -0.00001  -0.00071  -0.00245  -0.00324   0.02436
   D20       -0.01440   0.00004  -0.00053   0.00629   0.00578  -0.00862
   D21        3.12617   0.00013  -0.00022   0.00885   0.00864   3.13481
   D22        3.12092   0.00003   0.00058   0.01070   0.01141   3.13232
   D23        0.01929   0.00005  -0.00002   0.00986   0.00992   0.02922
   D24        0.02531  -0.00005   0.00007  -0.00129  -0.00122   0.02409
   D25       -3.07631  -0.00002  -0.00053  -0.00213  -0.00271  -3.07902
   D26       -0.00565   0.00002   0.00066  -0.00613  -0.00549  -0.01114
   D27       -3.13823  -0.00003   0.00016  -0.00282  -0.00265  -3.14088
   D28        3.13699  -0.00007   0.00035  -0.00874  -0.00843   3.12856
   D29        0.00441  -0.00012  -0.00015  -0.00542  -0.00559  -0.00118
   D30       -3.13129  -0.00003  -0.00047   0.00367   0.00322  -3.12808
   D31        0.01434  -0.00004  -0.00034   0.00108   0.00075   0.01509
   D32        0.00126   0.00002   0.00003   0.00040   0.00043   0.00169
   D33       -3.13629   0.00001   0.00017  -0.00219  -0.00204  -3.13833
   D34       -0.00307   0.00002  -0.00013   0.00394   0.00383   0.00076
   D35        3.12221   0.00007   0.00010   0.00372   0.00384   3.12605
   D36       -3.14063   0.00001   0.00001   0.00135   0.00137  -3.13926
   D37       -0.01535   0.00006   0.00024   0.00113   0.00137  -0.01398
   D38       -0.01670   0.00003   0.00026  -0.00379  -0.00355  -0.02025
   D39        3.08538   0.00000   0.00087  -0.00317  -0.00227   3.08311
   D40        3.14115  -0.00003   0.00003  -0.00360  -0.00358   3.13757
   D41       -0.03996  -0.00005   0.00064  -0.00298  -0.00230  -0.04226
   D42       -0.07369  -0.00000   0.00186  -0.00448  -0.00244  -0.07613
   D43       -2.16193  -0.00069   0.00186  -0.01470  -0.01282  -2.17474
   D44        2.04981  -0.00004   0.00059   0.00096   0.00174   2.05155
   D45        3.10845   0.00001   0.00124  -0.00522  -0.00386   3.10459
   D46        1.02021  -0.00067   0.00124  -0.01544  -0.01423   1.00598
   D47       -1.05123  -0.00002  -0.00003   0.00022   0.00033  -1.05090
         Item               Value     Threshold  Converged?
 Maximum Force            0.004014     0.000450     NO 
 RMS     Force            0.000819     0.000300     NO 
 Maximum Displacement     0.136395     0.001800     NO 
 RMS     Displacement     0.020513     0.001200     NO 
 Predicted change in Energy=-5.316208D-04
 GradGradGradGradGradGradGradGradGradGradGradGradGradGradGradGradGradGrad

                          Input orientation:                          
 ---------------------------------------------------------------------
 Center     Atomic      Atomic             Coordinates (Angstroms)
 Number     Number       Type             X           Y           Z
 ---------------------------------------------------------------------
      1          8           0       -3.615877   -0.567365   -0.137517
      2          6           0       -2.461362   -0.225942    0.001122
      3          6           0       -2.097182    1.211174    0.367448
      4          8           0       -0.907824    1.677087   -0.292682
      5          6           0        0.175834    0.830586   -0.206407
      6          6           0        1.433386    1.417886   -0.340768
      7          6           0        2.576924    0.641496   -0.294366
      8          6           0        2.463311   -0.730596   -0.098925
      9         35           0        4.024044   -1.809768   -0.010421
     10          6           0        1.215733   -1.314148    0.029694
     11          6           0        0.057275   -0.548486   -0.033927
     12          6           0       -1.302612   -1.211446    0.032845
     13          1           0       -2.908106    1.869935    0.052071
     14          1           0       -1.971184    1.280372    1.466031
     15          1           0        1.484714    2.492131   -0.479589
     16          1           0        3.555586    1.098250   -0.398214
     17          1           0        1.135078   -2.389457    0.167718
     18          1           0       -1.401059   -1.797058    0.964188
     19          1           0       -1.456681   -1.924551   -0.788301
 ---------------------------------------------------------------------
                    Distance matrix (angstroms):
                    1          2          3          4          5
     1  O    0.000000
     2  C    1.211897   0.000000
     3  C    2.392619   1.527129   0.000000
     4  O    3.520681   2.474130   1.437852   0.000000
     5  C    4.041793   2.848531   2.375029   1.377796   0.000000
     6  C    5.429327   4.241241   3.606829   2.356005   1.394421
     7  C    6.311634   5.120946   4.754976   3.635370   2.410129
     8  C    6.081502   4.951474   4.978562   4.147171   2.771533
     9  Br   7.741325   6.676012   6.836541   6.046582   4.671039
    10  C    4.891839   3.834845   4.179322   3.682513   2.395207
    11  C    3.674661   2.539449   2.810551   2.439579   1.394865
    12  C    2.407292   1.521489   2.571457   2.933505   2.532379
    13  H    2.545058   2.143566   1.091341   2.038915   3.264620
    14  H    2.947968   2.157594   1.107948   2.093128   2.758449
    15  H    5.957647   4.815654   3.897218   2.534457   2.132728
    16  H    7.366961   6.173866   5.705504   4.502024   3.395756
    17  H    5.097525   4.200350   4.842721   4.574078   3.380650
    18  H    2.762484   2.126063   3.144860   3.727289   3.280457
    19  H    2.632034   2.125523   3.402759   3.676776   3.254918
                    6          7          8          9         10
     6  C    0.000000
     7  C    1.382973   0.000000
     8  C    2.394830   1.390591   0.000000
     9  Br   4.151914   2.860678   1.899561   0.000000
    10  C    2.765615   2.404663   1.383304   2.851993   0.000000
    11  C    2.419598   2.798663   2.413793   4.162528   1.390075
    12  C    3.812960   4.311759   3.798784   5.360329   2.520440
    13  H    4.382604   5.631575   5.969731   7.848492   5.210080
    14  H    3.856751   4.918581   5.114472   6.904465   4.353278
    15  H    1.084393   2.156867   3.389473   5.017435   3.849608
    16  H    2.146905   1.084983   2.151119   2.970927   3.387873
    17  H    3.852714   3.388085   2.141756   2.951931   1.087127
    18  H    4.480274   4.832686   4.147398   5.511966   2.820297
    19  H    4.441245   4.806094   4.155371   5.536842   2.860682
                   11         12         13         14         15
    11  C    0.000000
    12  C    1.514354   0.000000
    13  H    3.827485   3.474607   0.000000
    14  H    3.115965   2.951299   1.795742   0.000000
    15  H    3.388444   4.663503   4.468407   4.146930   0.000000
    16  H    3.883635   5.396536   6.525149   5.835560   2.497606
    17  H    2.142776   2.710763   5.873937   4.980172   4.936714
    18  H    2.163770   1.104551   4.068168   3.169773   5.367431
    19  H    2.180527   1.098425   4.148613   3.951994   5.315467
                   16         17         18         19
    16  H    0.000000
    17  H    4.282900   0.000000
    18  H    5.899769   2.723470   0.000000
    19  H    5.866201   2.801308   1.758001   0.000000
 Stoichiometry    C9H7BrO2
 Framework group  C1[X(C9H7BrO2)]
 Deg. of freedom    51
 Full point group                 C1      NOp   1
 Largest Abelian subgroup         C1      NOp   1
 Largest concise Abelian subgroup C1      NOp   1
                         Standard orientation:                         
 ---------------------------------------------------------------------
 Center     Atomic      Atomic             Coordinates (Angstroms)
 Number     Number       Type             X           Y           Z
 ---------------------------------------------------------------------
      1          8           0       -4.415177   -1.435738   -0.228673
      2          6           0       -3.412529   -0.784536   -0.030360
      3          6           0       -3.488323    0.661952    0.453430
      4          8           0       -2.483598    1.506240   -0.134042
      5          6           0       -1.199908    1.008800   -0.079125
      6          6           0       -0.169071    1.946378   -0.131403
      7          6           0        1.151562    1.536444   -0.109180
      8          6           0        1.444110    0.179858   -0.020668
      9         35           0        3.252111   -0.400275    0.033289
     10          6           0        0.421746   -0.750775    0.026465
     11          6           0       -0.909890   -0.354034   -0.014171
     12          6           0       -2.015920   -1.388151   -0.037996
     13          1           0       -4.454699    1.078497    0.164235
     14          1           0       -3.395429    0.676282    1.557383
     15          1           0       -0.434174    2.996360   -0.187677
     16          1           0        1.953871    2.265750   -0.149173
     17          1           0        0.659131   -1.810266    0.080989
     18          1           0       -1.944424   -2.049950    0.843448
     19          1           0       -1.948616   -2.046687   -0.914545
 ---------------------------------------------------------------------
 Rotational constants (GHZ):           2.0384130           0.2980165           0.2622184
 Standard basis: MIDIx (5D, 7F)
 There are   154 symmetry adapted cartesian basis functions of A   symmetry.
 There are   150 symmetry adapted basis functions of A   symmetry.
   150 basis functions,   261 primitive gaussians,   154 cartesian basis functions
    56 alpha electrons       56 beta electrons
       nuclear repulsion energy       901.9534604531 Hartrees.
 NAtoms=   19 NActive=   19 NUniq=   19 SFac= 1.00D+00 NAtFMM=   60 NAOKFM=F Big=F
 Integral buffers will be    131072 words long.
 Raffenetti 2 integral format.
 Two-electron integral symmetry is turned on.
 Nuclear repulsion after empirical dispersion term =      901.9425026585 Hartrees.
 One-electron integrals computed using PRISM.
 NBasis=   150 RedAO= T EigKep=  1.06D-03  NBF=   150
 NBsUse=   150 1.00D-06 EigRej= -1.00D+00 NBFU=   150
 Initial guess from the checkpoint file:  "/home/rpaton/opt/midi/Gau-4146480.chk"
 B after Tr=    -0.000000    0.000000   -0.000000
         Rot=    1.000000   -0.000233   -0.000129    0.000339 Ang=  -0.05 deg.
 ExpMin= 1.47D-01 ExpMax= 6.10D+03 ExpMxC= 6.10D+03 IAcc=3 IRadAn=         5 AccDes= 0.00D+00
 Harris functional with IExCor= 4639 and IRadAn=       5 diagonalized for initial guess.
 HarFok:  IExCor= 4639 AccDes= 0.00D+00 IRadAn=         5 IDoV= 1 UseB2=F ITyADJ=14
 ICtDFT=  3500011 ScaDFX=  1.000000  1.000000  1.000000  1.000000
 FoFCou: FMM=F IPFlag=           0 FMFlag=      100000 FMFlg1=           0
         NFxFlg=           0 DoJE=T BraDBF=F KetDBF=T FulRan=T
         wScrn=  0.000000 ICntrl=       500 IOpCl=  0 I1Cent=   200000004 NGrid=           0
         NMat0=    1 NMatS0=      1 NMatT0=    0 NMatD0=    1 NMtDS0=    0 NMtDT0=    0
 Petite list used in FoFCou.
 Requested convergence on RMS density matrix=1.00D-08 within 128 cycles.
 Requested convergence on MAX density matrix=1.00D-06.
 Requested convergence on             energy=1.00D-06.
 No special actions if energy rises.
 Integral accuracy reduced to 1.0D-05 until final iterations.
 Initial convergence to 1.0D-05 achieved.  Increase integral accuracy.
 SCF Done:  E(RwB97XD) =  -3056.60853277     A.U. after   14 cycles
            NFock= 14  Conv=0.80D-08     -V/T= 2.0024
 Calling FoFJK, ICntrl=      2127 FMM=F ISym2X=0 I1Cent= 0 IOpClX= 0 NMat=1 NMatS=1 NMatT=0.
 ***** Axes restored to original set *****
 -------------------------------------------------------------------
 Center     Atomic                   Forces (Hartrees/Bohr)
 Number     Number              X              Y              Z
 -------------------------------------------------------------------
      1        8          -0.004032731   -0.001585860   -0.004381467
      2        6           0.003079501    0.000149105    0.012794149
      3        6           0.003361211    0.000217300   -0.002525670
      4        8           0.000646408    0.000060328   -0.000682250
      5        6          -0.002812338    0.000842060    0.001390158
      6        6          -0.001189775    0.001261989   -0.000352683
      7        6           0.001828415    0.000020769    0.000233974
      8        6           0.001946170   -0.000340631    0.000122275
      9       35          -0.000648219    0.000592206   -0.000101504
     10        6           0.000232534   -0.003231999    0.000352889
     11        6          -0.005090264   -0.000558555   -0.000909913
     12        6           0.001964544    0.001082611   -0.002102940
     13        1          -0.000105387    0.000683607    0.000135898
     14        1          -0.000528253   -0.000981022   -0.002168904
     15        1           0.000286559    0.000518396   -0.000122276
     16        1           0.000248027    0.000200164   -0.000092674
     17        1           0.000098756   -0.000316208    0.000030425
     18        1          -0.000702815    0.001230299   -0.000678598
     19        1           0.001417656    0.000155443   -0.000940888
 -------------------------------------------------------------------
 Cartesian Forces:  Max     0.012794149 RMS     0.002336246

 GradGradGradGradGradGradGradGradGradGradGradGradGradGradGradGradGradGrad
 Berny optimization.
 Using GEDIIS/GDIIS optimizer.
 FormGI is forming the generalized inverse of G from B-inverse, IUseBI=4.
 Internal  Forces:  Max     0.004789755 RMS     0.001047321
 Search for a local minimum.
 Step number   3 out of a maximum of  111
 All quantities printed in internal units (Hartrees-Bohrs-Radians)
 Mixed Optimization -- RFO/linear search
 Update second derivatives using D2CorX and points    1    3    2
 DE=  1.05D-04 DEPred=-5.32D-04 R=-1.97D-01
 Trust test=-1.97D-01 RLast= 2.78D-01 DXMaxT set to 2.52D-01
 ITU= -1  1  0
 Use linear search instead of GDIIS.
     Eigenvalues ---    0.00691   0.01207   0.01515   0.01918   0.02078
     Eigenvalues ---    0.02095   0.02130   0.02147   0.02164   0.02170
     Eigenvalues ---    0.02176   0.02696   0.04191   0.06093   0.06430
     Eigenvalues ---    0.07538   0.10085   0.11216   0.11798   0.12936
     Eigenvalues ---    0.15599   0.15999   0.16000   0.18783   0.20508
     Eigenvalues ---    0.22073   0.22548   0.23579   0.24027   0.24582
     Eigenvalues ---    0.24834   0.25005   0.28656   0.31357   0.31834
     Eigenvalues ---    0.34085   0.34187   0.34242   0.34401   0.35026
     Eigenvalues ---    0.35140   0.35209   0.40196   0.41375   0.41798
     Eigenvalues ---    0.45101   0.46105   0.46353   0.46753   0.50250
     Eigenvalues ---    0.87540
 RFO step:  Lambda=-2.60703581D-04 EMin= 6.91359315D-03
 Quartic linear search produced a step of -0.54660.
 Iteration  1 RMS(Cart)=  0.01292392 RMS(Int)=  0.00020930
 Iteration  2 RMS(Cart)=  0.00026609 RMS(Int)=  0.00010637
 Iteration  3 RMS(Cart)=  0.00000003 RMS(Int)=  0.00010637
 Variable       Old X    -DE/DX   Delta X   Delta X   Delta X     New X
                                 (Linear)    (Quad)   (Total)
    R1        2.29015   0.00479   0.00608  -0.00232   0.00376   2.29392
    R2        2.88586  -0.00023  -0.00599   0.00720   0.00116   2.88701
    R3        2.87520  -0.00093  -0.00484   0.00289  -0.00204   2.87316
    R4        2.71715  -0.00104  -0.00404   0.00021  -0.00379   2.71336
    R5        2.06234   0.00045   0.00178  -0.00145   0.00033   2.06267
    R6        2.09372  -0.00227  -0.00249  -0.00222  -0.00471   2.08901
    R7        2.60366  -0.00192  -0.00172  -0.00256  -0.00420   2.59946
    R8        2.63507   0.00105   0.00012   0.00117   0.00129   2.63636
    R9        2.63591   0.00108  -0.00003   0.00160   0.00160   2.63752
   R10        2.61344   0.00188   0.00290   0.00042   0.00334   2.61678
   R11        2.04921   0.00054   0.00031   0.00106   0.00138   2.05058
   R12        2.62784   0.00118  -0.00106   0.00361   0.00257   2.63040
   R13        2.05032   0.00032   0.00019   0.00060   0.00079   2.05111
   R14        3.58965  -0.00087  -0.00045  -0.00427  -0.00472   3.58493
   R15        2.61406   0.00216   0.00270   0.00122   0.00393   2.61799
   R16        2.62686   0.00292   0.00304   0.00197   0.00500   2.63186
   R17        2.05437   0.00031  -0.00028   0.00124   0.00096   2.05533
   R18        2.86171  -0.00340   0.00146  -0.01133  -0.00990   2.85182
   R19        2.08730  -0.00116  -0.00322   0.00131  -0.00190   2.08540
   R20        2.07572   0.00040  -0.00093   0.00125   0.00032   2.07604
    A1        2.11735   0.00144   0.00124   0.00421   0.00607   2.12342
    A2        2.14770  -0.00071  -0.00173  -0.00080  -0.00193   2.14577
[...]
 03929,-0.00941526,0.00159819,-0.02546284,0.00023154,0.02579502,-0.0068
 0558,-0.08142231,0.03475783,-0.11070010,0.24871822,0.00211881,0.003973
 66,0.00001140,0.01179984,0.00015409,-0.00861295,0.06893084,0.04838734,
 -0.14103200,-0.09440526,-0.10595933,0.22201310,0.00241165,0.00780156,-
 0.00069940,0.00254226,-0.01394097,-0.00208224,-0.06688988,0.01480020,0
 .00318201,-0.21840052,0.08951866,-0.00953822,0.75041330,-0.00027561,-0
 .00474646,0.00014020,-0.00608070,0.00648088,0.00227481,0.00907161,0.00
 546096,-0.01261765,0.11015076,-0.15637437,0.04031668,0.02332294,0.6774
 2258,-0.00047242,0.00126902,0.00049410,0.00067508,-0.00135694,0.000830
 15,0.01627334,-0.01935116,0.00237408,-0.03632042,0.05068357,-0.0726499
 0,0.01244819,-0.09330427,0.20714313,-0.00015185,-0.00155764,-0.0000262
 1,-0.00080815,0.00285196,0.00035083,0.00391734,0.00197747,-0.00483168,
 -0.04948971,-0.00893528,-0.00237159,-0.28007440,-0.05854971,-0.0003990
 0,0.69335331,0.00009961,0.00091046,-0.00007307,0.00099008,-0.00136692,
 -0.00060467,0.00290070,-0.00093837,0.00414344,0.02744290,0.01453066,-0
 .00374096,-0.12583938,-0.18141154,0.01277219,0.00083273,0.76068974,0.0
 0015486,0.00041523,-0.00000794,-0.00128624,-0.00122165,0.00026681,0.00
 077912,0.00049853,-0.00067199,-0.00898050,-0.00150561,0.00790990,0.010
 47853,0.01654768,-0.07946249,0.03624887,-0.10582441,0.17121179,-0.0005
 4284,0.00028069,0.00046136,0.00047842,-0.00117241,-0.00033177,-0.00138
 118,-0.00058611,-0.00144226,0.00131239,-0.00110708,0.00275771,-0.06566
 537,-0.01335160,-0.00383421,-0.28150348,0.12449750,-0.03759674,0.76196
 246,-0.00020353,-0.00004520,-0.00005114,0.00060597,-0.00013072,-0.0001
 2620,-0.00056444,0.00058176,0.00012223,-0.00589275,-0.00488762,0.00080
 238,0.03465403,0.07203351,-0.00809588,0.06266373,-0.19642588,0.0255522
 1,0.04199232,0.67580717,0.00002493,0.00005369,-0.00000540,0.00034109,-
 0.00004910,-0.00014267,-0.00136049,0.00066166,0.00045743,0.00262331,0.
 00090895,0.00757912,-0.01086474,-0.01223724,0.00715677,-0.02669890,0.0
 3066753,-0.08049501,0.03554562,-0.09047501,0.17876423,0.00074555,-0.00
 010580,-0.00021162,-0.00171792,0.00061571,0.00027288,0.00041057,-0.000
 03697,-0.00010934,0.00049103,0.00187239,0.00005688,-0.02658525,-0.0391
 3645,0.00512535,0.04111462,0.02774332,-0.00277003,-0.12104835,0.002066
 48,-0.00302262,0.57141464,-0.00026468,-0.00003430,0.00020159,0.0004155
 5,0.00013237,-0.00004721,-0.00016104,-0.00038194,-0.00093999,0.0020652
 8,0.00373818,0.00164216,-0.03942466,-0.05908347,0.00490465,0.07962620,
 -0.03896718,0.01378171,-0.05468589,-0.32031947,0.04143950,0.05943764,0
 .60355487,-0.00020680,0.00027553,0.00036063,-0.00107103,-0.00082766,-0
 .00030728,0.00022526,-0.00000418,0.00028737,-0.00008296,-0.00045915,-0
 .00119245,0.00551225,0.00594982,-0.00785234,-0.01148307,0.01118808,0.0
 0930811,0.00617917,0.04524908,-0.08663366,0.02246213,-0.08008563,0.157
 01390,-0.00061501,-0.00008256,0.00052954,0.00044623,-0.00027173,-0.000
 65824,0.00086884,0.00029876,-0.00049847,-0.00231785,0.00087434,-0.0003
 3811,0.00166625,-0.00021614,0.00046753,0.00146500,0.00021217,-0.000065
 85,-0.01235537,0.00689597,-0.00257965,-0.11502332,0.05603642,-0.017379
 40,0.15765176,0.00029270,0.00017759,-0.00021701,-0.00028811,-0.0001892
 7,0.00020918,-0.00059345,-0.00021029,0.00043205,0.00173486,-0.00040959
 ,0.00001863,-0.00035432,0.00147076,-0.00049305,-0.00375646,-0.00220240
 ,0.00085443,0.03173407,-0.01791709,0.00652395,0.05612178,-0.06629768,0
 .01239846,-0.08443699,0.08419703,-0.00008197,-0.00007477,0.00009777,-0
 .00007124,0.00008640,-0.00003665,0.00029616,0.00000904,-0.00020904,-0.
 00063807,0.00001017,-0.00059915,0.00028029,-0.00031937,-0.00019007,0.0
 0067178,0.00104958,0.00407134,-0.00715349,0.00481265,0.00319656,-0.017
 40976,0.01230725,-0.02618519,0.02686353,-0.01996530,0.01647274,-0.0019
 4243,0.00123604,0.00170960,0.00096379,-0.00531428,-0.00351896,-0.00140
 814,0.00026919,0.00179345,0.00134865,-0.00828354,-0.00089464,0.0437700
 7,0.08052565,-0.01111574,-0.07151917,0.00398375,-0.00495979,0.02461780
 ,-0.08137848,0.01432978,-0.28221248,-0.06406014,-0.00340236,-0.0317596
 8,-0.00095445,-0.00254181,0.68211121,-0.00089013,0.00107265,0.00171337
 ,-0.00262584,-0.00335466,-0.00196441,-0.00108672,0.00067549,0.00135515
 ,-0.00179144,-0.00541743,0.00067111,0.03366732,-0.03392280,0.01088871,
 0.00055130,-0.00155326,0.00008634,-0.03638916,-0.02330206,0.00356398,-
 0.12030642,-0.16714886,0.00615992,0.02386552,0.00054491,0.00257911,0.0
 1145538,0.75774947,-0.00064387,0.00025818,-0.00006509,0.00295727,-0.00
 104951,-0.00074398,-0.00082344,0.00072355,0.00000905,-0.00034775,0.001
 27809,0.00628651,-0.00282446,0.01205587,0.00586921,-0.00511393,-0.0001
 3459,-0.00476416,0.00746926,0.00030636,0.01291343,0.00539339,0.0102745
 9,-0.07940732,-0.00714356,0.00068070,0.00392525,0.04093988,-0.10323358
 ,0.18195491,0.00144334,0.00166001,0.00047561,-0.03823001,-0.00383012,0
 .00336007,0.00870718,0.00224981,-0.00315781,-0.01276146,0.04670762,-0.
 00862634,-0.13255502,-0.06288060,0.00821448,0.02703879,-0.03590383,0.0
 0704949,-0.01188583,0.02939634,-0.00551118,-0.06677171,-0.01595666,-0.
 00402322,-0.00039505,-0.00073084,-0.00043883,-0.27453470,0.12734926,-0
 .03797511,0.69875229,0.00487485,-0.00310043,-0.00750430,0.01515381,0.0
 1586306,0.00871901,-0.00487741,-0.00239891,0.00243815,0.01550757,-0.03
 062396,0.00591899,0.00992464,-0.29562629,0.03582588,-0.07962479,-0.020
 65503,-0.00188048,0.02666216,-0.05985979,0.01136114,0.03587125,0.06728
 797,-0.00666658,-0.00447223,-0.00033967,0.00052159,0.06328668,-0.19788
 554,0.02795813,-0.03242470,0.66940668,0.00245961,-0.00492633,-0.002724
 08,0.01358533,0.01099553,0.00010183,0.00178817,0.00054785,0.00085223,-
 0.00775725,0.01372316,0.00420734,-0.00253543,0.02663096,-0.09039117,0.
 01388594,0.00103033,0.01244421,-0.00343339,0.01168752,-0.00695858,-0.0
 1270083,-0.00899738,0.01186409,0.00011380,0.00081987,0.00400266,-0.028
 90906,0.03043367,-0.08539816,0.05504815,-0.07905883,0.20968643,-0.0288
 3035,0.01725506,0.03505835,-0.09351625,0.02691372,0.00877400,0.0058233
 7,-0.00220692,0.00664683,0.00010907,0.00364280,0.00036237,-0.00728331,
 -0.01117709,-0.00095528,0.00027357,0.00178037,-0.00049784,-0.00034750,
 -0.00126117,0.00030196,0.00163382,0.00310951,-0.00141354,-0.00061990,-
 0.00004892,0.00001029,-0.03091248,-0.01353355,-0.00335501,-0.17845962,
 -0.03974188,-0.00657493,0.43799104,-0.00244318,0.02149270,0.00515632,0
 .02339947,-0.13172181,-0.01923170,0.02154100,-0.02160214,-0.01581361,-
 0.00376940,0.00767279,-0.00144275,-0.03761291,-0.01967472,-0.00041097,
 0.00111087,-0.00477798,0.00177510,0.00096126,-0.00020634,-0.00014183,0
 .00248147,-0.00129566,0.00238941,0.00119318,-0.00011324,0.00007489,0.0
 1658669,0.01237423,0.00096808,-0.04295865,-0.11730523,0.00153801,0.037
 03184,0.57701139,0.03450355,-0.00890946,0.00085987,0.00686557,-0.01588
 278,-0.08867298,0.00994144,0.00114841,0.01611042,-0.00198765,-0.003268
 72,-0.00227535,0.00473798,0.00306182,0.00765054,0.00012037,0.00317639,
 0.00450543,-0.00104308,0.00009004,-0.00082894,-0.00088215,0.00083021,0
 .00704982,0.00003143,0.00002391,0.00010780,-0.00497139,-0.00203710,0.0
 0593984,-0.01140234,0.00223543,-0.07128853,0.02002279,-0.06449675,0.50
 420881,0.00046773,-0.00023462,-0.00031662,0.00551722,-0.00364330,0.002
 46745,-0.21873230,0.09946688,-0.08188305,-0.02777713,0.01259362,-0.002
 79712,-0.00096367,-0.00392538,0.00317159,-0.00088184,0.00106721,0.0000
 2741,-0.00018011,-0.00023470,-0.00015899,0.00012047,-0.00006594,0.0000
 5820,-0.00012921,0.00010382,-0.00001607,0.00003193,0.00007670,-0.00013
 425,-0.00028206,-0.00020081,-0.00009757,-0.00039135,-0.00059086,-0.000
 64318,0.24768211,-0.00250848,0.00370849,-0.00294240,0.02833267,-0.0203
 2647,0.01324086,0.10805044,-0.10660741,0.05151783,-0.00989207,0.004930
 58,-0.00208191,-0.00138677,-0.00029067,0.00116919,-0.00023138,0.000353
 41,0.00004148,-0.00004156,-0.00005067,-0.00002997,-0.00001775,-0.00001
 048,-0.00000962,-0.00001207,0.00001493,-0.00000412,0.00002658,-0.00001
 637,0.00006430,-0.00115900,0.00027728,0.00014003,-0.00188492,-0.002781
 46,-0.00115433,-0.10915531,0.11450073,0.00099516,0.00088625,-0.0000631
 9,-0.00108151,-0.00272333,0.00143593,-0.09005112,0.05093338,-0.0891356
 6,0.02656618,-0.01238241,0.00535238,0.00354211,0.00211969,-0.00164034,
 0.00102351,-0.00089640,0.00017185,0.00014784,0.00032678,0.00007664,-0.
 00007871,-0.00006006,-0.00002326,0.00003317,-0.00003748,0.00000443,0.0
 0001548,-0.00009967,0.00011584,0.00021600,0.00019819,0.00008672,-0.000
 31573,-0.00008428,-0.00099000,0.08382171,-0.05278407,0.09491375,0.0001
 5313,-0.00032260,0.00099149,0.00100115,-0.00035952,-0.00452047,-0.0632
 7032,-0.02041012,-0.05770709,-0.00736630,0.00846568,0.03293327,0.00685
 586,-0.00200585,0.00447153,-0.00071255,-0.00054628,-0.00063037,0.00026
 914,-0.00031581,-0.00011086,0.00008161,0.00026996,0.00000945,-0.000039
 89,0.00002232,0.00000435,-0.00002577,0.00010218,-0.00016151,-0.0004289
 0,0.00037844,-0.00123160,-0.00044595,-0.00032242,-0.00016492,-0.004584
 82,-0.01088030,-0.02488431,0.06840659,0.00171565,0.00166113,0.00406431
 ,-0.01012363,-0.01757529,-0.03291090,-0.02367580,-0.08474782,-0.091871
 63,-0.00207649,0.00634020,0.01118580,0.00178981,-0.00097013,-0.0001450
 1,0.00033062,-0.00003753,-0.00024306,-0.00005121,0.00029208,-0.0000229
 6,-0.00019791,-0.00027768,0.00004921,-0.00005385,0.00005367,-0.0000100
 3,0.00058432,-0.00000164,0.00012017,-0.00034410,0.00001296,-0.00026078
 ,0.00128274,-0.00320693,0.00346431,0.00485224,0.00745490,0.01477383,0.
 02599021,0.09078855,-0.00031337,-0.00017333,0.00084941,0.00014728,0.00
 151429,0.00229357,-0.05657007,-0.08545232,-0.24602844,0.01336479,-0.00
 363666,-0.02267760,-0.00555399,0.00309284,-0.00097799,0.00161054,-0.00
 023945,0.00003917,-0.00029404,0.00030750,-0.00017012,-0.00010305,-0.00
 030683,0.00002106,0.00018623,-0.00012033,0.00003011,0.00007353,0.00006
 342,0.00026659,0.00028104,-0.00090295,0.00045800,-0.00006822,0.0002768
 9,-0.00105979,-0.00346551,-0.00627903,-0.01016932,0.05080092,0.0919114
 6,0.27722802,-0.00001949,0.00039756,0.00003479,0.00054746,-0.00065703,
 -0.00034433,-0.00048704,0.00040687,0.00063220,0.00267065,0.00112455,-0
 .00014783,0.00347729,-0.03104586,0.00528438,-0.06260791,-0.01550471,0.
 00115545,0.00610373,0.02842171,-0.00473239,-0.00323512,0.00205581,-0.0
 0105723,-0.00049064,0.00097523,-0.00024018,-0.00121558,0.00025125,-0.0
 0009836,-0.00486815,-0.00127657,-0.00060026,0.00016627,-0.00121688,0.0
 0044102,0.00002158,0.00000601,-0.00003079,0.00000731,-0.00003197,-0.00
 004974,0.05923316,-0.00004656,0.00016172,0.00005080,0.00028708,-0.0002
 8397,-0.00016317,-0.00019210,0.00012002,0.00008994,0.00099689,0.001099
 93,-0.00085266,0.00284427,-0.01158612,0.00298256,-0.01692522,-0.340806
 91,0.05025736,-0.00323570,-0.01145496,0.00260648,0.00186446,0.00130643
 ,0.00124802,0.00016928,-0.00046548,0.00009697,-0.00017336,0.00092802,-
 0.00038700,-0.00216263,0.00087042,0.00096520,0.00024465,-0.00046275,0.
 00018052,0.00001321,0.00000969,0.00000737,0.00001199,0.00000880,-0.000
 01599,0.01653334,0.36010121,0.00001802,-0.00005497,-0.00002449,-0.0000
 9980,0.00013679,0.00003143,0.00068282,-0.00027263,-0.00018227,-0.00002
 655,-0.00125667,-0.00423712,-0.00264068,0.00141579,0.00626642,0.002694
 03,0.05049638,-0.04962908,0.00040187,0.00474635,0.00357014,-0.00122187
 ,0.00100999,0.00723704,-0.00006849,0.00015892,0.00009537,0.00037164,-0
 .00038255,-0.00070893,-0.00018483,0.00081706,0.00586047,-0.00001156,0.
 00017940,-0.00018892,0.00006247,0.00000969,-0.00006614,0.00021060,0.00
 001311,-0.00007044,-0.00059516,-0.05595092,0.03725808,-0.00005697,-0.0
 0008925,0.00004928,0.00001070,0.00012902,-0.00001292,0.00006116,0.0000
 5819,-0.00048658,-0.00132222,-0.00032951,0.00038490,-0.00052935,0.0031
 6086,-0.00102585,-0.01925348,-0.01322463,0.00033692,-0.29436285,-0.115
 69788,0.00268990,0.00047240,0.00272608,-0.00083614,0.00118107,0.000680
 20,0.00015269,0.00148320,0.00042720,-0.00041575,0.00038354,0.00065354,
 -0.00005309,0.00000468,-0.00004770,0.00010380,-0.00009278,-0.00002326,
 0.00007733,-0.00000155,-0.00001569,0.00004691,0.00108727,0.00001449,0.
 00035851,0.31081823,-0.00001376,0.00005449,0.00000851,0.00004662,-0.00
 008697,-0.00006625,0.00007677,-0.00000163,0.00028893,0.00087952,0.0003
 1332,-0.00035182,0.00279184,-0.00170587,0.00191390,0.01854318,0.012119
 08,0.00037333,-0.11303924,-0.11579447,0.00483062,-0.03058359,-0.010727
 19,0.00054843,-0.00044162,0.00054199,-0.00063205,0.00085774,-0.0050161
 9,0.00205232,0.00088914,-0.00055496,-0.00004383,-0.00005507,0.00004255
 ,-0.00007926,0.00006208,0.00001681,-0.00005266,-0.00000378,0.00001097,
 -0.00000956,-0.00026351,0.00067575,-0.00092767,0.12159086,0.12050509,-
 0.00001115,-0.00008715,-0.00002854,0.00002845,0.00019578,0.00006042,-0
 .00008257,0.00001563,-0.00006638,-0.00036004,-0.00017070,-0.00009160,-
 0.00119507,0.00161272,0.00747204,-0.00465387,-0.00232136,0.00580115,0.
 00205969,0.00462920,-0.04431863,0.00539730,0.00325533,0.00423138,0.000
 31982,-0.00052829,-0.00241179,-0.00066492,0.00206060,0.00546623,-0.000
 10940,0.00012614,-0.00090135,0.00007415,-0.00022576,-0.00061571,-0.000
 03946,-0.00002639,0.00002232,0.00002164,0.00001021,0.00000075,0.000411
 72,-0.00093568,-0.00450356,-0.00136912,-0.00782216,0.02969202,0.000115
 05,-0.00021073,-0.00003385,-0.00023606,0.00015909,0.00028499,0.0006510
 9,0.00001454,-0.00062290,-0.00060587,0.00175599,-0.00002799,-0.0037624
 4,0.00110105,-0.00112015,-0.00087900,0.00037460,-0.00014802,-0.0049517
 3,-0.00163664,-0.00056705,0.00056109,-0.03054491,0.00483361,0.00056604
 ,-0.00063671,0.00034641,-0.06101883,-0.01831798,0.00179938,0.00420842,
 0.02790351,-0.00485366,0.00187993,0.00122797,0.00009048,-0.00004196,-0
 .00004371,0.00002881,-0.00004147,-0.00006973,0.00004511,0.00001050,-0.
 00000287,0.00006630,0.00011632,-0.00137340,0.00030004,0.06392647,-0.00
 003670,0.00010470,-0.00003712,0.00019510,-0.00017398,-0.00020292,-0.00
 039650,0.00012683,0.00037468,0.00040378,-0.00102066,0.00003324,0.00167
 970,0.00176343,0.00129816,0.00028318,0.00078811,-0.00027221,-0.0022366
 9,0.00111584,0.00056158,0.00269923,-0.01083157,0.00274457,0.00046263,0
 .00110371,-0.00056350,-0.02076314,-0.33642029,0.04863944,-0.00325596,-
 0.01366423,0.00291177,-0.00067101,0.00093994,-0.00084424,0.00004317,0.
 00001825,-0.00003935,0.00004046,0.00001618,-0.00005195,-0.00001333,-0.
 00010129,-0.00008246,-0.00000467,-0.00043527,0.00014544,0.02075204,0.3
 5617634,0.00022045,-0.00011454,-0.00028332,0.00026904,0.00029748,0.000
 36054,0.00011215,-0.00007458,-0.00003726,-0.00007627,0.00006347,-0.000
 33138,-0.00113815,0.00153414,0.00729440,-0.00032079,-0.00021728,-0.000
 82253,-0.00034380,0.00032088,0.00580296,-0.00019450,0.00077542,0.00427
 420,0.00016278,-0.00072593,-0.00235923,0.00135781,0.04886827,-0.051696
 70,0.00092463,0.00494530,0.00530820,0.00075919,-0.00134674,-0.00437581
 ,-0.00001779,-0.00000179,-0.00000030,-0.00000613,-0.00004164,-0.000011
 62,0.00003262,-0.00011472,-0.00065783,0.00000928,-0.00000876,0.0001844
 6,-0.00072639,-0.05458124,0.03725502,0.00071494,-0.00356435,0.00043729
 ,0.00225566,0.02433691,-0.01200813,-0.00207302,0.00093094,0.00360295,0
 .00070240,-0.00018939,0.00001247,-0.00659521,-0.00033088,-0.00079713,0
 .00062077,-0.00149547,-0.00015754,0.00003004,0.00019887,0.00004123,0.0
 0013735,-0.00002994,-0.00010275,0.00001448,0.00007088,-0.00004624,0.00
 212687,-0.00136874,0.00016039,-0.00199028,-0.03056619,0.01386276,-0.05
 216249,-0.01289809,0.00513988,0.00003756,0.00034372,-0.00013076,0.0000
 8415,0.00077995,-0.00010271,-0.00041653,-0.00018202,0.00006198,-0.0000
 1599,0.00005446,-0.00001565,-0.00054872,0.00084368,-0.00005099,0.05654
 633,-0.00178552,0.00509581,-0.00096785,-0.00177607,-0.02465148,0.00998
 912,0.00277541,-0.00022964,-0.00216424,-0.00000709,0.00133205,0.000038
 33,-0.00151662,0.00126495,0.00056688,0.00039370,-0.00058400,0.00011430
 ,0.00010647,0.00031093,-0.00006345,-0.00017702,-0.00017823,-0.00039588
 ,-0.00007636,0.00005464,-0.00000255,0.00160292,0.00094846,-0.00039083,
 -0.00058889,-0.01034975,0.00293253,-0.01341345,-0.26862118,0.10665631,
 -0.00002450,-0.00058266,0.00005345,-0.00004243,-0.00065280,-0.00001963
 ,-0.00014547,-0.00005975,0.00001427,-0.00002502,0.00003754,0.00006021,
 -0.00049940,0.00042614,0.00034486,0.01524446,0.29340309,-0.00237430,0.
 00187188,-0.00003805,0.00113031,-0.01977227,0.00577874,0.00273303,-0.0
 0128442,-0.00143861,-0.00010401,0.00046583,0.00011016,-0.00057315,0.00
 030088,0.00051713,-0.00049024,-0.00023440,0.00024934,0.00027108,-0.000
 25693,0.00009447,0.00020920,0.00015594,-0.00007841,0.00003308,-0.00003
 202,-0.00002066,0.00010724,-0.00043404,0.00001826,-0.00185765,-0.00500
 589,0.00114013,0.00614606,0.10935357,-0.09756731,-0.00005398,-0.000558
 58,-0.00000121,-0.00004719,-0.00036236,0.00002165,-0.00005476,-0.00005
 248,-0.00007501,-0.00000584,-0.00001255,-0.00000397,0.00027701,0.00009
 827,0.00022344,-0.00625384,-0.11455445,0.10412551,-0.00385353,0.001038
 21,-0.00256558,0.00598443,0.00178062,0.02651229,-0.00172170,-0.0001951
 0,-0.00285519,0.00218877,0.00029697,-0.00020998,-0.00183227,0.00164298
 ,-0.00009126,0.00009814,0.00058934,0.00086228,-0.00054939,0.00028997,-
 0.00029097,-0.00058900,-0.00054859,0.00177841,-0.00011376,0.00006440,0
 .00001217,0.00009571,-0.00143613,0.00031744,-0.01737077,-0.00703186,-0
 .03199669,-0.05491256,-0.00367365,-0.06090362,0.00017863,0.00047717,0.
 00010562,0.00005859,-0.00068517,-0.00003565,0.00001524,-0.00005920,-0.
 00007929,0.00001660,-0.00001826,-0.00011157,0.00005118,-0.00002497,-0.
 00097315,0.00053168,-0.00004513,0.00090794,0.07172401,0.00124217,-0.00
 018310,0.00171090,-0.00363375,-0.00288393,-0.02405384,0.00232174,-0.00
 073228,0.00205588,0.00054709,0.00066372,0.00128701,-0.00271934,-0.0005
 0463,-0.00111744,0.00041553,0.00033553,0.00064971,-0.00033783,0.000252
 96,-0.00015950,-0.00021180,-0.00046610,0.00024818,0.00005527,-0.000014
 54,0.00002404,0.00051244,-0.00025414,-0.00018429,-0.00605620,-0.001354
 58,-0.01106929,-0.00726670,-0.04776418,-0.02419470,-0.00020351,-0.0006
 1886,-0.00013923,-0.00007214,0.00083037,0.00004165,-0.00001702,-0.0000
 6077,-0.00006987,0.00001717,0.00000496,0.00000624,0.00004730,0.0000677
 9,0.00007742,0.00782119,0.00303587,0.03031400,0.00753840,0.04964591,0.
 00150891,-0.00111622,0.00188810,-0.00119255,-0.00181187,-0.01869790,0.
 00055470,-0.00084105,0.00080018,0.00090839,-0.00064504,0.00022960,-0.0
 0053583,0.00142463,0.00009634,-0.00021661,-0.00023732,-0.00012589,0.00
 017918,0.00005197,-0.00005874,-0.00021267,-0.00014125,0.00003232,-0.00
 000915,-0.00000069,0.00000774,0.00028025,-0.00029230,0.00001921,-0.002
 28278,-0.00004598,0.00164956,-0.06496388,-0.01851728,-0.27856920,0.000
 01477,-0.00031116,-0.00009044,0.00002121,0.00027598,-0.00004301,-0.000
 04116,-0.00001258,0.00002487,-0.00000424,-0.00000947,0.00001076,0.0000
 2787,-0.00013216,-0.00012723,-0.00365321,-0.00221138,-0.01305559,0.069
 61680,0.02457315,0.30600934\\0.00000114,-0.00000555,-0.00000070,-0.000
 00179,0.00000927,0.00000096,-0.00000161,-0.00000131,0.00001025,0.00000
 482,0.00000051,-0.00000505,0.00000178,-0.00000098,0.00000317,-0.000004
 47,0.00000050,-0.00000097,0.00000187,-0.00000025,0.00000091,0.00000166
 ,0.00000002,-0.00000154,-0.00000054,0.00000039,-0.00000074,-0.00000208
 ,0.00000049,-0.00000093,-0.00000108,0.00000005,0.00000197,-0.00000149,
 -0.00000270,-0.00000424,-0.00000042,-0.00000137,-0.00000162,0.00000123
 ,-0.00000101,-0.00000106,-0.00000030,0.00000089,0.00000088,-0.00000004
 ,0.00000023,0.00000078,-0.00000037,-0.00000061,-0.00000060,0.00000164,
 0.00000023,-0.00000046,0.00000004,0.00000122,-0.00000100\\\@
 The archive entry for this job was punched.


 TIMES HAVE CHANGED. IN THE BIBLE WHEN AN ASS
 SPOKE IT WAS CONSIDERED A MIRACLE.
 Job cpu time:       0 days  0 hours 15 minutes  8.0 seconds.
 Elapsed time:       0 days  0 hours  0 minutes 38.3 seconds.
 File lengths (MBytes):  RWF=     70 Int=      0 D2E=      0 Chk=      3 Scr=      1
 Normal termination of Gaussian 16 at Wed Sep 25 15:57:22 2024.
