 Entering Gaussian System, Link 0=/usr/local/Gaussian/G16C/g16/g16
 Input=arbr39_wb97xd.com
 Output=arbr39_wb97xd.log
 Initial command:
 /usr/local/Gaussian/G16C/g16/l1.exe "/home/rpaton/opt/midi/Gau-4115626.inp" -scrdir="/home/rpaton/opt/midi/"
 Entering Link 1 = /usr/local/Gaussian/G16C/g16/l1.exe PID=   4115627.
  
 Copyright (c) 1988-2019, Gaussian, Inc.  All Rights Reserved.
  
 This is part of the Gaussian(R) 16 program.  It is based on
 the Gaussian(R) 09 system (copyright 2009, Gaussian, Inc.),
 the Gaussian(R) 03 system (copyright 2003, Gaussian, Inc.),
 the Gaussian(R) 98 system (copyright 1998, Gaussian, Inc.),
 the Gaussian(R) 94 system (copyright 1995, Gaussian, Inc.),
 the Gaussian 92(TM) system (copyright 1992, Gaussian, Inc.),
 the Gaussian 90(TM) system (copyright 1990, Gaussian, Inc.),
 the Gaussian 88(TM) system (copyright 1988, Gaussian, Inc.),
 the Gaussian 86(TM) system (copyright 1986, Carnegie Mellon
 University), and the Gaussian 82(TM) system (copyright 1983,
 Carnegie Mellon University). Gaussian is a federally registered
 trademark of Gaussian, Inc.
  
 This software contains proprietary and confidential information,
 including trade secrets, belonging to Gaussian, Inc.
  
 This software is provided under written license and may be
 used, copied, transmitted, or stored only in accord with that
 written license.
  
 The following legend is applicable only to US Government
 contracts under FAR:
  
                    RESTRICTED RIGHTS LEGEND
  
 Use, reproduction and disclosure by the US Government is
 subject to restrictions as set forth in subparagraphs (a)
 and (c) of the Commercial Computer Software - Restricted
 Rights clause in FAR 52.227-19.
  
 Gaussian, Inc.
 340 Quinnipiac St., Bldg. 40, Wallingford CT 06492
  
  
 ---------------------------------------------------------------
 Warning -- This program may not be used in any manner that
 competes with the business of Gaussian, Inc. or will provide
 assistance to any competitor of Gaussian, Inc.  The licensee
 of this program is prohibited from giving any competitor of
 Gaussian, Inc. access to this program.  By using this program,
 the user acknowledges that Gaussian, Inc. is engaged in the
 business of creating and licensing software in the field of
 computational chemistry and represents and warrants to the
 licensee that it is not a competitor of Gaussian, Inc. and that
 it will not use this program in any manner prohibited above.
 ---------------------------------------------------------------
  

 Cite this work as:
 Gaussian 16, Revision C.01,
 M. J. Frisch, G. W. Trucks, H. B. Schlegel, G. E. Scuseria, 
 M. A. Robb, J. R. Cheeseman, G. Scalmani, V. Barone, 
 G. A. Petersson, H. Nakatsuji, X. Li, M. Caricato, A. V. Marenich, 
 J. Bloino, B. G. Janesko, R. Gomperts, B. Mennucci, H. P. Hratchian, 
 J. V. Ortiz, A. F. Izmaylov, J. L. Sonnenberg, D. Williams-Young, 
 F. Ding, F. Lipparini, F. Egidi, J. Goings, B. Peng, A. Petrone, 
 T. Henderson, D. Ranasinghe, V. G. Zakrzewski, J. Gao, N. Rega, 
 G. Zheng, W. Liang, M. Hada, M. Ehara, K. Toyota, R. Fukuda, 
 J. Hasegawa, M. Ishida, T. Nakajima, Y. Honda, O. Kitao, H. Nakai, 
 T. Vreven, K. Throssell, J. A. Montgomery, Jr., J. E. Peralta, 
 F. Ogliaro, M. J. Bearpark, J. J. Heyd, E. N. Brothers, K. N. Kudin, 
 V. N. Staroverov, T. A. Keith, R. Kobayashi, J. Normand, 
 K. Raghavachari, A. P. Rendell, J. C. Burant, S. S. Iyengar, 
 J. Tomasi, M. Cossi, J. M. Millam, M. Klene, C. Adamo, R. Cammi, 
 J. W. Ochterski, R. L. Martin, K. Morokuma, O. Farkas, 
 J. B. Foresman, and D. J. Fox, Gaussian, Inc., Wallingford CT, 2019.
 
 ******************************************
 Gaussian 16:  ES64L-G16RevC.01  3-Jul-2019
                25-Sep-2024 
 ******************************************
 %nprocshared=24
 Will use up to   24 processors via shared memory.
 %mem=96GB
 -----------------------
 # opt freq wb97xd/midix
 -----------------------
 1/18=20,19=15,26=3,38=1/1,3;
 2/9=110,12=2,17=6,18=5,40=1/2;
 3/5=20,11=2,25=1,30=1,71=1,74=-58/1,2,3;
 4//1;
 5/5=2,38=5/2;
 6/7=2,8=2,9=2,10=2,28=1/1;
 7//1,2,3,16;
 1/18=20,19=15,26=3/3(2);
 2/9=110/2;
 99//99;
 2/9=110/2;
 3/5=20,11=2,25=1,30=1,71=1,74=-58/1,2,3;
 4/5=5,16=3,69=1/1;
 5/5=2,38=5/2;
 7//1,2,3,16;
 1/18=20,19=15,26=3/3(-5);
 2/9=110/2;
 6/7=2,8=2,9=2,10=2,19=2,28=1/1;
 99/9=1/99;
 --------------------------
 arbr39_rdkit_conf_1_wb97xd
 --------------------------
 Symbolic Z-matrix:
 Charge =  0 Multiplicity = 1
 O                    -0.3359   -2.5369   -0.4527 
 C                    -0.1563   -1.3406   -0.2872 
 C                     1.1788   -0.7779   -0.0967 
 C                     2.3867   -1.4523   -0.0721 
 C                     3.5343   -0.6897    0.1264 
 Br                    5.2229   -1.5404    0.1724 
 C                     3.4589    0.7034    0.2935 
 C                     2.2218    1.3589    0.2638 
 C                     1.0736    0.6054    0.0664 
 C                    -0.3348    1.1314    0.0051 
 C                    -1.1822   -0.1429   -0.2302 
 C                    -2.2193   -0.0484   -1.3914 
 C                    -3.2629    0.3956   -0.3505 
 C                    -2.4093   -0.3116    0.7177 
 H                     2.4222   -2.5288   -0.2032 
 H                     4.3652    1.2855    0.4477 
 H                     2.1707    2.4365    0.3937 
 H                    -0.4322    1.8432   -0.8209 
 H                    -0.5917    1.6223    0.9493 
 H                    -2.0078    0.6774   -2.1814 
 H                    -2.4528   -1.0122   -1.86 
 H                    -4.2721    0.0003   -0.4907 
 H                    -3.3213    1.4822   -0.2201 
 H                    -2.3561    0.1949    1.6853 
 H                    -2.7004   -1.3551    0.8886 
 

 GradGradGradGradGradGradGradGradGradGradGradGradGradGradGradGradGradGrad
 Berny optimization.
 Initialization pass.
                           ----------------------------
                           !    Initial Parameters    !
                           ! (Angstroms and Degrees)  !
 --------------------------                            --------------------------
 ! Name  Definition              Value          Derivative Info.                !
 --------------------------------------------------------------------------------
 ! R1    R(1,2)                  1.221          estimate D2E/DX2                !
 ! R2    R(2,3)                  1.4613         estimate D2E/DX2                !
 ! R3    R(2,11)                 1.578          estimate D2E/DX2                !
 ! R4    R(3,4)                  1.3836         estimate D2E/DX2                !
 ! R5    R(3,9)                  1.3968         estimate D2E/DX2                !
 ! R6    R(4,5)                  1.3921         estimate D2E/DX2                !
 ! R7    R(4,15)                 1.085          estimate D2E/DX2                !
 ! R8    R(5,6)                  1.8913         estimate D2E/DX2                !
 ! R9    R(5,7)                  1.4051         estimate D2E/DX2                !
 ! R10   R(7,8)                  1.4003         estimate D2E/DX2                !
 ! R11   R(7,16)                 1.0881         estimate D2E/DX2                !
 ! R12   R(8,9)                  1.3875         estimate D2E/DX2                !
 ! R13   R(8,17)                 1.0866         estimate D2E/DX2                !
 ! R14   R(9,10)                 1.5047         estimate D2E/DX2                !
 ! R15   R(10,11)                1.5483         estimate D2E/DX2                !
 ! R16   R(10,18)                1.0947         estimate D2E/DX2                !
 ! R17   R(10,19)                1.0948         estimate D2E/DX2                !
 ! R18   R(11,12)                1.5598         estimate D2E/DX2                !
 ! R19   R(11,14)                1.5597         estimate D2E/DX2                !
 ! R20   R(12,13)                1.5394         estimate D2E/DX2                !
 ! R21   R(12,20)                1.0934         estimate D2E/DX2                !
 ! R22   R(12,21)                1.0968         estimate D2E/DX2                !
 ! R23   R(13,14)                1.5394         estimate D2E/DX2                !
 ! R24   R(13,22)                1.0929         estimate D2E/DX2                !
 ! R25   R(13,23)                1.096          estimate D2E/DX2                !
 ! R26   R(14,24)                1.0934         estimate D2E/DX2                !
 ! R27   R(14,25)                1.0967         estimate D2E/DX2                !
 ! A1    A(1,2,3)              121.9613         estimate D2E/DX2                !
 ! A2    A(1,2,11)             130.7613         estimate D2E/DX2                !
 ! A3    A(3,2,11)             107.2773         estimate D2E/DX2                !
 ! A4    A(2,3,4)              127.7507         estimate D2E/DX2                !
 ! A5    A(2,3,9)              109.132          estimate D2E/DX2                !
 ! A6    A(4,3,9)              123.1173         estimate D2E/DX2                !
 ! A7    A(3,4,5)              117.0773         estimate D2E/DX2                !
 ! A8    A(3,4,15)             120.6633         estimate D2E/DX2                !
 ! A9    A(5,4,15)             122.2594         estimate D2E/DX2                !
 ! A10   A(4,5,6)              119.5426         estimate D2E/DX2                !
 ! A11   A(4,5,7)              121.0538         estimate D2E/DX2                !
 ! A12   A(6,5,7)              119.4036         estimate D2E/DX2                !
 ! A13   A(5,7,8)              120.5959         estimate D2E/DX2                !
 ! A14   A(5,7,16)             120.1686         estimate D2E/DX2                !
 ! A15   A(8,7,16)             119.2355         estimate D2E/DX2                !
 ! A16   A(7,8,9)              118.6775         estimate D2E/DX2                !
 ! A17   A(7,8,17)             120.2138         estimate D2E/DX2                !
 ! A18   A(9,8,17)             121.1087         estimate D2E/DX2                !
 ! A19   A(3,9,8)              119.4782         estimate D2E/DX2                !
 ! A20   A(3,9,10)             114.3258         estimate D2E/DX2                !
 ! A21   A(8,9,10)             126.196          estimate D2E/DX2                !
 ! A22   A(9,10,11)            103.3423         estimate D2E/DX2                !
 ! A23   A(9,10,18)            109.9572         estimate D2E/DX2                !
 ! A24   A(9,10,19)            109.9541         estimate D2E/DX2                !
 ! A25   A(11,10,18)           111.8251         estimate D2E/DX2                !
 ! A26   A(11,10,19)           111.8199         estimate D2E/DX2                !
 ! A27   A(18,10,19)           109.7747         estimate D2E/DX2                !
 ! A28   A(2,11,10)            105.9226         estimate D2E/DX2                !
 ! A29   A(2,11,12)            116.8306         estimate D2E/DX2                !
 ! A30   A(2,11,14)            116.829          estimate D2E/DX2                !
 ! A31   A(10,11,12)           115.2886         estimate D2E/DX2                !
 ! A32   A(10,11,14)           115.2929         estimate D2E/DX2                !
 ! A33   A(12,11,14)            86.3239         estimate D2E/DX2                !
 ! A34   A(11,12,13)            87.9852         estimate D2E/DX2                !
 ! A35   A(11,12,20)           116.71           estimate D2E/DX2                !
 ! A36   A(11,12,21)           113.9773         estimate D2E/DX2                !
 ! A37   A(13,12,20)           115.354          estimate D2E/DX2                !
 ! A38   A(13,12,21)           113.4538         estimate D2E/DX2                !
 ! A39   A(20,12,21)           108.4078         estimate D2E/DX2                !
 ! A40   A(12,13,14)            87.7527         estimate D2E/DX2                !
 ! A41   A(12,13,22)           115.7823         estimate D2E/DX2                !
 ! A42   A(12,13,23)           113.7373         estimate D2E/DX2                !
 ! A43   A(14,13,22)           115.7781         estimate D2E/DX2                !
 ! A44   A(14,13,23)           113.7319         estimate D2E/DX2                !
 ! A45   A(22,13,23)           108.9457         estimate D2E/DX2                !
 ! A46   A(11,14,13)            87.9856         estimate D2E/DX2                !
 ! A47   A(11,14,24)           116.7059         estimate D2E/DX2                !
 ! A48   A(11,14,25)           113.9807         estimate D2E/DX2                !
 ! A49   A(13,14,24)           115.3544         estimate D2E/DX2                !
 ! A50   A(13,14,25)           113.456          estimate D2E/DX2                !
 ! A51   A(24,14,25)           108.4062         estimate D2E/DX2                !
 ! D1    D(1,2,3,4)              0.0014         estimate D2E/DX2                !
 ! D2    D(1,2,3,9)            179.9963         estimate D2E/DX2                !
 ! D3    D(11,2,3,4)          -179.9954         estimate D2E/DX2                !
 ! D4    D(11,2,3,9)            -0.0005         estimate D2E/DX2                !
 ! D5    D(1,2,11,10)         -179.9948         estimate D2E/DX2                !
 ! D6    D(1,2,11,12)          -50.0453         estimate D2E/DX2                !
 ! D7    D(1,2,11,14)           50.0511         estimate D2E/DX2                !
 ! D8    D(3,2,11,10)            0.0016         estimate D2E/DX2                !
 ! D9    D(3,2,11,12)          129.9512         estimate D2E/DX2                !
 ! D10   D(3,2,11,14)         -129.9524         estimate D2E/DX2                !
 ! D11   D(2,3,4,5)            179.9969         estimate D2E/DX2                !
 ! D12   D(2,3,4,15)            -0.0058         estimate D2E/DX2                !
 ! D13   D(9,3,4,5)              0.0027         estimate D2E/DX2                !
 ! D14   D(9,3,4,15)           180.0            estimate D2E/DX2                !
 ! D15   D(2,3,9,8)           -179.997          estimate D2E/DX2                !
 ! D16   D(2,3,9,10)            -0.0008         estimate D2E/DX2                !
 ! D17   D(4,3,9,8)             -0.0019         estimate D2E/DX2                !
 ! D18   D(4,3,9,10)           179.9943         estimate D2E/DX2                !
 ! D19   D(3,4,5,6)            179.9959         estimate D2E/DX2                !
 ! D20   D(3,4,5,7)              0.0018         estimate D2E/DX2                !
 ! D21   D(15,4,5,6)            -0.0013         estimate D2E/DX2                !
 ! D22   D(15,4,5,7)          -179.9955         estimate D2E/DX2                !
 ! D23   D(4,5,7,8)             -0.0071         estimate D2E/DX2                !
 ! D24   D(4,5,7,16)          -179.9972         estimate D2E/DX2                !
 ! D25   D(6,5,7,8)            179.9988         estimate D2E/DX2                !
 ! D26   D(6,5,7,16)             0.0087         estimate D2E/DX2                !
 ! D27   D(5,7,8,9)              0.0078         estimate D2E/DX2                !
 ! D28   D(5,7,8,17)          -179.9995         estimate D2E/DX2                !
 ! D29   D(16,7,8,9)           179.998          estimate D2E/DX2                !
 ! D30   D(16,7,8,17)           -0.0094         estimate D2E/DX2                !
 ! D31   D(7,8,9,3)             -0.0034         estimate D2E/DX2                !
 ! D32   D(7,8,9,10)          -179.9991         estimate D2E/DX2                !
 ! D33   D(17,8,9,3)          -179.996          estimate D2E/DX2                !
 ! D34   D(17,8,9,10)            0.0083         estimate D2E/DX2                !
 ! D35   D(3,9,10,11)            0.0018         estimate D2E/DX2                !
 ! D36   D(3,9,10,18)         -119.5112         estimate D2E/DX2                !
 ! D37   D(3,9,10,19)          119.5072         estimate D2E/DX2                !
 ! D38   D(8,9,10,11)          179.9977         estimate D2E/DX2                !
 ! D39   D(8,9,10,18)           60.4847         estimate D2E/DX2                !
 ! D40   D(8,9,10,19)          -60.4969         estimate D2E/DX2                !
 ! D41   D(9,10,11,2)           -0.002          estimate D2E/DX2                !
 ! D42   D(9,10,11,12)        -130.8378         estimate D2E/DX2                !
 ! D43   D(9,10,11,14)         130.835          estimate D2E/DX2                !
 ! D44   D(18,10,11,2)         118.2177         estimate D2E/DX2                !
 ! D45   D(18,10,11,12)        -12.6182         estimate D2E/DX2                !
 ! D46   D(18,10,11,14)       -110.9454         estimate D2E/DX2                !
 ! D47   D(19,10,11,2)        -118.2154         estimate D2E/DX2                !
 ! D48   D(19,10,11,12)        110.9488         estimate D2E/DX2                !
 ! D49   D(19,10,11,14)         12.6215         estimate D2E/DX2                !
 ! D50   D(2,11,12,13)         141.7079         estimate D2E/DX2                !
 ! D51   D(2,11,12,20)        -100.7787         estimate D2E/DX2                !
 ! D52   D(2,11,12,21)          26.8593         estimate D2E/DX2                !
 ! D53   D(10,11,12,13)        -92.9125         estimate D2E/DX2                !
 ! D54   D(10,11,12,20)         24.601          estimate D2E/DX2                !
 ! D55   D(10,11,12,21)        152.239          estimate D2E/DX2                !
 ! D56   D(14,11,12,13)         23.3925         estimate D2E/DX2                !
 ! D57   D(14,11,12,20)        140.906          estimate D2E/DX2                !
 ! D58   D(14,11,12,21)        -91.4561         estimate D2E/DX2                !
 ! D59   D(2,11,14,13)        -141.7088         estimate D2E/DX2                !
 ! D60   D(2,11,14,24)         100.7779         estimate D2E/DX2                !
 ! D61   D(2,11,14,25)         -26.8571         estimate D2E/DX2                !
 ! D62   D(10,11,14,13)         92.909          estimate D2E/DX2                !
 ! D63   D(10,11,14,24)        -24.6043         estimate D2E/DX2                !
 ! D64   D(10,11,14,25)       -152.2392         estimate D2E/DX2                !
 ! D65   D(12,11,14,13)        -23.392          estimate D2E/DX2                !
 ! D66   D(12,11,14,24)       -140.9052         estimate D2E/DX2                !
 ! D67   D(12,11,14,25)         91.4598         estimate D2E/DX2                !
 ! D68   D(11,12,13,14)        -23.6874         estimate D2E/DX2                !
 ! D69   D(11,12,13,22)       -141.3575         estimate D2E/DX2                !
 ! D70   D(11,12,13,23)         91.3199         estimate D2E/DX2                !
 ! D71   D(20,12,13,14)       -142.4395         estimate D2E/DX2                !
 ! D72   D(20,12,13,22)         99.8904         estimate D2E/DX2                !
 ! D73   D(20,12,13,23)        -27.4322         estimate D2E/DX2                !
 ! D74   D(21,12,13,14)         91.6522         estimate D2E/DX2                !
 ! D75   D(21,12,13,22)        -26.0179         estimate D2E/DX2                !
 ! D76   D(21,12,13,23)       -153.3405         estimate D2E/DX2                !
 ! D77   D(12,13,14,11)         23.6881         estimate D2E/DX2                !
 ! D78   D(12,13,14,24)        142.4359         estimate D2E/DX2                !
 ! D79   D(12,13,14,25)        -91.6558         estimate D2E/DX2                !
 ! D80   D(22,13,14,11)        141.3621         estimate D2E/DX2                !
 ! D81   D(22,13,14,24)        -99.8901         estimate D2E/DX2                !
 ! D82   D(22,13,14,25)         26.0181         estimate D2E/DX2                !
 ! D83   D(23,13,14,11)        -91.3242         estimate D2E/DX2                !
 ! D84   D(23,13,14,24)         27.4236         estimate D2E/DX2                !
 ! D85   D(23,13,14,25)        153.3318         estimate D2E/DX2                !
 --------------------------------------------------------------------------------
 Trust Radius=3.00D-01 FncErr=1.00D-07 GrdErr=1.00D-06 EigMax=2.50D+02 EigMin=1.00D-04
 Number of steps in this run=    150 maximum allowed number of steps=    150.
 GradGradGradGradGradGradGradGradGradGradGradGradGradGradGradGradGradGrad

                          Input orientation:                          
 ---------------------------------------------------------------------
 Center     Atomic      Atomic             Coordinates (Angstroms)
 Number     Number       Type             X           Y           Z
 ---------------------------------------------------------------------
      1          8           0       -0.335900   -2.536900   -0.452700
      2          6           0       -0.156300   -1.340600   -0.287200
      3          6           0        1.178800   -0.777900   -0.096700
      4          6           0        2.386700   -1.452300   -0.072100
      5          6           0        3.534300   -0.689700    0.126400
      6         35           0        5.222900   -1.540400    0.172400
      7          6           0        3.458900    0.703400    0.293500
      8          6           0        2.221800    1.358900    0.263800
      9          6           0        1.073600    0.605400    0.066400
     10          6           0       -0.334800    1.131400    0.005100
     11          6           0       -1.182200   -0.142900   -0.230200
     12          6           0       -2.219300   -0.048400   -1.391400
     13          6           0       -3.262900    0.395600   -0.350500
     14          6           0       -2.409300   -0.311600    0.717700
     15          1           0        2.422200   -2.528800   -0.203200
     16          1           0        4.365200    1.285500    0.447700
     17          1           0        2.170700    2.436500    0.393700
     18          1           0       -0.432200    1.843200   -0.820900
     19          1           0       -0.591700    1.622300    0.949300
     20          1           0       -2.007800    0.677400   -2.181400
     21          1           0       -2.452800   -1.012200   -1.860000
     22          1           0       -4.272100    0.000300   -0.490700
     23          1           0       -3.321300    1.482200   -0.220100
     24          1           0       -2.356100    0.194900    1.685300
     25          1           0       -2.700400   -1.355100    0.888600
 ---------------------------------------------------------------------
                    Distance matrix (angstroms):
                    1          2          3          4          5
     1  O    0.000000
     2  C    1.220975   0.000000
     3  C    2.348432   1.461305   0.000000
     4  C    2.955294   2.554524   1.383634   0.000000
     5  C    4.327349   3.770314   2.367685   1.392102   0.000000
     6  Br   5.681903   5.402494   4.124144   2.848082   1.891342
     7  C    5.045480   4.193426   2.746882   2.435225   1.405110
     8  C    4.715131   3.639541   2.404937   2.835995   2.436862
     9  C    3.482844   2.329078   1.396849   2.444901   2.781354
    10  C    3.696756   2.495613   2.438601   3.753402   4.277973
    11  C    2.548915   1.578038   2.448544   3.804809   4.761463
    12  C    3.258985   2.673015   3.708841   4.992667   5.984889
    13  C    4.144554   3.559405   4.601110   5.950649   6.899800
    14  C    3.258954   2.672952   3.708793   4.992654   5.984896
    15  H    2.769374   2.840341   2.150125   1.085034   2.174326
    16  H    6.125504   5.280193   3.834988   3.417631   2.166805
    17  H    5.633307   4.488322   3.399518   3.922549   3.421108
    18  H    4.396603   3.239991   3.160689   4.400820   4.800633
    19  H    4.396588   3.239951   3.160656   4.400828   4.800665
    20  H    4.014396   3.329920   4.076554   5.319436   6.157091
    21  H    2.964198   2.802759   4.043840   5.177937   6.316261
    22  H    4.683215   4.333501   5.520248   6.828242   7.861094
    23  H    5.011974   4.241453   5.037279   6.419849   7.199754
    24  H    4.014347   3.329810   4.076442   5.319387   6.157069
    25  H    2.964219   2.802706   4.043781   5.177932   6.316264
                    6          7          8          9         10
     6  Br   0.000000
     7  C    2.856746   0.000000
     8  C    4.173835   1.400350   0.000000
     9  C    4.672514   2.398090   1.387477   0.000000
    10  C    6.168836   3.828644   2.579706   1.504667   0.000000
    11  C    6.568135   4.746609   3.753219   2.395111   1.548320
    12  C    7.749702   5.970431   4.944042   3.660031   2.625544
    13  C    8.719537   6.759591   5.602432   4.361543   3.040004
    14  C    7.749695   5.970422   4.944055   3.660010   2.625566
    15  H    2.993648   3.430536   3.920773   3.422662   4.587102
    16  H    2.965999   1.088117   2.152526   3.382685   4.723308
    17  H    5.018031   2.161743   1.086603   2.159556   2.851636
    18  H    6.664499   4.204960   2.907720   2.141701   1.094725
    19  H    6.664519   4.204975   2.907761   2.141687   1.094758
    20  H    7.920987   6.000885   4.932845   3.814815   2.790310
    21  H    7.957764   6.521429   5.655486   4.331644   3.543945
    22  H    9.642017   7.802415   6.677260   5.408606   4.126444
    23  H    9.071578   6.844080   5.565548   4.490658   3.015453
    24  H    7.920945   6.000825   4.932821   3.814733   2.790297
    25  H    7.957761   6.521391   5.655460   4.331587   3.543913
                   11         12         13         14         15
    11  C    0.000000
    12  C    1.559773   0.000000
    13  C    2.152619   1.539386   0.000000
    14  C    1.559727   2.133935   1.539421   0.000000
    15  H    4.322609   5.395158   6.394855   5.395130   0.000000
    16  H    5.768321   6.965430   7.721202   6.965449   4.329873
    17  H    4.276037   5.351020   5.851762   5.351021   5.007369
    18  H    2.203638   2.664085   3.213983   3.304448   5.257712
    19  H    2.203597   3.304421   3.213967   2.664072   5.257707
    20  H    2.271935   1.093443   2.237606   3.089353   5.815315
    21  H    2.241953   1.096822   2.217375   2.671567   5.367559
    22  H    3.104166   2.242235   1.092887   2.242217   7.161889
    23  H    2.686410   2.220154   1.095954   2.220120   7.005441
    24  H    2.271847   3.089335   2.237643   1.093445   5.815249
    25  H    2.241891   2.671577   2.217369   1.096740   5.367553
                   16         17         18         19         20
    16  H    0.000000
    17  H    2.478618   0.000000
    18  H    4.993538   2.932976   0.000000
    19  H    4.993585   2.932996   1.791046   0.000000
    20  H    6.920772   5.213965   2.385910   3.563630   0.000000
    21  H    7.555794   6.192693   3.649091   4.277435   1.776533
    22  H    8.782670   6.944559   4.272019   4.271982   2.905854
    23  H    7.717962   5.607986   2.972908   2.972851   2.493929
    24  H    6.920761   5.213916   3.563611   2.385849   3.912223
    25  H    7.555784   6.192639   4.277411   3.649001   3.746418
                   21         22         23         24         25
    21  H    0.000000
    22  H    2.491985   0.000000
    23  H    3.108954   1.781368   0.000000
    24  H    3.746411   2.905839   2.493853   0.000000
    25  H    2.780951   2.491951   3.108859   1.776450   0.000000
 Stoichiometry    C12H11BrO
 Framework group  C1[X(C12H11BrO)]
 Deg. of freedom    69
 Full point group                 C1      NOp   1
 Largest Abelian subgroup         C1      NOp   1
 Largest concise Abelian subgroup C1      NOp   1
                         Standard orientation:                         
 ---------------------------------------------------------------------
 Center     Atomic      Atomic             Coordinates (Angstroms)
 Number     Number       Type             X           Y           Z
 ---------------------------------------------------------------------
      1          8           0        1.559868   -2.273707    0.000011
      2          6           0        1.575575   -1.052833   -0.000042
      3          6           0        0.345849   -0.263411   -0.000061
      4          6           0       -0.958011   -0.726435    0.000004
      5          6           0       -1.969947    0.229563    0.000036
      6         35           0       -3.777819   -0.326113    0.000007
      7          6           0       -1.670184    1.602326   -0.000033
      8          6           0       -0.340487    2.041512    0.000012
      9          6           0        0.673512    1.094464   -0.000038
     10          6           0        2.151727    1.375363    0.000017
     11          6           0        2.783993   -0.037978   -0.000019
     12          6           0        3.897873   -0.269640    1.066985
     13          6           0        4.929268    0.139689    0.000034
     14          6           0        3.897870   -0.269679   -1.066950
     15          1           0       -1.167135   -1.791126   -0.000017
     16          1           0       -2.472600    2.337259    0.000040
     17          1           0       -0.115758    3.104622   -0.000034
     18          1           0        2.424151    1.943070    0.895515
     19          1           0        2.424179    1.943040   -0.895531
     20          1           0        3.866563    0.366015    1.956131
     21          1           0        3.995105   -1.313149    1.390485
     22          1           0        5.863669   -0.427143   -0.000002
     23          1           0        5.162670    1.210500   -0.000047
     24          1           0        3.866529    0.365983   -1.956092
     25          1           0        3.995109   -1.313097   -1.390466
 ---------------------------------------------------------------------
 Rotational constants (GHZ):           1.6639585           0.2228426           0.2029228
 Standard basis: MIDIx (5D, 7F)
 There are   174 symmetry adapted cartesian basis functions of A   symmetry.
 There are   171 symmetry adapted basis functions of A   symmetry.
   171 basis functions,   297 primitive gaussians,   174 cartesian basis functions
    63 alpha electrons       63 beta electrons
       nuclear repulsion energy      1111.8505119053 Hartrees.
 NAtoms=   25 NActive=   25 NUniq=   25 SFac= 1.00D+00 NAtFMM=   60 NAOKFM=F Big=F
 Integral buffers will be    131072 words long.
 Raffenetti 2 integral format.
 Two-electron integral symmetry is turned on.
 Nuclear repulsion after empirical dispersion term =     1111.8323334214 Hartrees.
 One-electron integrals computed using PRISM.
 NBasis=   171 RedAO= T EigKep=  1.14D-03  NBF=   171
 NBsUse=   171 1.00D-06 EigRej= -1.00D+00 NBFU=   171
 ExpMin= 1.47D-01 ExpMax= 6.10D+03 ExpMxC= 6.10D+03 IAcc=3 IRadAn=         5 AccDes= 0.00D+00
 Harris functional with IExCor= 4639 and IRadAn=       5 diagonalized for initial guess.
 HarFok:  IExCor= 4639 AccDes= 0.00D+00 IRadAn=         5 IDoV= 1 UseB2=F ITyADJ=14
 ICtDFT=  3500011 ScaDFX=  1.000000  1.000000  1.000000  1.000000
 FoFCou: FMM=F IPFlag=           0 FMFlag=      100000 FMFlg1=           0
         NFxFlg=           0 DoJE=T BraDBF=F KetDBF=T FulRan=T
         wScrn=  0.000000 ICntrl=       500 IOpCl=  0 I1Cent=   200000004 NGrid=           0
         NMat0=    1 NMatS0=      1 NMatT0=    0 NMatD0=    1 NMtDS0=    0 NMtDT0=    0
 Petite list used in FoFCou.
 Requested convergence on RMS density matrix=1.00D-08 within 128 cycles.
 Requested convergence on MAX density matrix=1.00D-06.
 Requested convergence on             energy=1.00D-06.
 No special actions if energy rises.
 Integral accuracy reduced to 1.0D-05 until final iterations.
 Initial convergence to 1.0D-05 achieved.  Increase integral accuracy.
 SCF Done:  E(RwB97XD) =  -3097.83143969     A.U. after   16 cycles
            NFock= 16  Conv=0.47D-08     -V/T= 2.0026

 **********************************************************************

            Population analysis using the SCF Density.

 **********************************************************************

 Orbital symmetries:
       Occupied  (A) (A) (A) (A) (A) (A) (A) (A) (A) (A) (A) (A)
                 (A) (A) (A) (A) (A) (A) (A) (A) (A) (A) (A) (A)
                 (A) (A) (A) (A) (A) (A) (A) (A) (A) (A) (A) (A)
                 (A) (A) (A) (A) (A) (A) (A) (A) (A) (A) (A) (A)
                 (A) (A) (A) (A) (A) (A) (A) (A) (A) (A) (A) (A)
                 (A) (A) (A)
       Virtual   (A) (A) (A) (A) (A) (A) (A) (A) (A) (A) (A) (A)
                 (A) (A) (A) (A) (A) (A) (A) (A) (A) (A) (A) (A)
                 (A) (A) (A) (A) (A) (A) (A) (A) (A) (A) (A) (A)
                 (A) (A) (A) (A) (A) (A) (A) (A) (A) (A) (A) (A)
                 (A) (A) (A) (A) (A) (A) (A) (A) (A) (A) (A) (A)
                 (A) (A) (A) (A) (A) (A) (A) (A) (A) (A) (A) (A)
                 (A) (A) (A) (A) (A) (A) (A) (A) (A) (A) (A) (A)
                 (A) (A) (A) (A) (A) (A) (A) (A) (A) (A) (A) (A)
                 (A) (A) (A) (A) (A) (A) (A) (A) (A) (A) (A) (A)
 The electronic state is 1-A.
 Alpha  occ. eigenvalues -- -480.14964 -62.58360 -56.17259 -56.16830 -56.16818
 Alpha  occ. eigenvalues --  -19.14336 -10.32184 -10.30255 -10.26395 -10.26379
 Alpha  occ. eigenvalues --  -10.26369 -10.26100 -10.25642 -10.25385 -10.24832
 Alpha  occ. eigenvalues --  -10.23975 -10.23940 -10.23416  -8.89212  -6.67702
 Alpha  occ. eigenvalues --   -6.66264  -6.66246  -2.78011  -2.77507  -2.77493
 Alpha  occ. eigenvalues --   -2.76305  -2.76301  -1.14296  -1.01001  -0.98208
 Alpha  occ. eigenvalues --   -0.93569  -0.88786  -0.87142  -0.80361  -0.78666
 Alpha  occ. eigenvalues --   -0.76993  -0.73102  -0.69784  -0.66247  -0.63199
 Alpha  occ. eigenvalues --   -0.59171  -0.58614  -0.57761  -0.55691  -0.55345
 Alpha  occ. eigenvalues --   -0.54209  -0.52610  -0.49971  -0.49787  -0.47996
 Alpha  occ. eigenvalues --   -0.47671  -0.46549  -0.45913  -0.43993  -0.42928
 Alpha  occ. eigenvalues --   -0.42333  -0.39905  -0.39756  -0.38649  -0.36580
 Alpha  occ. eigenvalues --   -0.34643  -0.31732  -0.31583
 Alpha virt. eigenvalues --    0.01033   0.05059   0.08967   0.11804   0.15729
 Alpha virt. eigenvalues --    0.17754   0.19463   0.19710   0.21450   0.23111
 Alpha virt. eigenvalues --    0.23179   0.24443   0.25491   0.26434   0.26611
 Alpha virt. eigenvalues --    0.28706   0.29003   0.29408   0.29926   0.33079
 Alpha virt. eigenvalues --    0.34517   0.35337   0.36421   0.38382   0.40259
 Alpha virt. eigenvalues --    0.43803   0.46531   0.48704   0.49835   0.54588
 Alpha virt. eigenvalues --    0.55656   0.58972   0.59151   0.60761   0.64053
 Alpha virt. eigenvalues --    0.64260   0.64558   0.65939   0.67458   0.69116
 Alpha virt. eigenvalues --    0.71574   0.71703   0.74080   0.76287   0.76714
 Alpha virt. eigenvalues --    0.77300   0.79075   0.79836   0.83572   0.84122
 Alpha virt. eigenvalues --    0.84969   0.85116   0.86603   0.88785   0.89458
 Alpha virt. eigenvalues --    0.91401   0.92658   0.94220   0.95939   0.96075
 Alpha virt. eigenvalues --    0.96797   0.97089   0.97122   0.99770   1.00537
 Alpha virt. eigenvalues --    1.00697   1.01399   1.02709   1.03269   1.03988
 Alpha virt. eigenvalues --    1.04318   1.05601   1.06158   1.06720   1.08566
 Alpha virt. eigenvalues --    1.09376   1.11543   1.12338   1.12828   1.15788
 Alpha virt. eigenvalues --    1.17631   1.21925   1.22581   1.25363   1.29676
 Alpha virt. eigenvalues --    1.29994   1.31621   1.35459   1.37942   1.40388
 Alpha virt. eigenvalues --    1.43039   1.46181   1.57712   1.61934   1.63369
 Alpha virt. eigenvalues --    1.66866   1.67527   1.71969   1.79103   1.80823
 Alpha virt. eigenvalues --    1.89647   1.91889   1.95601   1.99188   2.03123
 Alpha virt. eigenvalues --    2.18139   2.37066   3.08059
          Condensed to atoms (all electrons):
               1          2          3          4          5          6
     1  O    8.143049   0.553491  -0.103426  -0.006100   0.000379   0.000000
     2  C    0.553491   4.461589   0.247267  -0.001410   0.002373  -0.000019
     3  C   -0.103426   0.247267   5.499863   0.431675  -0.019689   0.002611
     4  C   -0.006100  -0.001410   0.431675   4.929241   0.449893  -0.042551
     5  C    0.000379   0.002373  -0.019689   0.449893   5.079791   0.212842
     6  Br   0.000000  -0.000019   0.002611  -0.042551   0.212842  34.926116
     7  C   -0.000012   0.000380  -0.040235  -0.032486   0.461420  -0.039886
     8  C   -0.000004   0.000924  -0.028867  -0.022016  -0.026922   0.001738
     9  C    0.002661  -0.018007   0.399431  -0.018673  -0.047150   0.000402
    10  C    0.001745  -0.045691  -0.007998  -0.000067   0.000513   0.000002
    11  C   -0.052790   0.241245  -0.201401   0.000362   0.000237   0.000000
    12  C   -0.000128  -0.029432   0.004343   0.000001   0.000000  -0.000000
    13  C   -0.000181   0.016941  -0.001117  -0.000002   0.000000   0.000000
    14  C   -0.000127  -0.029438   0.004344   0.000001   0.000000  -0.000000
    15  H    0.009391  -0.001706  -0.018257   0.371983  -0.012022   0.000909
    16  H    0.000000   0.000002   0.000068   0.002382  -0.021355   0.000982
    17  H    0.000000  -0.000058   0.002764  -0.000129   0.002644  -0.000049
    18  H   -0.000017   0.001799  -0.000162  -0.000038   0.000008  -0.000000
    19  H   -0.000017   0.001800  -0.000161  -0.000039   0.000008  -0.000000
    20  H    0.000009   0.001016  -0.000077  -0.000001   0.000000   0.000000
    21  H    0.003963  -0.002211   0.001326   0.000014  -0.000000  -0.000000
    22  H    0.000007  -0.000434   0.000013   0.000000  -0.000000  -0.000000
    23  H   -0.000002  -0.000380   0.000031   0.000000   0.000000  -0.000000
    24  H    0.000009   0.001016  -0.000077  -0.000001   0.000000   0.000000
    25  H    0.003962  -0.002211   0.001326   0.000014  -0.000000  -0.000000
               7          8          9         10         11         12
     1  O   -0.000012  -0.000004   0.002661   0.001745  -0.052790  -0.000128
     2  C    0.000380   0.000924  -0.018007  -0.045691   0.241245  -0.029432
     3  C   -0.040235  -0.028867   0.399431  -0.007998  -0.201401   0.004343
     4  C   -0.032486  -0.022016  -0.018673  -0.000067   0.000362   0.000001
     5  C    0.461420  -0.026922  -0.047150   0.000513   0.000237   0.000000
     6  Br  -0.039886   0.001738   0.000402   0.000002   0.000000  -0.000000
     7  C    4.961767   0.497568  -0.030984   0.000674  -0.000321   0.000002
     8  C    0.497568   4.891136   0.467642  -0.004592   0.002940  -0.000027
     9  C   -0.030984   0.467642   5.145207   0.293136  -0.060266   0.003252
    10  C    0.000674  -0.004592   0.293136   5.161040   0.211420  -0.043554
    11  C   -0.000321   0.002940  -0.060266   0.211420   6.134777   0.236741
    12  C    0.000002  -0.000027   0.003252  -0.043554   0.236741   5.323466
    13  C   -0.000000   0.000008  -0.000173   0.009372  -0.266460   0.317615
    14  C    0.000002  -0.000027   0.003251  -0.043537   0.236700  -0.246251
    15  H    0.001666   0.000012   0.002908  -0.000138   0.000674  -0.000004
    16  H    0.392840  -0.019497   0.003033  -0.000029   0.000002  -0.000000
    17  H   -0.020929   0.398176  -0.022863  -0.004474   0.000175  -0.000003
    18  H    0.000052  -0.005009  -0.026977   0.385568  -0.026609  -0.004204
    19  H    0.000052  -0.005010  -0.026982   0.385564  -0.026620   0.002911
    20  H   -0.000000  -0.000014   0.000384  -0.007346  -0.020546   0.372994
    21  H    0.000000   0.000001  -0.000373   0.004149  -0.037895   0.389674
    22  H    0.000000  -0.000000   0.000001  -0.000439   0.016157  -0.029299
    23  H   -0.000000  -0.000001   0.000021   0.002365   0.002780  -0.030279
    24  H   -0.000000  -0.000014   0.000385  -0.007350  -0.020549   0.013521
    25  H    0.000000   0.000001  -0.000373   0.004149  -0.037888   0.007759
              13         14         15         16         17         18
     1  O   -0.000181  -0.000127   0.009391   0.000000   0.000000  -0.000017
     2  C    0.016941  -0.029438  -0.001706   0.000002  -0.000058   0.001799
     3  C   -0.001117   0.004344  -0.018257   0.000068   0.002764  -0.000162
     4  C   -0.000002   0.000001   0.371983   0.002382  -0.000129  -0.000038
     5  C    0.000000   0.000000  -0.012022  -0.021355   0.002644   0.000008
     6  Br   0.000000  -0.000000   0.000909   0.000982  -0.000049  -0.000000
     7  C   -0.000000   0.000002   0.001666   0.392840  -0.020929   0.000052
     8  C    0.000008  -0.000027   0.000012  -0.019497   0.398176  -0.005009
     9  C   -0.000173   0.003251   0.002908   0.003033  -0.022863  -0.026977
    10  C    0.009372  -0.043537  -0.000138  -0.000029  -0.004474   0.385568
    11  C   -0.266460   0.236700   0.000674   0.000002   0.000175  -0.026609
    12  C    0.317615  -0.246251  -0.000004  -0.000000  -0.000003  -0.004204
    13  C    5.338829   0.317657   0.000000   0.000000   0.000000  -0.000379
    14  C    0.317657   5.323441  -0.000004  -0.000000  -0.000003   0.002910
    15  H    0.000000  -0.000004   0.415166  -0.000043   0.000008   0.000004
    16  H    0.000000  -0.000000  -0.000043   0.429879  -0.003679  -0.000000
    17  H    0.000000  -0.000003   0.000008  -0.003679   0.446253   0.001080
    18  H   -0.000379   0.002910   0.000004  -0.000000   0.001080   0.472828
    19  H   -0.000379  -0.004204   0.000004  -0.000000   0.001080  -0.021803
    20  H   -0.029512   0.013520   0.000000  -0.000000   0.000001   0.004861
    21  H   -0.033668   0.007761  -0.000004   0.000000  -0.000000   0.000020
    22  H    0.382579  -0.029307  -0.000000  -0.000000  -0.000000   0.000009
    23  H    0.390321  -0.030286  -0.000000  -0.000000   0.000000  -0.000001
    24  H   -0.029511   0.372994   0.000000  -0.000000   0.000001   0.000001
    25  H   -0.033663   0.389683  -0.000004   0.000000  -0.000000  -0.000128
              19         20         21         22         23         24
     1  O   -0.000017   0.000009   0.003963   0.000007  -0.000002   0.000009
     2  C    0.001800   0.001016  -0.002211  -0.000434  -0.000380   0.001016
     3  C   -0.000161  -0.000077   0.001326   0.000013   0.000031  -0.000077
     4  C   -0.000039  -0.000001   0.000014   0.000000   0.000000  -0.000001
     5  C    0.000008   0.000000  -0.000000  -0.000000   0.000000   0.000000
     6  Br  -0.000000   0.000000  -0.000000  -0.000000  -0.000000   0.000000
     7  C    0.000052  -0.000000   0.000000   0.000000  -0.000000  -0.000000
     8  C   -0.005010  -0.000014   0.000001  -0.000000  -0.000001  -0.000014
     9  C   -0.026982   0.000384  -0.000373   0.000001   0.000021   0.000385
    10  C    0.385564  -0.007346   0.004149  -0.000439   0.002365  -0.007350
    11  C   -0.026620  -0.020546  -0.037895   0.016157   0.002780  -0.020549
    12  C    0.002911   0.372994   0.389674  -0.029299  -0.030279   0.013521
    13  C   -0.000379  -0.029512  -0.033668   0.382579   0.390321  -0.029511
    14  C   -0.004204   0.013520   0.007761  -0.029307  -0.030286   0.372994
    15  H    0.000004   0.000000  -0.000004  -0.000000  -0.000000   0.000000
    16  H   -0.000000  -0.000000   0.000000  -0.000000  -0.000000  -0.000000
    17  H    0.001080   0.000001  -0.000000  -0.000000   0.000000   0.000001
    18  H   -0.021803   0.004861   0.000020   0.000009  -0.000001   0.000001
    19  H    0.472850   0.000001  -0.000128   0.000009  -0.000001   0.004863
    20  H    0.000001   0.502887  -0.022430   0.001403  -0.005285  -0.000520
    21  H   -0.000128  -0.022430   0.471128  -0.004161   0.002871  -0.000372
    22  H    0.000009   0.001403  -0.004161   0.494195  -0.023008   0.001403
    23  H   -0.000001  -0.005285   0.002871  -0.023008   0.491790  -0.005285
    24  H    0.004863  -0.000520  -0.000372   0.001403  -0.005285   0.502898
    25  H    0.000020  -0.000372   0.001826  -0.004161   0.002871  -0.022433
              25
     1  O    0.003962
     2  C   -0.002211
     3  C    0.001326
     4  C    0.000014
     5  C   -0.000000
     6  Br  -0.000000
     7  C    0.000000
     8  C    0.000001
     9  C   -0.000373
    10  C    0.004149
    11  C   -0.037888
    12  C    0.007759
    13  C   -0.033663
    14  C    0.389683
    15  H   -0.000004
    16  H    0.000000
    17  H   -0.000000
    18  H   -0.000128
    19  H    0.000020
    20  H   -0.000372
    21  H    0.001826
    22  H   -0.004161
    23  H    0.002871
    24  H   -0.022433
    25  H    0.471109
 Mulliken charges:
               1
     1  O   -0.555864
     2  C    0.601156
     3  C   -0.173596
     4  C   -0.062053
     5  C   -0.082968
     6  Br  -0.063099
     7  C   -0.151569
     8  C   -0.148143
     9  C   -0.068892
    10  C   -0.294482
    11  C   -0.332864
    12  C   -0.289099
    13  C   -0.378276
    14  C   -0.289079
    15  H    0.229459
    16  H    0.215414
    17  H    0.200004
    18  H    0.216189
    19  H    0.216184
    20  H    0.189027
    21  H    0.218511
    22  H    0.195033
    23  H    0.201475
    24  H    0.189020
    25  H    0.218514
 Sum of Mulliken charges =  -0.00000
 Mulliken charges with hydrogens summed into heavy atoms:
               1
     1  O   -0.555864
     2  C    0.601156
     3  C   -0.173596
     4  C    0.167406
     5  C   -0.082968
     6  Br  -0.063099
     7  C    0.063845
     8  C    0.051860
     9  C   -0.068892
    10  C    0.137890
    11  C   -0.332864
    12  C    0.118440
    13  C    0.018232
    14  C    0.118454
 Electronic spatial extent (au):  <R**2>=           4854.6373
 Charge=              0.0000 electrons
 Dipole moment (field-independent basis, Debye):
    X=              1.6170    Y=              3.1951    Z=             -0.0001  Tot=              3.5810
 Quadrupole moment (field-independent basis, Debye-Ang):
   XX=            -89.5202   YY=            -92.8733   ZZ=            -95.3317
   XY=              3.4905   XZ=             -0.0003   YZ=              0.0004
 Traceless Quadrupole moment (field-independent basis, Debye-Ang):
   XX=              3.0549   YY=             -0.2982   ZZ=             -2.7567
   XY=              3.4905   XZ=             -0.0003   YZ=              0.0004
 Octapole moment (field-independent basis, Debye-Ang**2):
  XXX=           -101.7020  YYY=              8.7866  ZZZ=              0.0003  XYY=            -49.4612
  XXY=             -2.8006  XXZ=             -0.0012  XZZ=            -32.5823  YZZ=             -8.8209
  YYZ=             -0.0000  XYZ=              0.0003
 Hexadecapole moment (field-independent basis, Debye-Ang**3):
 XXXX=          -4600.8826 YYYY=           -740.9662 ZZZZ=           -221.4197 XXXY=             26.1368
 XXXZ=             -0.0066 YYYX=             48.4806 YYYZ=              0.0008 ZZZX=             -0.0012
 ZZZY=              0.0012 XXYY=           -888.2918 XXZZ=           -832.1069 YYZZ=           -162.7524
 XXYZ=              0.0031 YYXZ=             -0.0012 ZZXY=             12.3048
 N-N= 1.111832333421D+03 E-N=-9.590481308366D+03  KE= 3.089776659560D+03
 Calling FoFJK, ICntrl=      2127 FMM=F ISym2X=0 I1Cent= 0 IOpClX= 0 NMat=1 NMatS=1 NMatT=0.
 ***** Axes restored to original set *****
 -------------------------------------------------------------------
 Center     Atomic                   Forces (Hartrees/Bohr)
 Number     Number              X              Y              Z
 -------------------------------------------------------------------
      1        8          -0.018271631    0.007750873   -0.000675709
      2        6          -0.002120334   -0.007202313   -0.001098216
      3        6          -0.002943316    0.024608791    0.002800368
      4        6           0.003924624    0.007501561    0.001294694
      5        6          -0.003768364    0.005685725    0.000382407
      6       35           0.002385672   -0.000707322    0.000124433
      7        6          -0.004832062   -0.001065429   -0.000589563
      8        6           0.007339730   -0.008221115   -0.000347860
      9        6           0.017840658    0.000488350    0.001658024
     10        6          -0.000835724   -0.014778586   -0.001885333
     11        6           0.008563280   -0.027142865   -0.002636517
     12        6           0.006091589    0.013169200   -0.017835316
     13        6          -0.022836441   -0.008864131   -0.003140083
     14        6           0.002568682    0.008348549    0.021293967
     15        1          -0.000839570   -0.000621233   -0.000155287
     16        1           0.000026678   -0.002771974   -0.000338083
     17        1           0.000727034    0.000712380    0.000150110
     18        1          -0.002657235    0.002904129    0.000069894
     19        1          -0.002661348    0.002888882    0.000155556
     20        1           0.004067231   -0.000177352   -0.002486213
     21        1           0.001938259   -0.001976930    0.005451831
     22        1          -0.002937969    0.001691886   -0.000058252
     23        1           0.002770256   -0.000674473    0.000159652
     24        1           0.003562844   -0.000864755    0.003043353
     25        1           0.002897458   -0.000681847   -0.005337857
 -------------------------------------------------------------------
 Cartesian Forces:  Max     0.027142865 RMS     0.007794640

 GradGradGradGradGradGradGradGradGradGradGradGradGradGradGradGradGradGrad
 Berny optimization.
 FormGI is forming the generalized inverse of G from B-inverse, IUseBI=4.
 Internal  Forces:  Max     0.023751599 RMS     0.004503170
 Search for a local minimum.
 Step number   1 out of a maximum of  150
 All quantities printed in internal units (Hartrees-Bohrs-Radians)
 Mixed Optimization -- RFO/linear search
 Second derivative matrix not updated -- first step.
 ITU=  0
     Eigenvalues ---    0.00349   0.00374   0.00586   0.01396   0.01490
     Eigenvalues ---    0.01910   0.02051   0.02095   0.02114   0.02176
     Eigenvalues ---    0.02220   0.02250   0.02344   0.02536   0.03128
     Eigenvalues ---    0.03367   0.04264   0.04616   0.04638   0.04648
     Eigenvalues ---    0.05402   0.05671   0.05872   0.06325   0.06423
     Eigenvalues ---    0.07087   0.07960   0.07967   0.08220   0.08513
     Eigenvalues ---    0.10009   0.10479   0.16000   0.16000   0.16000
     Eigenvalues ---    0.18680   0.20087   0.22459   0.23525   0.24156
     Eigenvalues ---    0.24507   0.24785   0.24863   0.25000   0.25000
     Eigenvalues ---    0.25325   0.26619   0.27205   0.27824   0.31128
     Eigenvalues ---    0.34036   0.34045   0.34134   0.34269   0.34272
     Eigenvalues ---    0.34418   0.34418   0.34481   0.35031   0.35208
     Eigenvalues ---    0.35393   0.35657   0.40067   0.42754   0.44372
     Eigenvalues ---    0.45929   0.47389   0.47844   0.94953
 RFO step:  Lambda=-1.55322815D-02 EMin= 3.49147646D-03
 Linear search not attempted -- first point.
 Iteration  1 RMS(Cart)=  0.05117355 RMS(Int)=  0.00152162
 Iteration  2 RMS(Cart)=  0.00182695 RMS(Int)=  0.00038564
 Iteration  3 RMS(Cart)=  0.00000175 RMS(Int)=  0.00038563
 Iteration  4 RMS(Cart)=  0.00000000 RMS(Int)=  0.00038563
 Variable       Old X    -DE/DX   Delta X   Delta X   Delta X     New X
                                 (Linear)    (Quad)   (Total)
    R1        2.30731  -0.00481   0.00000  -0.00499  -0.00499   2.30232
    R2        2.76147   0.01605   0.00000   0.04335   0.04331   2.80478
    R3        2.98206  -0.02165   0.00000  -0.07727  -0.07730   2.90477
    R4        2.61469  -0.00000   0.00000   0.00006   0.00007   2.61476
    R5        2.63966  -0.00988   0.00000  -0.02159  -0.02156   2.61810
    R6        2.63069  -0.00341   0.00000  -0.00703  -0.00705   2.62364
    R7        2.05042   0.00061   0.00000   0.00164   0.00164   2.05206
    R8        3.57412   0.00245   0.00000   0.01211   0.01211   3.58623
    R9        2.65527  -0.00894   0.00000  -0.01935  -0.01939   2.63589
   R10        2.64628  -0.00656   0.00000  -0.01398  -0.01400   2.63228
   R11        2.05624  -0.00151   0.00000  -0.00412  -0.00412   2.05212
   R12        2.62195   0.00141   0.00000   0.00285   0.00287   2.62482
   R13        2.05338   0.00069   0.00000   0.00188   0.00188   2.05526
   R14        2.84341   0.00741   0.00000   0.01951   0.01954   2.86295
   R15        2.92590   0.00093   0.00000   0.00276   0.00279   2.92869
   R16        2.06873   0.00207   0.00000   0.00578   0.00578   2.07451
   R17        2.06879   0.00205   0.00000   0.00573   0.00573   2.07453
   R18        2.94754   0.00485   0.00000   0.01384   0.01337   2.96092
   R19        2.94746   0.00487   0.00000   0.01390   0.01344   2.96089
   R20        2.90902   0.01313   0.00000   0.04667   0.04713   2.95615
   R21        2.06631   0.00246   0.00000   0.00685   0.00685   2.07316
   R22        2.07269  -0.00100   0.00000  -0.00282  -0.00282   2.06987
   R23        2.90908   0.01311   0.00000   0.04663   0.04709   2.95618
   R24        2.06526   0.00211   0.00000   0.00585   0.00585   2.07111
   R25        2.07105  -0.00080   0.00000  -0.00224  -0.00224   2.06882
   R26        2.06631   0.00247   0.00000   0.00685   0.00685   2.07317
   R27        2.07254  -0.00095   0.00000  -0.00267  -0.00267   2.06987
    A1        2.12863   0.02375   0.00000   0.08714   0.08710   2.21572
    A2        2.28222  -0.02070   0.00000  -0.08027  -0.08031   2.20191
    A3        1.87234  -0.00305   0.00000  -0.00688  -0.00679   1.86556
    A4        2.22967  -0.00259   0.00000  -0.00945  -0.00954   2.22013
    A5        1.90471   0.00764   0.00000   0.02893   0.02901   1.93372
    A6        2.14880  -0.00505   0.00000  -0.01948  -0.01947   2.12934
    A7        2.04338   0.00377   0.00000   0.01534   0.01536   2.05875
    A8        2.10597  -0.00277   0.00000  -0.01271  -0.01272   2.09325
    A9        2.13383  -0.00100   0.00000  -0.00263  -0.00264   2.13119
   A10        2.08641   0.00110   0.00000   0.00455   0.00456   2.09098
   A11        2.11279  -0.00060   0.00000  -0.00307  -0.00310   2.10969
   A12        2.08399  -0.00050   0.00000  -0.00148  -0.00147   2.08252
   A13        2.10480  -0.00072   0.00000  -0.00412  -0.00415   2.10065
   A14        2.09734  -0.00205   0.00000  -0.01170  -0.01168   2.08565
   A15        2.08105   0.00278   0.00000   0.01582   0.01583   2.09688
   A16        2.07131   0.00114   0.00000   0.00388   0.00391   2.07523
   A17        2.09813  -0.00135   0.00000  -0.00640  -0.00642   2.09171
   A18        2.11375   0.00021   0.00000   0.00252   0.00250   2.11625
   A19        2.08529   0.00146   0.00000   0.00745   0.00743   2.09272
   A20        1.99536  -0.01215   0.00000  -0.05064  -0.05050   1.94487
   A21        2.20254   0.01069   0.00000   0.04319   0.04306   2.24560
   A22        1.80366   0.00561   0.00000   0.02606   0.02617   1.82983
   A23        1.91912  -0.00046   0.00000   0.01106   0.01104   1.93015
   A24        1.91906  -0.00046   0.00000   0.01109   0.01107   1.93014
   A25        1.95172  -0.00179   0.00000  -0.00963  -0.01005   1.94167
   A26        1.95162  -0.00178   0.00000  -0.00956  -0.00998   1.94164
   A27        1.91593  -0.00080   0.00000  -0.02508  -0.02530   1.89063
   A28        1.84870   0.00195   0.00000   0.00253   0.00211   1.85081
   A29        2.03908  -0.00141   0.00000  -0.00908  -0.00854   2.03054
   A30        2.03905  -0.00141   0.00000  -0.00904  -0.00850   2.03055
   A31        2.01217  -0.00146   0.00000  -0.00695  -0.00693   2.00523
   A32        2.01224  -0.00147   0.00000  -0.00700  -0.00699   2.00525
   A33        1.50664   0.00350   0.00000   0.03141   0.03064   1.53728
   A34        1.53563   0.00108   0.00000   0.01293   0.01068   1.54631
   A35        2.03697   0.00035   0.00000   0.00391   0.00290   2.03988
   A36        1.98928  -0.00435   0.00000  -0.05818  -0.05805   1.93123
   A37        2.01331   0.00395   0.00000   0.05538   0.05605   2.06936
   A38        1.98014  -0.00306   0.00000  -0.03081  -0.03119   1.94895
   A39        1.89207   0.00159   0.00000   0.01344   0.01301   1.90509
   A40        1.53157  -0.00191   0.00000   0.01042   0.00881   1.54038
   A41        2.02078   0.00296   0.00000   0.02736   0.02693   2.04771
   A42        1.98509  -0.00196   0.00000  -0.03195  -0.03156   1.95353
   A43        2.02071   0.00296   0.00000   0.02742   0.02699   2.04770
   A44        1.98500  -0.00196   0.00000  -0.03188  -0.03150   1.95350
   A45        1.90146  -0.00032   0.00000  -0.00121  -0.00092   1.90054
   A46        1.53564   0.00108   0.00000   0.01292   0.01067   1.54631
   A47        2.03690   0.00036   0.00000   0.00397   0.00295   2.03985
   A48        1.98934  -0.00435   0.00000  -0.05821  -0.05808   1.93126
   A49        2.01331   0.00395   0.00000   0.05535   0.05603   2.06934
   A50        1.98018  -0.00306   0.00000  -0.03083  -0.03121   1.94897
   A51        1.89204   0.00159   0.00000   0.01347   0.01304   1.90509
    D1        0.00002  -0.00000   0.00000   0.00002   0.00002   0.00005
    D2        3.14153   0.00000   0.00000   0.00005   0.00006   3.14159
    D3       -3.14151  -0.00000   0.00000  -0.00006  -0.00006  -3.14157
    D4       -0.00001  -0.00000   0.00000  -0.00002  -0.00002  -0.00003
    D5       -3.14150  -0.00000   0.00000  -0.00009  -0.00009   3.14159
    D6       -0.87345  -0.00138   0.00000  -0.01459  -0.01439  -0.88784
    D7        0.87356   0.00138   0.00000   0.01445   0.01426   0.88782
    D8        0.00003  -0.00000   0.00000  -0.00000  -0.00000   0.00002
    D9        2.26808  -0.00138   0.00000  -0.01450  -0.01430   2.25378
   D10       -2.26810   0.00138   0.00000   0.01454   0.01435  -2.25375
   D11        3.14154   0.00000   0.00000  -0.00000  -0.00000   3.14153
   D12       -0.00010   0.00000   0.00000   0.00004   0.00004  -0.00006
   D13        0.00005  -0.00000   0.00000  -0.00005  -0.00005  -0.00000
   D14        3.14159   0.00000   0.00000  -0.00000  -0.00000   3.14159
   D15       -3.14154   0.00000   0.00000   0.00000   0.00000  -3.14154
   D16       -0.00001   0.00000   0.00000   0.00004   0.00004   0.00003
   D17       -0.00003   0.00000   0.00000   0.00004   0.00004   0.00000
   D18        3.14149   0.00000   0.00000   0.00008   0.00008   3.14157
   D19        3.14152   0.00000   0.00000   0.00007   0.00007   3.14159
   D20        0.00003  -0.00000   0.00000  -0.00003  -0.00003   0.00000
   D21       -0.00002   0.00000   0.00000   0.00002   0.00002  -0.00000
   D22       -3.14151  -0.00000   0.00000  -0.00008  -0.00008  -3.14159
   D23       -0.00012   0.00000   0.00000   0.00012   0.00012  -0.00000
   D24       -3.14154  -0.00000   0.00000  -0.00002  -0.00002  -3.14156
   D25        3.14157   0.00000   0.00000   0.00002   0.00002   3.14159
   D26        0.00015  -0.00000   0.00000  -0.00012  -0.00012   0.00003
   D27        0.00014  -0.00000   0.00000  -0.00013  -0.00013   0.00001
   D28       -3.14158  -0.00000   0.00000  -0.00003  -0.00003   3.14157
   D29        3.14156   0.00000   0.00000   0.00001   0.00001   3.14157
   D30       -0.00016   0.00000   0.00000   0.00011   0.00011  -0.00006
   D31       -0.00006   0.00000   0.00000   0.00005   0.00005  -0.00001
   D32       -3.14158   0.00000   0.00000   0.00001   0.00001  -3.14157
   D33       -3.14152  -0.00000   0.00000  -0.00004  -0.00004  -3.14157
   D34        0.00015  -0.00000   0.00000  -0.00008  -0.00009   0.00006
   D35        0.00003  -0.00000   0.00000  -0.00004  -0.00004  -0.00001
   D36       -2.08586  -0.00079   0.00000  -0.00847  -0.00862  -2.09449
   D37        2.08579   0.00079   0.00000   0.00848   0.00863   2.09442
   D38        3.14155  -0.00000   0.00000   0.00000   0.00000   3.14155
   D39        1.05566  -0.00079   0.00000  -0.00843  -0.00858   1.04708
   D40       -1.05587   0.00079   0.00000   0.00852   0.00867  -1.04720
   D41       -0.00003   0.00000   0.00000   0.00002   0.00002  -0.00001
   D42       -2.28355   0.00136   0.00000   0.01559   0.01510  -2.26846
   D43        2.28350  -0.00136   0.00000  -0.01554  -0.01505   2.26845
   D44        2.06329   0.00185   0.00000   0.02358   0.02349   2.08677
   D45       -0.22023   0.00321   0.00000   0.03914   0.03856  -0.18167
   D46       -1.93636   0.00049   0.00000   0.00802   0.00841  -1.92795
   D47       -2.06325  -0.00186   0.00000  -0.02360  -0.02351  -2.08676
   D48        1.93642  -0.00049   0.00000  -0.00804  -0.00844   1.92798
   D49        0.22029  -0.00321   0.00000  -0.03917  -0.03858   0.18171
   D50        2.47327  -0.00372   0.00000  -0.07026  -0.07054   2.40273
   D51       -1.75892   0.00146   0.00000   0.00091   0.00058  -1.75834
   D52        0.46878  -0.00012   0.00000  -0.03256  -0.03255   0.43623
   D53       -1.62163  -0.00358   0.00000  -0.08172  -0.08188  -1.70350
   D54        0.42937   0.00160   0.00000  -0.01055  -0.01075   0.41862
   D55        2.65707   0.00002   0.00000  -0.04402  -0.04388   2.61319
   D56        0.40828  -0.00372   0.00000  -0.07512  -0.07565   0.33263
   D57        2.45927   0.00146   0.00000  -0.00395  -0.00452   2.45475
   D58       -1.59621  -0.00012   0.00000  -0.03741  -0.03765  -1.63386
   D59       -2.47329   0.00372   0.00000   0.07029   0.07057  -2.40272
   D60        1.75891  -0.00146   0.00000  -0.00086  -0.00053   1.75837
   D61       -0.46874   0.00012   0.00000   0.03254   0.03254  -0.43621
   D62        1.62157   0.00358   0.00000   0.08177   0.08193   1.70349
   D63       -0.42943  -0.00159   0.00000   0.01063   0.01082  -0.41860
   D64       -2.65708  -0.00002   0.00000   0.04403   0.04389  -2.61318
   D65       -0.40827   0.00372   0.00000   0.07511   0.07564  -0.33262
   D66       -2.45926  -0.00146   0.00000   0.00396   0.00454  -2.45472
   D67        1.59628   0.00012   0.00000   0.03737   0.03761   1.63389
   D68       -0.41342   0.00490   0.00000   0.08044   0.08028  -0.33314
   D69       -2.46715   0.00194   0.00000   0.03827   0.03822  -2.42893
   D70        1.59383   0.00152   0.00000   0.04493   0.04499   1.63882
   D71       -2.48604   0.00307   0.00000   0.05711   0.05672  -2.42932
   D72        1.74342   0.00011   0.00000   0.01494   0.01466   1.75808
   D73       -0.47878  -0.00031   0.00000   0.02159   0.02143  -0.45736
   D74        1.59963   0.00009   0.00000   0.01715   0.01689   1.61653
   D75       -0.45410  -0.00287   0.00000  -0.02502  -0.02516  -0.47926
   D76       -2.67630  -0.00328   0.00000  -0.01837  -0.01840  -2.69469
   D77        0.41344  -0.00490   0.00000  -0.08045  -0.08029   0.33315
   D78        2.48598  -0.00307   0.00000  -0.05707  -0.05668   2.42929
   D79       -1.59970  -0.00009   0.00000  -0.01712  -0.01686  -1.61656
   D80        2.46723  -0.00194   0.00000  -0.03834  -0.03829   2.42894
   D81       -1.74341  -0.00011   0.00000  -0.01496  -0.01469  -1.75810
   D82        0.45410   0.00286   0.00000   0.02499   0.02513   0.47923
   D83       -1.59391  -0.00152   0.00000  -0.04488  -0.04494  -1.63885
   D84        0.47863   0.00031   0.00000  -0.02150  -0.02133   0.45730
   D85        2.67614   0.00329   0.00000   0.01846   0.01849   2.69463
         Item               Value     Threshold  Converged?
 Maximum Force            0.023752     0.000450     NO 
 RMS     Force            0.004503     0.000300     NO 
 Maximum Displacement     0.264505     0.001800     NO 
 RMS     Displacement     0.051124     0.001200     NO 
 Predicted change in Energy=-8.841816D-03
 GradGradGradGradGradGradGradGradGradGradGradGradGradGradGradGradGradGrad

                          Input orientation:                          
 ---------------------------------------------------------------------
 Center     Atomic      Atomic             Coordinates (Angstroms)
 Number     Number       Type             X           Y           Z
 ---------------------------------------------------------------------
      1          8           0       -0.475870   -2.476755   -0.457800
      2          6           0       -0.190846   -1.304772   -0.285883
      3          6           0        1.166233   -0.735650   -0.092582
      4          6           0        2.366581   -1.423557   -0.070298
      5          6           0        3.531396   -0.693907    0.125646
      6         35           0        5.206786   -1.584382    0.165444
      7          6           0        3.489274    0.690043    0.294520
      8          6           0        2.271391    1.365623    0.269116
      9          6           0        1.104280    0.638430    0.073276
     10          6           0       -0.323701    1.140189    0.007233
     11          6           0       -1.180197   -0.129755   -0.228389
     12          6           0       -2.204292   -0.024730   -1.409581
     13          6           0       -3.315608    0.321480   -0.364481
     14          6           0       -2.398264   -0.293402    0.743473
     15          1           0        2.376128   -2.501170   -0.203886
     16          1           0        4.414100    1.238618    0.446231
     17          1           0        2.248223    2.444860    0.401706
     18          1           0       -0.442884    1.858540   -0.814290
     19          1           0       -0.601370    1.639000    0.944908
     20          1           0       -1.979520    0.704849   -2.197460
     21          1           0       -2.369912   -1.006693   -1.865723
     22          1           0       -4.302268   -0.132930   -0.510071
     23          1           0       -3.437909    1.402322   -0.240606
     24          1           0       -2.331758    0.216997    1.712306
     25          1           0       -2.619992   -1.353046    0.909990
 ---------------------------------------------------------------------
                    Distance matrix (angstroms):
                    1          2          3          4          5
     1  O    0.000000
     2  C    1.218335   0.000000
     3  C    2.421019   1.484226   0.000000
     4  C    3.055963   2.569245   1.383672   0.000000
     5  C    4.424606   3.794416   2.375576   1.388372   0.000000
     6  Br   5.785961   5.423681   4.136785   2.854506   1.897752
     7  C    5.130006   4.226042   2.752992   2.420916   1.394851
     8  C    4.779092   3.674458   2.401572   2.811367   2.418648
     9  C    3.533170   2.362706   1.385439   2.421943   2.769252
    10  C    3.649890   2.466049   2.397632   3.717044   4.270796
    11  C    2.461121   1.537136   2.427197   3.778697   4.758436
    12  C    3.147342   2.637266   3.687863   4.964199   5.975185
    13  C    3.987850   3.523494   4.612847   5.951384   6.939215
    14  C    3.147330   2.637259   3.687846   4.964194   5.975197
    15  H    2.863383   2.833275   2.143197   1.085904   2.170123
    16  H    6.207502   5.311342   3.838840   3.397986   2.148626
    17  H    5.690495   4.525657   3.395684   3.898903   3.402146
    18  H    4.350053   3.217029   3.136868   4.383923   4.815949
    19  H    4.350032   3.217012   3.136840   4.383905   4.815952
    20  H    3.925556   3.300312   4.049854   5.286164   6.141949
    21  H    2.780419   2.707965   3.965075   5.082489   6.236090
    22  H    4.487490   4.281035   5.517433   6.806810   7.879411
    23  H    4.885498   4.227745   5.078480   6.458073   7.286942
    24  H    3.925555   3.300310   4.049827   5.286160   6.141971
    25  H    2.780437   2.707987   3.965076   5.082504   6.236123
                    6          7          8          9         10
     6  Br   0.000000
     7  C    2.852984   0.000000
     8  C    4.162910   1.392943   0.000000
     9  C    4.666899   2.395790   1.388997   0.000000
    10  C    6.167220   3.850187   2.617997   1.515009   0.000000
    11  C    6.562363   4.769640   3.794355   2.428980   1.549794
    12  C    7.735457   5.985946   4.978237   3.685823   2.626979
    13  C    8.748962   6.846644   5.718937   4.452808   3.124094
    14  C    7.735473   5.985969   4.978258   3.685822   2.626983
    15  H    2.998255   3.416335   3.897023   3.398750   4.537967
    16  H    2.945593   1.085935   2.153765   3.384410   4.759115
    17  H    5.004368   2.151994   1.087598   2.163253   2.910768
    18  H    6.688226   4.249319   2.963786   2.161055   1.097785
    19  H    6.688231   4.249339   2.963812   2.161047   1.097792
    20  H    7.903600   6.009816   4.958918   3.830206   2.791402
    21  H    7.865477   6.471138   5.632683   4.305363   3.507712
    22  H    9.642880   7.876088   6.787178   5.492363   4.209207
    23  H    9.155110   6.984237   5.732126   4.616658   3.135033
    24  H    7.903632   6.009850   4.958943   3.830193   2.791388
    25  H    7.865515   6.471178   5.632717   4.305376   3.507726
                   11         12         13         14         15
    11  C    0.000000
    12  C    1.566849   0.000000
    13  C    2.186805   1.564327   0.000000
    14  C    1.566838   2.178406   1.564341   0.000000
    15  H    4.274536   5.344783   6.355235   5.344768   0.000000
    16  H    5.798597   6.988791   7.826033   6.988830   4.308363
    17  H    4.333558   5.404121   6.004332   5.404140   4.984607
    18  H    2.200052   2.646438   3.288985   3.298634   5.227475
    19  H    2.200036   3.298632   3.288989   2.646428   5.227449
    20  H    2.283139   1.097069   2.300416   3.133837   5.764076
    21  H    2.205743   1.095329   2.216328   2.705086   5.245957
    22  H    3.134753   2.285242   1.095984   2.285247   7.092481
    23  H    2.728493   2.219187   1.094770   2.219178   7.002973
    24  H    2.283117   3.133825   2.300418   1.097072   5.764062
    25  H    2.205755   2.705114   2.216348   1.095326   5.245962
                   16         17         18         19         20
    16  H    0.000000
    17  H    2.479521   0.000000
    18  H    5.056037   3.010727   0.000000
    19  H    5.056078   3.010757   1.779913   0.000000
    20  H    6.939193   5.259003   2.367575   3.556179   0.000000
    21  H    7.510618   6.195290   3.609502   4.245830   1.786570
    22  H    8.875288   7.098258   4.353544   4.353544   2.990705
    23  H    7.883692   5.816490   3.083411   3.083410   2.538237
    24  H    6.939255   5.259018   3.556148   2.367538   3.955798
    25  H    7.510675   6.195318   4.245848   3.609486   3.781717
                   21         22         23         24         25
    21  H    0.000000
    22  H    2.516993   0.000000
    23  H    3.095961   1.782337   0.000000
    24  H    3.781687   2.990704   2.538194   0.000000
    25  H    2.808395   2.517004   3.095951   1.786568   0.000000
 Stoichiometry    C12H11BrO
 Framework group  C1[X(C12H11BrO)]
 Deg. of freedom    69
 Full point group                 C1      NOp   1
 Largest Abelian subgroup         C1      NOp   1
 Largest concise Abelian subgroup C1      NOp   1
                         Standard orientation:                         
 ---------------------------------------------------------------------
 Center     Atomic      Atomic             Coordinates (Angstroms)
 Number     Number       Type             X           Y           Z
 ---------------------------------------------------------------------
      1          8           0        1.695671   -2.233826    0.000005
      2          6           0        1.604285   -1.018923   -0.000002
      3          6           0        0.354591   -0.218177   -0.000043
      4          6           0       -0.944425   -0.694733   -0.000031
      5          6           0       -1.977862    0.232405   -0.000005
      6         35           0       -3.779643   -0.363454    0.000009
      7          6           0       -1.711229    1.601535    0.000009
      8          6           0       -0.396874    2.062798    0.000000
      9          6           0        0.639233    1.137707   -0.000030
     10          6           0        2.133129    1.389753   -0.000014
     11          6           0        2.773800   -0.021417   -0.000005
     12          6           0        3.877822   -0.244456    1.089217
     13          6           0        4.959162    0.058023    0.000029
     14          6           0        3.877839   -0.244483   -1.089189
     15          1           0       -1.129042   -1.764828   -0.000043
     16          1           0       -2.536742    2.307073    0.000056
     17          1           0       -0.198523    3.132156   -0.000014
     18          1           0        2.428305    1.960723    0.889928
     19          1           0        2.428313    1.960686   -0.889986
     20          1           0        3.834553    0.397341    1.977915
     21          1           0        3.903424   -1.293204    1.404206
     22          1           0        5.861140   -0.564565    0.000039
     23          1           0        5.255819    1.111833   -0.000000
     24          1           0        3.834591    0.397326   -1.977883
     25          1           0        3.903461   -1.293223   -1.404189
 ---------------------------------------------------------------------
 Rotational constants (GHZ):           1.6588544           0.2218644           0.2022591
 Standard basis: MIDIx (5D, 7F)
 There are   174 symmetry adapted cartesian basis functions of A   symmetry.
 There are   171 symmetry adapted basis functions of A   symmetry.
   171 basis functions,   297 primitive gaussians,   174 cartesian basis functions
    63 alpha electrons       63 beta electrons
       nuclear repulsion energy      1110.8293499953 Hartrees.
 NAtoms=   25 NActive=   25 NUniq=   25 SFac= 1.00D+00 NAtFMM=   60 NAOKFM=F Big=F
 Integral buffers will be    131072 words long.
 Raffenetti 2 integral format.
 Two-electron integral symmetry is turned on.
 Nuclear repulsion after empirical dispersion term =     1110.8112336037 Hartrees.
 One-electron integrals computed using PRISM.
 NBasis=   171 RedAO= T EigKep=  1.10D-03  NBF=   171
 NBsUse=   171 1.00D-06 EigRej= -1.00D+00 NBFU=   171
 Initial guess from the checkpoint file:  "/home/rpaton/opt/midi/Gau-4115627.chk"
 B after Tr=     0.000000   -0.000000   -0.000000
         Rot=    0.999995   -0.000000    0.000000   -0.003300 Ang=  -0.38 deg.
 ExpMin= 1.47D-01 ExpMax= 6.10D+03 ExpMxC= 6.10D+03 IAcc=3 IRadAn=         5 AccDes= 0.00D+00
 Harris functional with IExCor= 4639 and IRadAn=       5 diagonalized for initial guess.
 HarFok:  IExCor= 4639 AccDes= 0.00D+00 IRadAn=         5 IDoV= 1 UseB2=F ITyADJ=14
 ICtDFT=  3500011 ScaDFX=  1.000000  1.000000  1.000000  1.000000
 FoFCou: FMM=F IPFlag=           0 FMFlag=      100000 FMFlg1=           0
         NFxFlg=           0 DoJE=T BraDBF=F KetDBF=T FulRan=T
         wScrn=  0.000000 ICntrl=       500 IOpCl=  0 I1Cent=   200000004 NGrid=           0
         NMat0=    1 NMatS0=      1 NMatT0=    0 NMatD0=    1 NMtDS0=    0 NMtDT0=    0
 Petite list used in FoFCou.
 Requested convergence on RMS density matrix=1.00D-08 within 128 cycles.
 Requested convergence on MAX density matrix=1.00D-06.
 Requested convergence on             energy=1.00D-06.
 No special actions if energy rises.
 Integral accuracy reduced to 1.0D-05 until final iterations.
 Initial convergence to 1.0D-05 achieved.  Increase integral accuracy.
 SCF Done:  E(RwB97XD) =  -3097.83970994     A.U. after   15 cycles
            NFock= 15  Conv=0.26D-08     -V/T= 2.0026
 Calling FoFJK, ICntrl=      2127 FMM=F ISym2X=0 I1Cent= 0 IOpClX= 0 NMat=1 NMatS=1 NMatT=0.
 ***** Axes restored to original set *****
 -------------------------------------------------------------------
 Center     Atomic                   Forces (Hartrees/Bohr)
 Number     Number              X              Y              Z
 -------------------------------------------------------------------
      1        8          -0.001234794    0.003191169    0.000285443
      2        6          -0.001959627   -0.000059636   -0.000177844
      3        6           0.000105502    0.000108874    0.000018103
      4        6           0.002719815   -0.000900274    0.000133970
      5        6          -0.000593619   -0.002041261   -0.000307219
      6       35          -0.000078809   -0.000047998   -0.000013297
      7        6          -0.001094107    0.001128311    0.000039448
      8        6           0.000266464   -0.001446870   -0.000152231
      9        6          -0.000548158    0.001809149    0.000173610
     10        6          -0.001167997   -0.001182962   -0.000244814
     11        6           0.005016584   -0.000831958    0.000340723
     12        6           0.000926885    0.000455137   -0.002344924
     13        6          -0.004246762   -0.000664683   -0.000459889
     14        6           0.000485195   -0.000142910    0.002512741
     15        1           0.000227737   -0.000610139   -0.000056096
     16        1           0.000084652   -0.000160556   -0.000010806
     17        1          -0.000299557   -0.000083570   -0.000039342
     18        1          -0.000472913    0.001483109    0.000678267
     19        1          -0.000377498    0.001614019   -0.000372109
     20        1          -0.000453784    0.000102608    0.002206072
     21        1           0.000285398   -0.001738098    0.001147344
     22        1           0.001582319   -0.000260359    0.000109380
     23        1           0.000366686    0.001047238    0.000162173
     24        1          -0.000061328    0.000645602   -0.002159631
     25        1           0.000521717   -0.001413943   -0.001469076
 -------------------------------------------------------------------
 Cartesian Forces:  Max     0.005016584 RMS     0.001299258

 GradGradGradGradGradGradGradGradGradGradGradGradGradGradGradGradGradGrad
 Berny optimization.
 Using GEDIIS/GDIIS optimizer.
 FormGI is forming the generalized inverse of G from B-inverse, IUseBI=4.
 Internal  Forces:  Max     0.004186003 RMS     0.000879791
 Search for a local minimum.
 Step number   2 out of a maximum of  150
 All quantities printed in internal units (Hartrees-Bohrs-Radians)
 Mixed Optimization -- En-DIIS/RFO-DIIS
 Update second derivatives using D2CorX and points    1    2
 DE= -8.27D-03 DEPred=-8.84D-03 R= 9.35D-01
 TightC=F SS=  1.41D+00  RLast= 3.70D-01 DXNew= 5.0454D-01 1.1111D+00
 Trust test= 9.35D-01 RLast= 3.70D-01 DXMaxT set to 5.05D-01
 ITU=  1  0
 Use linear search instead of GDIIS.
     Eigenvalues ---    0.00346   0.00349   0.00649   0.01395   0.01487
     Eigenvalues ---    0.01909   0.02051   0.02095   0.02114   0.02177
     Eigenvalues ---    0.02220   0.02250   0.02310   0.02482   0.03251
     Eigenvalues ---    0.03450   0.04109   0.04690   0.04694   0.04751
     Eigenvalues ---    0.05159   0.05720   0.06053   0.06323   0.06369
     Eigenvalues ---    0.07417   0.07916   0.08092   0.08332   0.08678
     Eigenvalues ---    0.10261   0.10306   0.15986   0.16000   0.16020
     Eigenvalues ---    0.18683   0.19950   0.22188   0.22476   0.23560
     Eigenvalues ---    0.24474   0.24813   0.24995   0.25089   0.25194
     Eigenvalues ---    0.25839   0.27104   0.27171   0.27937   0.31093
     Eigenvalues ---    0.34040   0.34065   0.34147   0.34251   0.34271
     Eigenvalues ---    0.34418   0.34460   0.34613   0.35033   0.35209
     Eigenvalues ---    0.35385   0.36028   0.40148   0.42671   0.44748
     Eigenvalues ---    0.45880   0.47492   0.47937   0.94831
 RFO step:  Lambda=-8.83118874D-04 EMin= 3.45603163D-03
 Quartic linear search produced a step of  0.07390.
 Iteration  1 RMS(Cart)=  0.03141970 RMS(Int)=  0.00056789
 Iteration  2 RMS(Cart)=  0.00074690 RMS(Int)=  0.00005620
 Iteration  3 RMS(Cart)=  0.00000024 RMS(Int)=  0.00005620
 Variable       Old X    -DE/DX   Delta X   Delta X   Delta X     New X
                                 (Linear)    (Quad)   (Total)
    R1        2.30232  -0.00282  -0.00037  -0.00293  -0.00330   2.29902
    R2        2.80478  -0.00123   0.00320  -0.00534  -0.00213   2.80265
    R3        2.90477  -0.00419  -0.00571  -0.01552  -0.02126   2.88351
    R4        2.61476   0.00224   0.00001   0.00518   0.00519   2.61995
    R5        2.61810   0.00119  -0.00159   0.00541   0.00384   2.62194
    R6        2.62364  -0.00184  -0.00052  -0.00380  -0.00432   2.61932
    R7        2.05206   0.00061   0.00012   0.00177   0.00189   2.05395
    R8        3.58623  -0.00005   0.00090  -0.00093  -0.00004   3.58619
    R9        2.63589   0.00134  -0.00143   0.00402   0.00258   2.63847
   R10        2.63228   0.00016  -0.00103   0.00085  -0.00018   2.63210
   R11        2.05212  -0.00001  -0.00030   0.00018  -0.00012   2.05200
   R12        2.62482  -0.00105   0.00021  -0.00256  -0.00234   2.62248
   R13        2.05526  -0.00008   0.00014  -0.00035  -0.00021   2.05506
   R14        2.86295   0.00195   0.00144   0.00635   0.00780   2.87076
   R15        2.92869   0.00042   0.00021  -0.00026  -0.00008   2.92861
[...]
 -0.00009169,0.00079542,0.00067793,0.00078056,0.35917324,-0.00014430,-0
 .00006260,-0.00012938,0.00027772,-0.00015485,-0.00007136,-0.00145025,-
 0.00098724,0.00742298,-0.00003090,0.00021265,-0.00082615,-0.00080654,-
 0.00069204,0.00792910,-0.00002409,0.00002290,0.00002780,-0.00046655,0.
 00062326,0.00501196,-0.00177348,-0.03684941,-0.04847800,0.00040691,-0.
 00492946,0.00477664,0.00046333,0.00056315,-0.00325878,-0.00000747,-0.0
 0001047,0.00001909,-0.00002349,-0.00005791,-0.00002712,-0.00000051,0.0
 0000166,-0.00000702,0.00003200,0.00010268,-0.00001879,0.00011060,0.000
 13447,-0.00117896,0.00050650,0.00065853,-0.00457616,0.00307498,0.04134
 683,0.03380602,0.00095169,-0.00079447,-0.00016638,-0.00306108,-0.00005
 482,-0.00075968,-0.00250597,0.00003389,0.00030012,-0.00034333,0.000398
 54,0.00128876,0.00024435,0.00018451,-0.00015689,-0.00023433,0.00010317
 ,-0.00009157,0.00015080,-0.00006317,0.00115448,0.00065812,0.00036017,0
 .00094771,-0.00662396,0.02445721,-0.02574096,-0.04848196,0.01717431,-0
 .01994062,0.00045950,-0.01494435,0.01361091,0.00051065,-0.00051721,0.0
 0133991,0.00013495,-0.00015994,0.00010929,-0.00062955,-0.00205964,-0.0
 0012615,-0.00023361,0.00010458,0.00002529,-0.00003013,-0.00002057,-0.0
 0008482,-0.00013674,-0.00049907,-0.00077401,0.05799438,0.00068739,-0.0
 0111233,-0.00062363,-0.00247581,-0.00170084,0.00076733,0.00156943,0.00
 008858,0.00039767,-0.00033167,-0.00025523,-0.00052521,0.00000528,0.000
 65961,0.00013612,0.00005633,-0.00004353,0.00005675,0.00066848,-0.00065
 063,-0.00054407,-0.00135267,0.00046067,-0.00018588,0.00419567,-0.00787
 184,0.00696454,0.01583189,-0.15760668,0.12734881,0.00055845,-0.0174536
 6,0.01722993,0.00117458,0.00117158,0.00141947,0.00010561,0.00008233,0.
 00012091,0.00004836,-0.00216886,-0.00023000,0.00005369,-0.00008435,0.0
 0002171,0.00002693,-0.00001139,0.00001353,0.00002165,0.00001981,0.0004
 9845,-0.01819919,0.17534455,0.00023466,-0.00024742,-0.00023696,-0.0005
 0115,-0.00111717,-0.00016429,0.00011829,-0.00036820,-0.00040979,0.0001
 3291,-0.00003331,-0.00018569,0.00000176,-0.00022084,-0.00007383,-0.000
 06573,0.00002588,-0.00000524,-0.00028850,0.00007665,0.00009909,-0.0001
 1420,0.00018652,0.00061586,0.00070990,-0.00106867,0.00159215,-0.019116
 94,0.12943148,-0.19542229,-0.00018539,-0.00578302,0.00376506,-0.000310
 58,-0.00138039,0.00160844,-0.00016322,0.00016531,0.00010970,-0.0002914
 5,-0.00012638,-0.00012427,0.00000338,-0.00002064,0.00001957,-0.0000255
 3,0.00001931,-0.00000901,-0.00032500,0.00003067,-0.00023536,0.02320150
 ,-0.13948871,0.21133473,0.00093134,-0.00084439,0.00015701,-0.00313279,
 -0.00033318,0.00016869,-0.00240199,0.00007450,-0.00064918,-0.00009149,
 0.00069080,-0.00114802,0.00020405,0.00007750,0.00023611,-0.00025815,0.
 00008664,0.00007128,0.00028747,0.00024899,-0.00110544,0.00082247,0.000
 60609,-0.00078920,-0.01134747,0.01731958,0.02876210,-0.06155632,0.0291
 0775,0.05565234,0.00314497,-0.01154888,-0.01671501,-0.00064221,-0.0019
 6059,-0.00047183,0.00012487,-0.00009810,-0.00013228,0.00070895,-0.0003
 8039,-0.00161328,-0.00022414,0.00010991,-0.00004246,-0.00004885,-0.000
 03614,0.00007124,-0.00032178,-0.00066563,0.00062410,0.00199427,-0.0015
 9361,-0.00320305,0.07270242,0.00060027,-0.00126324,0.00047856,-0.00224
 720,-0.00163206,-0.00158745,0.00162938,0.00002813,0.00001521,-0.000373
 98,-0.00039218,0.00044186,0.00000811,0.00059263,0.00002985,0.00005369,
 -0.00002437,-0.00005479,0.00048580,-0.00073374,0.00045644,-0.00135199,
 0.00048676,-0.00007169,0.00585844,-0.00639100,-0.00863275,0.02766168,-
 0.09959726,-0.10032460,0.00392257,-0.01324325,-0.02082706,-0.00000842,
 -0.00208597,-0.00027198,0.00008093,0.00015310,-0.00009438,0.00132355,0
 .00118702,-0.00127562,0.00006350,-0.00008151,-0.00003563,0.00002260,-0
 .00000304,-0.00001001,0.00002273,0.00014568,-0.00042294,-0.00575719,0.
 01039647,0.02002583,-0.03087195,0.11200821,0.00012122,-0.00016125,-0.0
 0006569,-0.00063089,0.00068736,-0.00016097,-0.00008171,0.00050280,-0.0
 0045342,-0.00021605,0.00011159,-0.00030059,0.00004640,0.00040915,0.000
 03348,0.00003548,-0.00001673,-0.00000058,0.00045838,-0.00025146,0.0000
 4543,-0.00018525,-0.00011341,0.00042528,-0.00164729,0.00225799,0.00483
 510,0.05448050,-0.10215584,-0.24035725,0.00094649,-0.00060412,-0.00313
 088,0.00020018,-0.00074146,-0.00019474,0.00019573,-0.00017881,0.000049
 06,0.00046095,0.00121815,0.00139481,-0.00003271,0.00001551,0.00000729,
 0.00002522,-0.00002536,0.00000136,0.00032593,-0.00006409,-0.00017619,0
 .00686565,-0.01224658,-0.02277652,-0.06062712,0.11125407,0.25996273,-0
 .00003913,0.00072261,0.00038090,0.00046003,-0.00167716,-0.00262223,-0.
 00062815,0.00034862,0.00054411,0.00002761,-0.00019360,0.00005844,-0.00
 006961,-0.00011986,-0.00006993,-0.00002536,0.00000362,-0.00001184,-0.0
 0009240,0.00011239,0.00001097,0.00021306,-0.00006210,-0.00004634,-0.00
 013808,0.00038641,0.00010336,0.00185628,0.00153550,0.00054296,0.001633
 29,0.01862563,-0.01367752,-0.05931692,-0.03128280,0.02919409,-0.001542
 10,-0.02033405,0.01221640,-0.00074011,0.00044663,0.00095714,0.00003556
 ,0.00000214,0.00001426,0.00000551,-0.00000665,0.00000689,-0.00001950,-
 0.00002169,-0.00000969,-0.00010860,-0.00078159,0.00014782,0.00007287,-
 0.00009845,0.00016945,0.05644137,0.00093539,0.00019539,0.00033988,-0.0
 0058603,-0.00111961,0.00013643,0.00014943,0.00001749,0.00005834,0.0000
 9383,0.00004069,0.00002707,-0.00006698,-0.00001397,-0.00000945,0.00004
 098,-0.00001337,-0.00000559,0.00000522,0.00005794,0.00002664,0.0001200
 7,0.00000404,-0.00002467,-0.00007856,0.00003861,-0.00017574,-0.0002234
 8,0.00123779,-0.00086790,-0.00263564,-0.00051555,-0.00311877,-0.030436
 56,-0.19529889,0.13461027,0.00257640,0.00548617,-0.00677393,0.00079941
 ,0.00050724,-0.00157383,-0.00003324,-0.00000895,0.00000900,0.00000588,
 0.,0.00001170,-0.00000816,0.00000830,0.00000599,0.00004433,0.00038429,
 0.00007018,-0.00003455,0.00005277,-0.00011105,0.03390693,0.20627407,0.
 00011023,0.00064168,0.00046517,0.00143227,-0.00181532,-0.00181541,-0.0
 0042770,0.00007917,0.00018118,0.00008817,-0.00014765,0.00000217,-0.000
 05243,-0.00013256,-0.00005217,-0.00000791,-0.00000529,-0.00000259,-0.0
 0010213,0.00008548,-0.00000766,0.00017666,-0.00002311,-0.00008000,-0.0
 0038293,0.00001504,0.00031218,0.00110959,0.00140360,0.00105827,0.00186
 554,0.01383442,-0.01184736,0.02839002,0.13300290,-0.17098454,0.0006433
 2,0.01047812,-0.00894302,0.00103935,-0.00134658,-0.00532899,0.00003818
 ,-0.00000121,0.00000780,0.00000338,-0.00000294,0.00001035,-0.00002507,
 -0.00002000,-0.00000625,-0.00091109,-0.00123203,0.00009509,0.00020076,
 0.00000688,0.00020751,-0.03078744,-0.14381665,0.18589331,0.00090999,0.
 00158103,0.00172893,-0.00136642,-0.00422902,-0.00123193,0.00066281,0.0
 0018111,-0.00052791,-0.00017415,0.00019303,-0.00000723,0.00004286,0.00
 017943,0.00007337,0.00000921,0.00000874,0.00000557,0.00005968,-0.00015
 345,-0.00000842,-0.00041087,0.00020913,0.00018694,0.00033826,-0.001093
 86,-0.00025985,-0.00219382,0.00071055,-0.00378560,-0.00560590,-0.02239
 148,-0.01169398,-0.04623458,-0.01652437,-0.00626844,-0.00001230,0.0278
 9927,0.01368722,-0.00056092,0.00005743,-0.00006725,-0.00008248,0.00001
 629,-0.00004364,-0.00002302,0.00002161,-0.00003084,0.00004836,0.000033
 71,-0.00000499,0.00006690,0.00042097,-0.00006377,-0.00057838,-0.000476
 09,-0.00029522,0.00062412,-0.00457113,-0.00244258,0.05566403,0.0002351
 9,0.00080982,-0.00006613,0.00177012,-0.00012970,0.00051494,-0.00056619
 ,-0.00014897,0.00028039,0.00008078,-0.00010368,0.00003395,0.00004143,-
 0.00004268,-0.00004124,-0.00006171,0.00002828,-0.00000659,-0.00002375,
 0.00001588,0.00001620,-0.00001976,0.00001512,-0.00008286,-0.00006293,0
 .00004668,-0.00013642,0.00039845,-0.00011706,0.00034355,-0.00021441,0.
 00166922,0.00122428,-0.01730607,-0.26768478,-0.10581234,-0.00090578,-0
 .00354627,-0.00035649,-0.00017755,-0.00049292,-0.00007548,0.00003869,0
 .00002531,0.00001310,-0.00000748,-0.00000171,0.00001320,0.00000499,-0.
 00001070,-0.00000631,0.00019644,0.00032294,-0.00020277,-0.00007709,0.0
 0003851,-0.00015451,-0.00129616,-0.01871877,-0.01158956,0.01781598,0.2
 8574594,0.00253623,0.00159907,0.00136549,-0.00225680,-0.00523521,0.000
 29674,0.00054992,0.00063611,-0.00038008,-0.00023138,0.00010853,-0.0000
 6144,0.00000370,0.00013511,0.00006271,0.00001962,-0.00000615,0.0000055
 8,0.00005226,-0.00009056,-0.00001750,-0.00022632,0.00012711,0.00013430
 ,0.00032840,-0.00073539,0.00002712,-0.00028380,0.00098811,-0.00277870,
 -0.00507757,-0.01648746,-0.00985559,-0.00653611,-0.10437693,-0.1017517
 7,0.00080630,-0.01530748,-0.00730979,0.00012951,0.00071951,-0.00013807
 ,-0.00006113,0.00000187,-0.00001890,-0.00000980,0.00001313,-0.00001877
 ,0.00003321,0.00002265,0.00000203,-0.00008703,-0.00002781,0.00008887,-
 0.00042268,-0.00041489,-0.00006252,0.00182147,0.02144719,0.01180598,0.
 00797177,0.11630831,0.11007640,0.00020898,0.00076249,0.00012797,-0.000
 26940,-0.00185237,-0.00034783,-0.00049199,0.00037155,0.00003701,-0.000
 07847,-0.00012924,-0.00002011,0.00005914,-0.00005040,-0.00000351,-0.00
 008595,0.00003531,-0.00000358,-0.00005210,0.00000208,-0.00000435,-0.00
 004651,0.00004987,0.00000577,-0.00006165,0.00001694,-0.00000980,-0.000
 12205,0.00009493,-0.00003611,-0.00493320,0.00261566,-0.00012184,-0.012
 22690,-0.00965400,-0.00395226,-0.23461366,-0.12434906,-0.03183799,-0.0
 0951152,-0.00716406,-0.00020914,0.00001787,0.00000510,0.00000369,-0.00
 001211,0.00000090,-0.00000183,-0.00000032,-0.00000932,-0.00000057,-0.0
 0002340,0.00002633,0.00005771,-0.00003193,0.00002519,-0.00006723,-0.00
 158003,0.00032256,0.00019841,0.00146066,-0.00008301,-0.00010159,0.2542
 9148,-0.00022691,0.00008045,0.00000896,0.00042808,0.00019121,-0.000065
 58,0.00000495,-0.00005765,0.00004165,0.00000381,0.00001162,0.00000605,
 0.00003731,-0.00002340,-0.00000308,-0.00002342,0.00001233,-0.00000090,
 -0.00000609,0.00000300,-0.00000006,-0.00000520,0.00000895,0.00000583,0
 .00012433,0.00002972,0.00000609,0.00030260,-0.00003341,-0.00002807,0.0
 0325117,-0.00015720,0.00026842,0.00648544,0.00195874,-0.00005232,-0.12
 634249,-0.13450765,-0.02149663,0.01049183,0.00574763,0.00239908,0.0000
 1114,0.00000210,0.00000327,-0.00000169,-0.00000014,-0.00000135,0.00000
 576,-0.00000174,0.00000116,0.00010117,0.00001935,-0.00009656,0.0000565
 3,-0.00002768,0.00009454,0.00000557,0.00007136,-0.00004166,-0.00003280
 ,0.00107505,-0.00022548,0.13316944,0.14130894,0.00000450,0.00009810,-0
 .00014248,-0.00006328,-0.00027107,0.00098626,-0.00000879,0.00007470,-0
 .00037939,-0.00000352,-0.00000594,-0.00003519,0.00000744,-0.00001098,0
 .00002755,-0.00001091,0.00000439,0.00000223,-0.00000538,0.00000067,-0.
 00000128,-0.00000110,0.00001079,-0.00004025,0.00000358,-0.00000359,0.0
 0007052,-0.00001020,-0.00004678,0.00040339,-0.00004245,0.00021114,0.00
 006225,0.01667457,0.01565402,0.00378997,-0.03208669,-0.02131700,-0.059
 00863,-0.01661931,-0.01635234,-0.00271428,0.00000444,0.00000272,-0.000
 01529,-0.00000215,-0.00000111,0.00000912,0.00000131,-0.00000020,-0.000
 00681,-0.00010546,-0.00009519,0.00003253,0.00010919,0.00008361,0.00008
 809,0.00230146,-0.00026263,-0.00122079,-0.00158068,0.00025909,0.001652
 69,0.03507205,0.02345955,0.05554427,-0.00021627,-0.00043324,-0.0001150
 1,0.00030002,0.00045192,0.00008996,0.00002279,-0.00017285,-0.00000993,
 0.00004120,-0.00002871,0.00000036,-0.00002968,-0.00003356,-0.00000783,
 0.00001906,-0.00001210,0.00000015,-0.00002791,0.00000995,-0.00000112,0
 .00004248,-0.00002164,0.00000336,-0.00030252,-0.00007234,-0.00003068,-
 0.00025052,0.00015540,-0.00005037,-0.00057655,-0.00063726,-0.00005602,
 -0.00521051,0.02045264,0.00394322,-0.06574063,0.05873035,0.00556804,-0
 .00373600,0.01562135,0.00011271,0.00001497,-0.00000823,0.00000135,0.00
 000307,-0.00000020,-0.00000032,-0.00001434,-0.00000395,-0.00000205,-0.
 00022514,-0.00008592,0.00020829,-0.00017339,-0.00003267,-0.00025205,0.
 00188979,-0.00013174,-0.00014952,-0.00311228,0.00030121,0.00100727,0.0
 0806660,-0.02793831,-0.00284680,0.06979004,0.00017110,0.00011226,-0.00
 002796,-0.00025015,0.00005226,-0.00000697,0.00020984,-0.00003702,0.000
 02754,0.00000081,0.00005651,0.00000744,-0.00002517,0.00005759,0.000003
 57,0.00003374,-0.00001114,0.00000156,0.00003802,-0.00001496,0.00000177
 ,-0.00001045,0.00000386,0.00000263,0.00005735,-0.00002024,0.00001037,0
 .00009804,-0.00001112,-0.00005784,0.00033448,-0.00066827,0.00005121,-0
 .00127064,-0.00110834,0.00047596,0.05937031,-0.30349330,-0.02675243,0.
 00044589,-0.00824901,-0.00121788,-0.00002487,-0.00000047,-0.00000088,0
 .00000316,0.00000072,-0.00000041,0.00000801,0.00000771,0.00000132,0.00
 009875,0.00005773,-0.00006076,0.00009853,0.00003193,0.00009929,0.00007
 347,0.00108680,-0.00015568,0.00035948,0.00103434,0.00034684,0.00554654
 ,-0.01674203,-0.00171063,-0.06644621,0.32584933,-0.00003956,-0.0000824
 2,0.00044604,0.00000236,0.00005624,-0.00006516,0.00003781,-0.00000693,
 -0.00010377,0.00000404,0.00000479,-0.00000162,-0.00000679,0.00000282,0
 .00001052,0.00000587,-0.00000256,0.00000088,0.00000238,-0.00000076,-0.
 00000155,0.00000475,0.00000162,-0.00002414,-0.00001452,-0.00000131,-0.
 00006350,-0.00005750,-0.00005268,0.00051162,0.00006521,-0.00003638,-0.
 00083567,0.00624834,-0.02781705,-0.00470008,0.00564787,-0.02681005,-0.
 04904525,-0.00679631,0.03039984,0.00096614,-0.00000073,0.00000062,-0.0
 0001141,0.00000010,-0.00000072,0.00000624,-0.00000055,0.00000025,0.000
 00288,0.00005355,-0.00001990,-0.00002497,-0.00005792,0.00002999,-0.000
 05092,-0.00157180,0.00054456,0.00137546,0.00449458,-0.00029207,-0.0023
 9196,0.00133117,-0.00472774,0.00050348,-0.00669983,0.02816491,0.055045
 17,0.00002211,0.00090525,-0.00023557,0.00023797,-0.00260987,0.00242085
 ,-0.00059398,0.00049912,-0.00057556,0.00005485,-0.00019772,-0.00010049
 ,-0.00008565,-0.00015400,0.00002641,-0.00002900,0.00000052,0.00000735,
 -0.00010847,0.00012516,0.00000268,0.00022541,-0.00008293,0.00008241,-0
 .00017849,0.00041402,-0.00009543,0.00208718,0.00181413,0.00007339,-0.0
 0121885,0.01632823,0.02017716,-0.00055152,0.00020729,-0.00008910,0.000
 82935,-0.01511593,-0.01482186,-0.05256745,-0.00288640,-0.00590553,0.00
 004440,0.00000480,-0.00000653,0.00000742,-0.00000494,-0.00000864,-0.00
 002440,-0.00002640,0.00000004,0.00014441,-0.00004612,-0.00020084,-0.00
 021392,-0.00091918,-0.00044294,0.00099645,-0.00016424,0.00005626,0.000
 04164,0.00002174,-0.00004343,-0.00114092,0.00053137,-0.00223034,0.0015
 7499,-0.00034092,0.00158416,0.04950407,0.00098903,0.00040537,-0.000169
 46,-0.00023726,-0.00150238,-0.00016283,0.00006855,0.00004818,-0.000068
 15,0.00011441,0.00001124,-0.00000275,-0.00007762,-0.00004520,-0.000004
 54,0.00003705,-0.00001615,0.00000879,-0.00001498,0.00007845,-0.0000075
 8,0.00014489,-0.00001408,0.00006760,-0.00018155,0.00001173,0.00007075,
 -0.00012511,0.00131725,0.00093794,-0.00314457,0.00106758,0.00557619,0.
 00052375,-0.00056765,0.00293572,0.00087611,0.00581014,0.01110054,-0.00
 199235,-0.12953042,-0.12594859,-0.00002131,-0.00000571,-0.00001621,0.0
 0000873,0.00000264,-0.00001209,-0.00001267,0.00000493,-0.00000579,0.00
 000171,0.00003820,0.00007385,-0.00016040,0.00011208,-0.00009326,-0.000
 25377,0.00018003,0.00049014,-0.00010799,0.00003068,0.00034833,0.000282
 13,-0.00009851,0.00065892,-0.00006665,0.00120671,-0.00064525,0.0036907
 7,0.13589231,0.00007205,-0.00049804,0.00019398,-0.00120138,0.00147682,
 -0.00121052,0.00031765,-0.00003222,0.00011620,-0.00005541,0.00011796,0
 .00000439,0.00002503,0.00010692,-0.00000490,0.00001263,0.00000183,0.00
 000382,0.00008491,-0.00004415,-0.00001212,-0.00008943,0.00002911,-0.00
 007420,0.00025849,-0.00002451,0.00037948,-0.00095479,-0.00100028,0.000
 74798,-0.00044844,-0.00770675,-0.01057831,-0.00008780,0.00264812,-0.00
 444274,0.00160526,-0.00965670,-0.01163849,-0.00488422,-0.12449800,-0.2
 4350198,-0.00003811,-0.00000046,-0.00000429,-0.00000187,0.00000019,0.0
 0000579,0.00001882,0.00001774,0.00000201,-0.00021816,-0.00005417,0.000
 15048,0.00081376,0.00106617,0.00047260,0.00026793,-0.00021038,-0.00105
 991,0.00006434,-0.00027047,-0.00004790,-0.00011884,0.00043185,-0.00149
 000,0.00017049,0.00004877,0.00157031,0.00422588,0.13340033,0.26321203,
 0.00161766,0.00220855,-0.00117429,-0.00184745,-0.00517235,-0.00043478,
 0.00063879,0.00012339,0.00077074,-0.00021841,0.00020507,0.00003168,0.0
 0005165,0.00021475,-0.00002380,0.00001467,0.00000800,-0.00000218,0.000
 06896,-0.00016657,-0.00001756,-0.00040487,0.00028174,-0.00022228,0.000
 36863,-0.00123939,0.00001121,-0.00294509,-0.00013129,0.00384992,-0.008
 09188,-0.02731030,0.00544035,-0.00053693,0.00017802,0.00003954,0.00174
 782,0.02705302,-0.00554536,-0.04873618,-0.03216916,0.00559452,-0.00009
 985,0.00000601,0.00003193,-0.00003032,0.00001516,0.00003387,0.00005088
 ,0.00003401,0.00002271,-0.00067224,-0.00058446,0.00003914,0.00002914,0
 .00037865,0.00014689,0.00004404,-0.00003014,-0.00006335,0.00042660,-0.
 00010314,0.00007800,0.00117735,-0.00043358,0.00143852,-0.00214928,0.00
 142090,-0.00423669,0.00094239,-0.00034090,0.00016122,0.05855392,0.0008
 2866,0.00114372,0.00020348,0.00131138,-0.00114949,-0.00067964,-0.00038
 921,0.00006238,-0.00025592,0.00003024,-0.00007208,-0.00003181,0.000035
 14,-0.00001930,0.00002913,-0.00005584,0.00002490,0.00000146,-0.0000092
 9,-0.00000013,-0.00001393,-0.00007429,0.00002864,0.00004783,-0.0000072
 6,-0.00013616,0.00008966,0.00031105,0.00003675,0.00034055,-0.00142839,
 -0.00205540,0.00021600,-0.00013807,-0.00031741,0.00000385,-0.00092708,
 -0.00812298,0.00029867,-0.03323263,-0.30660779,0.04893263,0.00002509,0
 .00002556,0.00000167,-0.00000745,0.00000340,-0.00000983,0.00001084,-0.
 00000703,0.00000599,-0.00018918,-0.00008675,0.00010916,0.00012805,0.00
 024205,0.00026747,-0.00004162,0.00004614,0.00029280,-0.00010757,0.0001
 3949,0.00010548,-0.00003559,0.00112897,-0.00044024,0.00040275,0.000798
 15,0.00129019,-0.00199375,-0.01443742,0.00465031,0.03555400,0.32933177
 ,-0.00232177,-0.00121621,0.00032372,0.00214774,0.00394571,0.00179755,-
 0.00046430,-0.00049813,-0.00056734,0.00022000,-0.00008053,-0.00004876,
 0.00000624,-0.00011858,0.00003054,-0.00003298,0.00001311,0.00000350,-0
 .00004243,0.00006696,-0.00001080,0.00011797,-0.00010945,0.00011477,-0.
 00029456,0.00048472,0.00017952,0.00036441,-0.00031574,-0.00218121,0.00
 482022,0.01359778,-0.00364477,-0.00022603,-0.00074148,-0.00033759,0.00
 025030,0.02036616,-0.00449327,0.00563196,0.04766341,-0.06032703,0.0000
 5458,0.00000917,-0.00000178,0.00000638,-0.00000511,-0.00001658,-0.0000
 2196,-0.00001830,-0.00000416,0.00026568,0.00029795,0.00015665,0.000110
 88,0.00013529,0.00020753,0.00005918,-0.00033665,-0.00006576,0.00009963
 ,0.00008624,-0.00068492,0.00000280,0.00001300,0.00188207,-0.00088366,0
 .00074823,-0.00311877,-0.00390036,-0.02853261,0.00720627,-0.00596994,-
 0.05545495,0.06360061\\0.00000098,0.00001948,-0.00000151,0.00000719,-0
 .00003596,0.00000755,-0.00001251,0.00000829,-0.00000383,0.00000181,0.0
 0000035,-0.00000024,-0.00000212,0.00000359,0.00000040,0.00000330,-0.00
 000233,0.00000007,0.00000412,-0.00000428,-0.00000015,-0.00000703,0.000
 00297,0.00000023,0.00001315,-0.00000691,0.00000071,-0.00000323,-0.0000
 1213,-0.00000187,-0.00000653,0.00003173,-0.00000036,-0.00000690,-0.000
 00084,0.00001218,0.00001142,-0.00001496,-0.00000093,-0.00000392,0.0000
 0130,-0.00001316,0.00000076,-0.00000007,0.00000012,0.00000005,-0.00000
 076,-0.00000016,-0.00000035,-0.00000118,-0.00000025,-0.00000026,0.0000
 0124,-0.00000023,-0.00000025,0.00000130,0.00000042,-0.00000030,-0.0000
 0089,-0.00000414,0.00000302,0.00000126,-0.00000356,-0.00000433,0.00000
 571,0.00000039,0.00000013,0.00000457,0.00000054,-0.00000078,-0.0000018
 0,0.00000360,0.00000260,0.00000031,0.00000417\\\@
 The archive entry for this job was punched.


 NEVER TEACH A PIG TO SING.
 IT WASTES YOUR TIME AND ANNOYS THE PIG.
     -- SEEN ON A GREETING CARD
 Job cpu time:       0 days  0 hours 18 minutes 58.1 seconds.
 Elapsed time:       0 days  0 hours  0 minutes 48.1 seconds.
 File lengths (MBytes):  RWF=    116 Int=      0 D2E=      0 Chk=      4 Scr=      1
 Normal termination of Gaussian 16 at Wed Sep 25 15:35:12 2024.
