Job Start Time: Mon Jan 29 12:53:41 MST 2024
SLURM Job ID: 229704
SLURM Job Name: Ac4_rdkit_conf_3_AD_EA
 Entering Gaussian System, Link 0=/opt/apps/Gaussian/G16C/g16/g16
 Initial command:
 /opt/apps/Gaussian/G16C/g16/l1.exe "/tmp/Gau-3425964.inp" -scrdir="/tmp/"
 Entering Link 1 = /opt/apps/Gaussian/G16C/g16/l1.exe PID=   3425966.
  
 Copyright (c) 1988-2019, Gaussian, Inc.  All Rights Reserved.
  
 This is part of the Gaussian(R) 16 program.  It is based on
 the Gaussian(R) 09 system (copyright 2009, Gaussian, Inc.),
 the Gaussian(R) 03 system (copyright 2003, Gaussian, Inc.),
 the Gaussian(R) 98 system (copyright 1998, Gaussian, Inc.),
 the Gaussian(R) 94 system (copyright 1995, Gaussian, Inc.),
 the Gaussian 92(TM) system (copyright 1992, Gaussian, Inc.),
 the Gaussian 90(TM) system (copyright 1990, Gaussian, Inc.),
 the Gaussian 88(TM) system (copyright 1988, Gaussian, Inc.),
 the Gaussian 86(TM) system (copyright 1986, Carnegie Mellon
 University), and the Gaussian 82(TM) system (copyright 1983,
 Carnegie Mellon University). Gaussian is a federally registered
 trademark of Gaussian, Inc.
  
 This software contains proprietary and confidential information,
 including trade secrets, belonging to Gaussian, Inc.
  
 This software is provided under written license and may be
 used, copied, transmitted, or stored only in accord with that
 written license.
  
 The following legend is applicable only to US Government
 contracts under FAR:
  
                    RESTRICTED RIGHTS LEGEND
  
 Use, reproduction and disclosure by the US Government is
 subject to restrictions as set forth in subparagraphs (a)
 and (c) of the Commercial Computer Software - Restricted
 Rights clause in FAR 52.227-19.
  
 Gaussian, Inc.
 340 Quinnipiac St., Bldg. 40, Wallingford CT 06492
  
  
 ---------------------------------------------------------------
 Warning -- This program may not be used in any manner that
 competes with the business of Gaussian, Inc. or will provide
 assistance to any competitor of Gaussian, Inc.  The licensee
 of this program is prohibited from giving any competitor of
 Gaussian, Inc. access to this program.  By using this program,
 the user acknowledges that Gaussian, Inc. is engaged in the
 business of creating and licensing software in the field of
 computational chemistry and represents and warrants to the
 licensee that it is not a competitor of Gaussian, Inc. and that
 it will not use this program in any manner prohibited above.
 ---------------------------------------------------------------
  

 Cite this work as:
 Gaussian 16, Revision C.01,
 M. J. Frisch, G. W. Trucks, H. B. Schlegel, G. E. Scuseria, 
 M. A. Robb, J. R. Cheeseman, G. Scalmani, V. Barone, 
 G. A. Petersson, H. Nakatsuji, X. Li, M. Caricato, A. V. Marenich, 
 J. Bloino, B. G. Janesko, R. Gomperts, B. Mennucci, H. P. Hratchian, 
 J. V. Ortiz, A. F. Izmaylov, J. L. Sonnenberg, D. Williams-Young, 
 F. Ding, F. Lipparini, F. Egidi, J. Goings, B. Peng, A. Petrone, 
 T. Henderson, D. Ranasinghe, V. G. Zakrzewski, J. Gao, N. Rega, 
 G. Zheng, W. Liang, M. Hada, M. Ehara, K. Toyota, R. Fukuda, 
 J. Hasegawa, M. Ishida, T. Nakajima, Y. Honda, O. Kitao, H. Nakai, 
 T. Vreven, K. Throssell, J. A. Montgomery, Jr., J. E. Peralta, 
 F. Ogliaro, M. J. Bearpark, J. J. Heyd, E. N. Brothers, K. N. Kudin, 
 V. N. Staroverov, T. A. Keith, R. Kobayashi, J. Normand, 
 K. Raghavachari, A. P. Rendell, J. C. Burant, S. S. Iyengar, 
 J. Tomasi, M. Cossi, J. M. Millam, M. Klene, C. Adamo, R. Cammi, 
 J. W. Ochterski, R. L. Martin, K. Morokuma, O. Farkas, 
 J. B. Foresman, and D. J. Fox, Gaussian, Inc., Wallingford CT, 2019.
 
 ******************************************
 Gaussian 16:  AS64L-G16RevC.01  3-Jul-2019
                29-Jan-2024 
 ******************************************
 %nprocshared=8
 Will use up to    8 processors via shared memory.
 %mem=16GB
 ---------------------------------
 # m062x/def2tzvp opt freq=noraman
 ---------------------------------
 1/18=20,19=15,26=3,38=1/1,3;
 2/9=110,12=2,17=6,18=5,40=1/2;
 3/5=44,7=101,11=2,25=1,30=1,71=1,74=-55/1,2,3;
 4//1;
 5/5=2,38=5/2;
 6/7=2,8=2,9=2,10=2,28=1/1;
 7//1,2,3,16;
 1/18=20,19=15,26=3/3(2);
 2/9=110/2;
 99//99;
 2/9=110/2;
 3/5=44,7=101,11=2,25=1,30=1,71=1,74=-55/1,2,3;
 4/5=5,16=3,69=1/1;
 5/5=2,38=5/2;
 7//1,2,3,16;
 1/18=20,19=15,26=3/3(-5);
 2/9=110/2;
 6/7=2,8=2,9=2,10=2,19=2,28=1/1;
 99/9=1/99;
 ----------------------
 Ac4_rdkit_conf_3_AD_EA
 ----------------------
 Symbolic Z-matrix:
 Charge = -1 Multiplicity = 2
 C                     0.81887   2.56857   0.48624 
 O                     0.47873   1.71006  -0.59178 
 C                    -0.39191   0.71336  -0.26415 
 C                    -1.75258   1.0017   -0.22777 
 C                    -2.67589   0.00311   0.02705 
 C                    -2.2512   -1.30422   0.2351 
 C                    -0.90147  -1.59595   0.18956 
 C                     0.04394  -0.59595  -0.04136 
 C                     1.46906  -1.02971  -0.04837 
 O                     1.81427  -2.17055  -0.20107 
 O                     2.35493  -0.04619   0.17686 
 H                    -0.07309   3.05402   0.89168 
 H                     1.49222   3.32115   0.08363 
 H                     1.32437   2.00873   1.27541 
 H                    -2.06599   2.01851  -0.4268 
 H                    -3.73139   0.24209   0.0493 
 H                    -2.97015  -2.08964   0.42368 
 H                    -0.54211  -2.60606   0.33441 
 H                     3.22979  -0.46082   0.15887 
 

 GradGradGradGradGradGradGradGradGradGradGradGradGradGradGradGradGradGrad
 Berny optimization.
 Initialization pass.
                           ----------------------------
                           !    Initial Parameters    !
                           ! (Angstroms and Degrees)  !
 --------------------------                            --------------------------
 ! Name  Definition              Value          Derivative Info.                !
 --------------------------------------------------------------------------------
 ! R1    R(1,2)                  1.4195         estimate D2E/DX2                !
 ! R2    R(1,12)                 1.0935         estimate D2E/DX2                !
 ! R3    R(1,13)                 1.0871         estimate D2E/DX2                !
 ! R4    R(1,14)                 1.0917         estimate D2E/DX2                !
 ! R5    R(2,3)                  1.3634         estimate D2E/DX2                !
 ! R6    R(3,4)                  1.3914         estimate D2E/DX2                !
 ! R7    R(3,8)                  1.3978         estimate D2E/DX2                !
 ! R8    R(4,5)                  1.3837         estimate D2E/DX2                !
 ! R9    R(4,15)                 1.0825         estimate D2E/DX2                !
 ! R10   R(5,6)                  1.3902         estimate D2E/DX2                !
 ! R11   R(5,16)                 1.0824         estimate D2E/DX2                !
 ! R12   R(6,7)                  1.3817         estimate D2E/DX2                !
 ! R13   R(6,17)                 1.0814         estimate D2E/DX2                !
 ! R14   R(7,8)                  1.3954         estimate D2E/DX2                !
 ! R15   R(7,18)                 1.0819         estimate D2E/DX2                !
 ! R16   R(8,9)                  1.4897         estimate D2E/DX2                !
 ! R17   R(9,10)                 1.2017         estimate D2E/DX2                !
 ! R18   R(9,11)                 1.3427         estimate D2E/DX2                !
 ! R19   R(11,19)                0.9683         estimate D2E/DX2                !
 ! A1    A(2,1,12)             110.7716         estimate D2E/DX2                !
 ! A2    A(2,1,13)             106.6096         estimate D2E/DX2                !
 ! A3    A(2,1,14)             110.4756         estimate D2E/DX2                !
 ! A4    A(12,1,13)            109.5867         estimate D2E/DX2                !
 ! A5    A(12,1,14)            109.7154         estimate D2E/DX2                !
 ! A6    A(13,1,14)            109.6288         estimate D2E/DX2                !
 ! A7    A(1,2,3)              114.3727         estimate D2E/DX2                !
 ! A8    A(2,3,4)              118.6395         estimate D2E/DX2                !
 ! A9    A(2,3,8)              121.5975         estimate D2E/DX2                !
 ! A10   A(4,3,8)              119.6614         estimate D2E/DX2                !
 ! A11   A(3,4,5)              120.5188         estimate D2E/DX2                !
 ! A12   A(3,4,15)             118.2291         estimate D2E/DX2                !
 ! A13   A(5,4,15)             121.2363         estimate D2E/DX2                !
 ! A14   A(4,5,6)              120.1561         estimate D2E/DX2                !
 ! A15   A(4,5,16)             119.6778         estimate D2E/DX2                !
 ! A16   A(6,5,16)             120.1601         estimate D2E/DX2                !
 ! A17   A(5,6,7)              119.4755         estimate D2E/DX2                !
 ! A18   A(5,6,17)             120.3984         estimate D2E/DX2                !
 ! A19   A(7,6,17)             120.1244         estimate D2E/DX2                !
 ! A20   A(6,7,8)              121.0645         estimate D2E/DX2                !
 ! A21   A(6,7,18)             121.1458         estimate D2E/DX2                !
 ! A22   A(8,7,18)             117.7894         estimate D2E/DX2                !
 ! A23   A(3,8,7)              119.1035         estimate D2E/DX2                !
 ! A24   A(3,8,9)              124.7698         estimate D2E/DX2                !
 ! A25   A(7,8,9)              116.1208         estimate D2E/DX2                !
 ! A26   A(8,9,10)             123.4942         estimate D2E/DX2                !
 ! A27   A(8,9,11)             114.652          estimate D2E/DX2                !
 ! A28   A(10,9,11)            121.8169         estimate D2E/DX2                !
 ! A29   A(9,11,19)            106.2202         estimate D2E/DX2                !
 ! D1    D(12,1,2,3)           -59.5339         estimate D2E/DX2                !
 ! D2    D(13,1,2,3)          -178.6967         estimate D2E/DX2                !
 ! D3    D(14,1,2,3)            62.253          estimate D2E/DX2                !
 ! D4    D(1,2,3,4)             82.1891         estimate D2E/DX2                !
 ! D5    D(1,2,3,8)           -101.4896         estimate D2E/DX2                !
 ! D6    D(2,3,4,5)            176.3975         estimate D2E/DX2                !
 ! D7    D(2,3,4,15)            -2.1743         estimate D2E/DX2                !
 ! D8    D(8,3,4,5)              0.0032         estimate D2E/DX2                !
 ! D9    D(8,3,4,15)          -178.5686         estimate D2E/DX2                !
 ! D10   D(2,3,8,7)           -175.1058         estimate D2E/DX2                !
 ! D11   D(2,3,8,9)              3.9775         estimate D2E/DX2                !
 ! D12   D(4,3,8,7)              1.1787         estimate D2E/DX2                !
 ! D13   D(4,3,8,9)           -179.738          estimate D2E/DX2                !
 ! D14   D(3,4,5,6)             -0.7092         estimate D2E/DX2                !
 ! D15   D(3,4,5,16)          -179.8195         estimate D2E/DX2                !
 ! D16   D(15,4,5,6)           177.8192         estimate D2E/DX2                !
 ! D17   D(15,4,5,16)           -1.2912         estimate D2E/DX2                !
 ! D18   D(4,5,6,7)              0.2104         estimate D2E/DX2                !
 ! D19   D(4,5,6,17)          -179.3203         estimate D2E/DX2                !
 ! D20   D(16,5,6,7)           179.3165         estimate D2E/DX2                !
 ! D21   D(16,5,6,17)           -0.2143         estimate D2E/DX2                !
 ! D22   D(5,6,7,8)              1.0017         estimate D2E/DX2                !
 ! D23   D(5,6,7,18)          -179.1736         estimate D2E/DX2                !
 ! D24   D(17,6,7,8)          -179.4662         estimate D2E/DX2                !
 ! D25   D(17,6,7,18)            0.3584         estimate D2E/DX2                !
 ! D26   D(6,7,8,3)             -1.6943         estimate D2E/DX2                !
 ! D27   D(6,7,8,9)            179.1443         estimate D2E/DX2                !
 ! D28   D(18,7,8,3)           178.4753         estimate D2E/DX2                !
 ! D29   D(18,7,8,9)            -0.686          estimate D2E/DX2                !
 ! D30   D(3,8,9,10)          -160.037          estimate D2E/DX2                !
 ! D31   D(3,8,9,11)            22.1406         estimate D2E/DX2                !
 ! D32   D(7,8,9,10)            19.0709         estimate D2E/DX2                !
 ! D33   D(7,8,9,11)          -158.7515         estimate D2E/DX2                !
 ! D34   D(8,9,11,19)          179.1831         estimate D2E/DX2                !
 ! D35   D(10,9,11,19)           1.3203         estimate D2E/DX2                !
 --------------------------------------------------------------------------------
 Trust Radius=3.00D-01 FncErr=1.00D-07 GrdErr=1.00D-06 EigMax=2.50D+02 EigMin=1.00D-04
 Number of steps in this run=     93 maximum allowed number of steps=    114.
 GradGradGradGradGradGradGradGradGradGradGradGradGradGradGradGradGradGrad

                          Input orientation:                          
 ---------------------------------------------------------------------
 Center     Atomic      Atomic             Coordinates (Angstroms)
 Number     Number       Type             X           Y           Z
 ---------------------------------------------------------------------
      1          6           0        0.818870    2.568572    0.486238
      2          8           0        0.478730    1.710061   -0.591784
      3          6           0       -0.391914    0.713364   -0.264149
      4          6           0       -1.752579    1.001698   -0.227769
      5          6           0       -2.675893    0.003110    0.027052
      6          6           0       -2.251199   -1.304215    0.235095
      7          6           0       -0.901466   -1.595949    0.189559
      8          6           0        0.043937   -0.595951   -0.041361
      9          6           0        1.469064   -1.029710   -0.048370
     10          8           0        1.814267   -2.170553   -0.201068
     11          8           0        2.354933   -0.046194    0.176857
     12          1           0       -0.073093    3.054019    0.891683
     13          1           0        1.492221    3.321149    0.083629
     14          1           0        1.324367    2.008731    1.275413
     15          1           0       -2.065986    2.018507   -0.426795
     16          1           0       -3.731391    0.242092    0.049298
     17          1           0       -2.970150   -2.089642    0.423680
     18          1           0       -0.542114   -2.606055    0.334406
     19          1           0        3.229789   -0.460822    0.158868
 ---------------------------------------------------------------------
                    Distance matrix (angstroms):
                    1          2          3          4          5
     1  C    0.000000
     2  O    1.419460   0.000000
     3  C    2.338990   1.363367   0.000000
     4  C    3.094713   2.369182   1.391355   0.000000
     5  C    4.359566   3.639819   2.409527   1.383698   0.000000
     6  C    4.948422   4.149952   2.788693   2.404184   1.390232
     7  C    4.515618   3.666762   2.407991   2.765199   2.394157
     8  C    3.300468   2.410332   1.397822   2.411369   2.785862
     9  C    3.695428   2.963512   2.558927   3.812845   4.272362
    10  O    4.891064   4.122558   3.631555   4.773498   4.993835
    11  O    3.048312   2.682420   2.883849   4.258339   5.033297
    12  H    1.093454   2.076393   2.629878   2.878518   4.102463
    13  H    1.087137   2.019641   3.235963   4.000694   5.327829
    14  H    1.091671   2.071408   2.644588   3.569491   4.645751
    15  H    3.075483   2.568646   2.128936   1.082467   2.154017
    16  H    5.129162   4.504557   3.387101   2.137631   1.082443
    17  H    6.004960   5.231031   3.870046   3.385742   2.150235
    18  H    5.352765   4.530873   3.376295   3.846706   3.384556
    19  H    3.885477   3.583928   3.830716   5.206961   5.925343
                    6          7          8          9         10
     6  C    0.000000
     7  C    1.381652   0.000000
     8  C    2.417791   1.395388   0.000000
     9  C    3.741131   2.448806   1.489692   0.000000
    10  O    4.179569   2.803206   2.374647   1.201667   0.000000
    11  O    4.775192   3.606388   2.385488   1.342682   2.224421
    12  H    4.916244   4.775079   3.769157   4.465287   5.661483
    13  H    5.952321   5.469809   4.178136   4.352922   5.508499
    14  H    4.984230   4.373457   3.187125   3.317448   4.459418
    15  H    3.393064   3.847115   3.381675   4.683098   5.714503
    16  H    2.148617   3.377357   3.868286   5.354601   6.052922
    17  H    1.081365   2.139626   3.395894   4.588345   4.825713
    18  H    2.150726   1.081864   2.127246   2.583838   2.455387
    19  H    5.546021   4.284475   3.194997   1.861917   2.248652
                   11         12         13         14         15
    11  O    0.000000
    12  H    4.002200   0.000000
    13  H    3.477350   1.781718   0.000000
    14  H    2.547863   1.786832   1.780720   0.000000
    15  H    4.916494   2.604283   3.823381   3.793692   0.000000
    16  H    6.094483   4.690383   6.063653   5.494093   2.481106
    17  H    5.709038   5.921927   7.021755   5.997082   4.291586
    18  H    3.869185   5.706748   6.271615   5.066112   4.928305
    19  H    0.968304   4.878540   4.162704   3.313004   5.876675
                   16         17         18         19
    16  H    0.000000
    17  H    2.481256   0.000000
    18  H    4.285407   2.483951   0.000000
    19  H    6.997437   6.415795   4.342821   0.000000
 Stoichiometry    C8H8O3(1-,2)
 Framework group  C1[X(C8H8O3)]
 Deg. of freedom    51
 Full point group                 C1      NOp   1
 Largest Abelian subgroup         C1      NOp   1
 Largest concise Abelian subgroup C1      NOp   1
                         Standard orientation:                         
 ---------------------------------------------------------------------
 Center     Atomic      Atomic             Coordinates (Angstroms)
 Number     Number       Type             X           Y           Z
 ---------------------------------------------------------------------
      1          6           0        0.818869    2.568572    0.486238
      2          8           0        0.478729    1.710061   -0.591784
      3          6           0       -0.391914    0.713364   -0.264149
      4          6           0       -1.752579    1.001697   -0.227769
      5          6           0       -2.675893    0.003109    0.027052
      6          6           0       -2.251199   -1.304216    0.235095
      7          6           0       -0.901466   -1.595949    0.189559
      8          6           0        0.043937   -0.595951   -0.041361
      9          6           0        1.469064   -1.029710   -0.048370
     10          8           0        1.814268   -2.170553   -0.201068
     11          8           0        2.354933   -0.046193    0.176857
     12          1           0       -0.073094    3.054019    0.891683
     13          1           0        1.492220    3.321149    0.083629
     14          1           0        1.324366    2.008731    1.275413
     15          1           0       -2.065987    2.018506   -0.426795
     16          1           0       -3.731391    0.242091    0.049298
     17          1           0       -2.970149   -2.089643    0.423680
     18          1           0       -0.542113   -2.606055    0.334406
     19          1           0        3.229789   -0.460821    0.158868
 ---------------------------------------------------------------------
 Rotational constants (GHZ):           1.4786082           1.1698909           0.6795928
 Standard basis: def2TZVP (5D, 7F)
 There are   444 symmetry adapted cartesian basis functions of A   symmetry.
 There are   389 symmetry adapted basis functions of A   symmetry.
   389 basis functions,   625 primitive gaussians,   444 cartesian basis functions
    41 alpha electrons       40 beta electrons
       nuclear repulsion energy       601.2380960696 Hartrees.
 NAtoms=   19 NActive=   19 NUniq=   19 SFac= 1.00D+00 NAtFMM=   60 NAOKFM=F Big=F
 Integral buffers will be    131072 words long.
 Raffenetti 2 integral format.
 Two-electron integral symmetry is turned on.
 One-electron integrals computed using PRISM.
   1 Symmetry operations used in ECPInt.
 ECPInt:  NShTT=   11781 NPrTT=   36312 LenC2=   11329 LenP2D=   26919.
 LDataN:  DoStor=T MaxTD1= 6 Len=  172
 NBasis=   389 RedAO= T EigKep=  8.07D-06  NBF=   389
 NBsUse=   389 1.00D-06 EigRej= -1.00D+00 NBFU=   389
 ExpMin= 9.52D-02 ExpMax= 2.70D+04 ExpMxC= 9.22D+02 IAcc=3 IRadAn=         5 AccDes= 0.00D+00
 Harris functional with IExCor= 1009 and IRadAn=       5 diagonalized for initial guess.
 HarFok:  IExCor= 1009 AccDes= 0.00D+00 IRadAn=         5 IDoV= 1 UseB2=F ITyADJ=14
 ICtDFT=  3500011 ScaDFX=  1.000000  1.000000  1.000000  1.000000
 FoFCou: FMM=F IPFlag=           0 FMFlag=      100000 FMFlg1=           0
         NFxFlg=           0 DoJE=T BraDBF=F KetDBF=T FulRan=T
         wScrn=  0.000000 ICntrl=       500 IOpCl=  0 I1Cent=   200000004 NGrid=           0
         NMat0=    1 NMatS0=      1 NMatT0=    0 NMatD0=    1 NMtDS0=    0 NMtDT0=    0
 Petite list used in FoFCou.
 Initial guess <Sx>= 0.0000 <Sy>= 0.0000 <Sz>= 0.5000 <S**2>= 0.7500 S= 0.5000
 Requested convergence on RMS density matrix=1.00D-08 within 128 cycles.
 Requested convergence on MAX density matrix=1.00D-06.
 Requested convergence on             energy=1.00D-06.
 No special actions if energy rises.
 Integral accuracy reduced to 1.0D-05 until final iterations.
 Initial convergence to 1.0D-05 achieved.  Increase integral accuracy.
 SCF Done:  E(UM062X) =  -535.323116925     A.U. after   28 cycles
            NFock= 28  Conv=0.53D-08     -V/T= 2.0038
 <Sx>= 0.0000 <Sy>= 0.0000 <Sz>= 0.5000 <S**2>= 0.7616 S= 0.5058
 <L.S>=  0.00000000000    
 Annihilation of the first spin contaminant:
 S**2 before annihilation     0.7616,   after     0.7501

 **********************************************************************

            Population analysis using the SCF Density.

 **********************************************************************

 Orbital symmetries:
 Alpha Orbitals:
       Occupied  (A) (A) (A) (A) (A) (A) (A) (A) (A) (A) (A) (A)
                 (A) (A) (A) (A) (A) (A) (A) (A) (A) (A) (A) (A)
                 (A) (A) (A) (A) (A) (A) (A) (A) (A) (A) (A) (A)
                 (A) (A) (A) (A) (A)
       Virtual   (A) (A) (A) (A) (A) (A) (A) (A) (A) (A) (A) (A)
                 (A) (A) (A) (A) (A) (A) (A) (A) (A) (A) (A) (A)
                 (A) (A) (A) (A) (A) (A) (A) (A) (A) (A) (A) (A)
                 (A) (A) (A) (A) (A) (A) (A) (A) (A) (A) (A) (A)
                 (A) (A) (A) (A) (A) (A) (A) (A) (A) (A) (A) (A)
                 (A) (A) (A) (A) (A) (A) (A) (A) (A) (A) (A) (A)
                 (A) (A) (A) (A) (A) (A) (A) (A) (A) (A) (A) (A)
                 (A) (A) (A) (A) (A) (A) (A) (A) (A) (A) (A) (A)
                 (A) (A) (A) (A) (A) (A) (A) (A) (A) (A) (A) (A)
                 (A) (A) (A) (A) (A) (A) (A) (A) (A) (A) (A) (A)
                 (A) (A) (A) (A) (A) (A) (A) (A) (A) (A) (A) (A)
                 (A) (A) (A) (A) (A) (A) (A) (A) (A) (A) (A) (A)
                 (A) (A) (A) (A) (A) (A) (A) (A) (A) (A) (A) (A)
                 (A) (A) (A) (A) (A) (A) (A) (A) (A) (A) (A) (A)
                 (A) (A) (A) (A) (A) (A) (A) (A) (A) (A) (A) (A)
                 (A) (A) (A) (A) (A) (A) (A) (A) (A) (A) (A) (A)
                 (A) (A) (A) (A) (A) (A) (A) (A) (A) (A) (A) (A)
                 (A) (A) (A) (A) (A) (A) (A) (A) (A) (A) (A) (A)
                 (A) (A) (A) (A) (A) (A) (A) (A) (A) (A) (A) (A)
                 (A) (A) (A) (A) (A) (A) (A) (A) (A) (A) (A) (A)
                 (A) (A) (A) (A) (A) (A) (A) (A) (A) (A) (A) (A)
                 (A) (A) (A) (A) (A) (A) (A) (A) (A) (A) (A) (A)
                 (A) (A) (A) (A) (A) (A) (A) (A) (A) (A) (A) (A)
                 (A) (A) (A) (A) (A) (A) (A) (A) (A) (A) (A) (A)
                 (A) (A) (A) (A) (A) (A) (A) (A) (A) (A) (A) (A)
                 (A) (A) (A) (A) (A) (A) (A) (A) (A) (A) (A) (A)
                 (A) (A) (A) (A) (A) (A) (A) (A) (A) (A) (A) (A)
                 (A) (A) (A) (A) (A) (A) (A) (A) (A) (A) (A) (A)
                 (A) (A) (A) (A) (A) (A) (A) (A) (A) (A) (A) (A)
 Beta  Orbitals:
       Occupied  (A) (A) (A) (A) (A) (A) (A) (A) (A) (A) (A) (A)
                 (A) (A) (A) (A) (A) (A) (A) (A) (A) (A) (A) (A)
                 (A) (A) (A) (A) (A) (A) (A) (A) (A) (A) (A) (A)
                 (A) (A) (A) (A)
       Virtual   (A) (A) (A) (A) (A) (A) (A) (A) (A) (A) (A) (A)
                 (A) (A) (A) (A) (A) (A) (A) (A) (A) (A) (A) (A)
                 (A) (A) (A) (A) (A) (A) (A) (A) (A) (A) (A) (A)
                 (A) (A) (A) (A) (A) (A) (A) (A) (A) (A) (A) (A)
                 (A) (A) (A) (A) (A) (A) (A) (A) (A) (A) (A) (A)
                 (A) (A) (A) (A) (A) (A) (A) (A) (A) (A) (A) (A)
                 (A) (A) (A) (A) (A) (A) (A) (A) (A) (A) (A) (A)
                 (A) (A) (A) (A) (A) (A) (A) (A) (A) (A) (A) (A)
                 (A) (A) (A) (A) (A) (A) (A) (A) (A) (A) (A) (A)
                 (A) (A) (A) (A) (A) (A) (A) (A) (A) (A) (A) (A)
                 (A) (A) (A) (A) (A) (A) (A) (A) (A) (A) (A) (A)
                 (A) (A) (A) (A) (A) (A) (A) (A) (A) (A) (A) (A)
                 (A) (A) (A) (A) (A) (A) (A) (A) (A) (A) (A) (A)
                 (A) (A) (A) (A) (A) (A) (A) (A) (A) (A) (A) (A)
                 (A) (A) (A) (A) (A) (A) (A) (A) (A) (A) (A) (A)
                 (A) (A) (A) (A) (A) (A) (A) (A) (A) (A) (A) (A)
                 (A) (A) (A) (A) (A) (A) (A) (A) (A) (A) (A) (A)
                 (A) (A) (A) (A) (A) (A) (A) (A) (A) (A) (A) (A)
                 (A) (A) (A) (A) (A) (A) (A) (A) (A) (A) (A) (A)
                 (A) (A) (A) (A) (A) (A) (A) (A) (A) (A) (A) (A)
                 (A) (A) (A) (A) (A) (A) (A) (A) (A) (A) (A) (A)
                 (A) (A) (A) (A) (A) (A) (A) (A) (A) (A) (A) (A)
                 (A) (A) (A) (A) (A) (A) (A) (A) (A) (A) (A) (A)
                 (A) (A) (A) (A) (A) (A) (A) (A) (A) (A) (A) (A)
                 (A) (A) (A) (A) (A) (A) (A) (A) (A) (A) (A) (A)
                 (A) (A) (A) (A) (A) (A) (A) (A) (A) (A) (A) (A)
                 (A) (A) (A) (A) (A) (A) (A) (A) (A) (A) (A) (A)
                 (A) (A) (A) (A) (A) (A) (A) (A) (A) (A) (A) (A)
                 (A) (A) (A) (A) (A) (A) (A) (A) (A) (A) (A) (A)
                 (A)
 The electronic state is 2-A.
 Alpha  occ. eigenvalues --  -19.49253 -19.48388 -19.41437 -10.46639 -10.44600
 Alpha  occ. eigenvalues --  -10.41602 -10.36470 -10.36400 -10.35446 -10.35113
 Alpha  occ. eigenvalues --  -10.34931  -1.05804  -1.02376  -0.95464  -0.78403
 Alpha  occ. eigenvalues --   -0.68807  -0.67833  -0.63049  -0.56895  -0.51301
 Alpha  occ. eigenvalues --   -0.49991  -0.44663  -0.41491  -0.40261  -0.39453
 Alpha  occ. eigenvalues --   -0.37983  -0.36606  -0.36133  -0.33704  -0.32442
 Alpha  occ. eigenvalues --   -0.30072  -0.28994  -0.26292  -0.25008  -0.24494
 Alpha  occ. eigenvalues --   -0.23056  -0.19253  -0.17235  -0.14521  -0.13641
 Alpha  occ. eigenvalues --    0.04485
 Alpha virt. eigenvalues --    0.19263   0.20133   0.21613   0.22875   0.24689
 Alpha virt. eigenvalues --    0.25192   0.25540   0.26502   0.28231   0.28859
 Alpha virt. eigenvalues --    0.29703   0.32086   0.34279   0.35962   0.36382
 Alpha virt. eigenvalues --    0.37061   0.37471   0.39437   0.40247   0.41244
 Alpha virt. eigenvalues --    0.41980   0.42458   0.42996   0.45675   0.46465
 Alpha virt. eigenvalues --    0.47924   0.48996   0.50417   0.51085   0.51226
 Alpha virt. eigenvalues --    0.51501   0.53514   0.53857   0.54834   0.55647
 Alpha virt. eigenvalues --    0.56512   0.57222   0.57791   0.58569   0.59114
 Alpha virt. eigenvalues --    0.60627   0.61566   0.62674   0.63179   0.64323
 Alpha virt. eigenvalues --    0.65054   0.66118   0.66719   0.68298   0.69146
 Alpha virt. eigenvalues --    0.69409   0.70649   0.71814   0.72738   0.73074
 Alpha virt. eigenvalues --    0.75322   0.76894   0.77097   0.78607   0.79916
 Alpha virt. eigenvalues --    0.81601   0.83172   0.85918   0.86920   0.89122
 Alpha virt. eigenvalues --    0.90466   0.90781   0.92142   0.93793   0.95134
 Alpha virt. eigenvalues --    0.95585   0.96048   0.97647   0.99821   1.00798
 Alpha virt. eigenvalues --    1.02931   1.03753   1.04464   1.06450   1.08034
 Alpha virt. eigenvalues --    1.08274   1.09697   1.10777   1.11972   1.14378
 Alpha virt. eigenvalues --    1.15838   1.17538   1.19175   1.19874   1.20737
 Alpha virt. eigenvalues --    1.23357   1.26064   1.27841   1.31056   1.31417
 Alpha virt. eigenvalues --    1.32685   1.34312   1.36577   1.40320   1.40900
 Alpha virt. eigenvalues --    1.43499   1.44276   1.47164   1.48547   1.50512
 Alpha virt. eigenvalues --    1.51088   1.53055   1.54606   1.58231   1.62084
 Alpha virt. eigenvalues --    1.62532   1.64114   1.65412   1.66033   1.70436
 Alpha virt. eigenvalues --    1.70585   1.71415   1.72861   1.73157   1.74576
 Alpha virt. eigenvalues --    1.74754   1.75752   1.76503   1.77493   1.81385
 Alpha virt. eigenvalues --    1.82129   1.85533   1.86301   1.87118   1.90071
 Alpha virt. eigenvalues --    1.90341   1.92017   1.92815   1.93747   1.93964
 Alpha virt. eigenvalues --    1.99078   2.01215   2.04729   2.05317   2.07605
 Alpha virt. eigenvalues --    2.07802   2.09759   2.11369   2.14173   2.16030
 Alpha virt. eigenvalues --    2.16804   2.19894   2.21409   2.22265   2.23901
 Alpha virt. eigenvalues --    2.26924   2.27936   2.29405   2.31366   2.31934
 Alpha virt. eigenvalues --    2.33506   2.35493   2.36944   2.38837   2.39206
 Alpha virt. eigenvalues --    2.41823   2.43748   2.45999   2.46577   2.49402
 Alpha virt. eigenvalues --    2.51850   2.52904   2.55436   2.56570   2.57462
 Alpha virt. eigenvalues --    2.59499   2.59974   2.64490   2.67362   2.68374
 Alpha virt. eigenvalues --    2.69542   2.70752   2.75826   2.76373   2.76934
 Alpha virt. eigenvalues --    2.77296   2.81157   2.82527   2.83632   2.84347
 Alpha virt. eigenvalues --    2.85537   2.87214   2.88661   2.90427   2.90815
 Alpha virt. eigenvalues --    2.92217   2.95414   2.96303   2.97677   2.98752
 Alpha virt. eigenvalues --    2.99728   3.01590   3.02348   3.04512   3.05042
 Alpha virt. eigenvalues --    3.06411   3.09130   3.10241   3.10914   3.13827
 Alpha virt. eigenvalues --    3.14562   3.18172   3.18687   3.20596   3.21358
 Alpha virt. eigenvalues --    3.22660   3.24238   3.26148   3.27609   3.29136
 Alpha virt. eigenvalues --    3.31325   3.32152   3.33431   3.34004   3.34648
 Alpha virt. eigenvalues --    3.37566   3.38150   3.39712   3.40276   3.41644
 Alpha virt. eigenvalues --    3.44128   3.45403   3.45802   3.46424   3.47697
 Alpha virt. eigenvalues --    3.49298   3.51349   3.52325   3.53136   3.54730
 Alpha virt. eigenvalues --    3.56076   3.56993   3.58074   3.59592   3.61089
 Alpha virt. eigenvalues --    3.63623   3.65377   3.65813   3.67497   3.69659
 Alpha virt. eigenvalues --    3.70305   3.71955   3.72727   3.72963   3.75911
 Alpha virt. eigenvalues --    3.77094   3.80406   3.82048   3.84271   3.85508
 Alpha virt. eigenvalues --    3.92515   3.95120   3.99367   4.00122   4.03567
 Alpha virt. eigenvalues --    4.06334   4.07811   4.10271   4.12395   4.15627
 Alpha virt. eigenvalues --    4.23475   4.24767   4.28132   4.31529   4.33347
 Alpha virt. eigenvalues --    4.34299   4.35210   4.35766   4.38354   4.39193
 Alpha virt. eigenvalues --    4.42231   4.44282   4.48798   4.49327   4.51613
 Alpha virt. eigenvalues --    4.52897   4.60010   4.61636   4.67556   4.74379
 Alpha virt. eigenvalues --    4.75177   4.77733   4.79372   4.81651   4.88362
 Alpha virt. eigenvalues --    4.93537   5.01002   5.03680   5.08317   5.19797
 Alpha virt. eigenvalues --    5.25338   5.29442   5.36444   5.41573   5.42041
 Alpha virt. eigenvalues --    5.42899   5.45896   5.54128   5.58252   5.58636
 Alpha virt. eigenvalues --    5.62638   5.67197   5.70820   5.72862   5.84395
 Alpha virt. eigenvalues --    5.96376   5.99249   6.08844   6.11830   6.17493
 Alpha virt. eigenvalues --    6.30362   6.36433   6.41906   6.44048   6.51365
 Alpha virt. eigenvalues --    6.53599   6.60059   6.65524   6.71768   6.86724
 Alpha virt. eigenvalues --    6.89277   6.90333   6.96069   7.01553   7.03364
 Alpha virt. eigenvalues --    7.10843   7.20802   7.28841   7.33417   7.36314
 Alpha virt. eigenvalues --    7.39575   7.55160  22.41767  22.61542  22.92252
 Alpha virt. eigenvalues --   22.97387  23.15916  23.19522  23.56710  23.79715
 Alpha virt. eigenvalues --   44.15375  44.23538  44.52760
  Beta  occ. eigenvalues --  -19.49174 -19.48383 -19.41170 -10.46546 -10.44582
  Beta  occ. eigenvalues --  -10.41527 -10.36518 -10.36427 -10.35356 -10.35005
  Beta  occ. eigenvalues --  -10.34713  -1.05409  -1.02290  -0.94805  -0.77993
  Beta  occ. eigenvalues --   -0.68437  -0.67317  -0.62848  -0.56145  -0.51041
  Beta  occ. eigenvalues --   -0.49517  -0.44356  -0.41145  -0.40017  -0.39166
  Beta  occ. eigenvalues --   -0.37662  -0.36203  -0.34890  -0.33251  -0.32111
  Beta  occ. eigenvalues --   -0.29658  -0.28733  -0.25517  -0.24583  -0.24095
  Beta  occ. eigenvalues --   -0.21101  -0.19016  -0.16806  -0.12611  -0.11829
  Beta virt. eigenvalues --    0.18020   0.19365   0.20195   0.21631   0.22760
  Beta virt. eigenvalues --    0.24864   0.25446   0.26325   0.27745   0.28195
  Beta virt. eigenvalues --    0.28714   0.29908   0.31786   0.33915   0.35794
  Beta virt. eigenvalues --    0.35919   0.37232   0.37980   0.39278   0.40038
  Beta virt. eigenvalues --    0.41178   0.41626   0.42320   0.42980   0.45690
  Beta virt. eigenvalues --    0.46318   0.47579   0.48918   0.50373   0.50994
  Beta virt. eigenvalues --    0.51299   0.51640   0.53294   0.53869   0.54920
  Beta virt. eigenvalues --    0.55458   0.56568   0.57289   0.57659   0.58463
  Beta virt. eigenvalues --    0.59325   0.60614   0.61538   0.62580   0.63324
  Beta virt. eigenvalues --    0.64099   0.64967   0.66174   0.66823   0.68073
  Beta virt. eigenvalues --    0.68955   0.69445   0.70754   0.71924   0.72991
  Beta virt. eigenvalues --    0.73240   0.75376   0.76838   0.77311   0.78725
  Beta virt. eigenvalues --    0.79578   0.81999   0.83282   0.85986   0.86723
  Beta virt. eigenvalues --    0.89277   0.90286   0.90798   0.92021   0.93892
  Beta virt. eigenvalues --    0.94915   0.95549   0.96426   0.97622   0.99867
  Beta virt. eigenvalues --    1.00828   1.02962   1.04030   1.04538   1.06603
  Beta virt. eigenvalues --    1.08067   1.08144   1.09793   1.10790   1.11954
  Beta virt. eigenvalues --    1.14424   1.15923   1.17831   1.19194   1.20046
  Beta virt. eigenvalues --    1.20842   1.23393   1.26151   1.28037   1.31295
  Beta virt. eigenvalues --    1.31666   1.32841   1.34684   1.36812   1.40532
  Beta virt. eigenvalues --    1.41116   1.43872   1.44671   1.47765   1.48985
  Beta virt. eigenvalues --    1.50836   1.51431   1.53366   1.54939   1.58720
  Beta virt. eigenvalues --    1.62345   1.63218   1.64619   1.65692   1.66786
  Beta virt. eigenvalues --    1.70750   1.71412   1.71853   1.73388   1.73558
  Beta virt. eigenvalues --    1.74981   1.75335   1.76428   1.76697   1.77734
  Beta virt. eigenvalues --    1.81996   1.82504   1.85726   1.86714   1.88025
  Beta virt. eigenvalues --    1.90408   1.90889   1.92358   1.93583   1.94155
  Beta virt. eigenvalues --    1.94648   1.99439   2.01611   2.05267   2.05648
  Beta virt. eigenvalues --    2.08001   2.08656   2.10012   2.11798   2.14527
  Beta virt. eigenvalues --    2.16438   2.17139   2.20264   2.21838   2.22689
  Beta virt. eigenvalues --    2.24161   2.27370   2.28262   2.29742   2.31728
  Beta virt. eigenvalues --    2.32303   2.33892   2.35856   2.37378   2.39264
  Beta virt. eigenvalues --    2.39733   2.42190   2.44067   2.46103   2.46955
  Beta virt. eigenvalues --    2.49954   2.52402   2.53323   2.55963   2.57435
  Beta virt. eigenvalues --    2.57953   2.59784   2.60872   2.64727   2.67509
  Beta virt. eigenvalues --    2.68822   2.69986   2.71254   2.76430   2.76988
  Beta virt. eigenvalues --    2.77497   2.77838   2.81724   2.83428   2.84390
  Beta virt. eigenvalues --    2.85051   2.86504   2.87790   2.89437   2.91446
  Beta virt. eigenvalues --    2.91958   2.93016   2.95964   2.96957   2.98588
  Beta virt. eigenvalues --    3.00108   3.00861   3.02329   3.02746   3.05222
  Beta virt. eigenvalues --    3.05674   3.06958   3.10019   3.10839   3.11845
  Beta virt. eigenvalues --    3.15025   3.15524   3.19079   3.19650   3.21755
  Beta virt. eigenvalues --    3.22550   3.23848   3.25213   3.26818   3.28240
  Beta virt. eigenvalues --    3.29924   3.32202   3.32872   3.34548   3.35188
  Beta virt. eigenvalues --    3.35549   3.38507   3.38737   3.40657   3.41172
  Beta virt. eigenvalues --    3.42627   3.44689   3.46584   3.46872   3.46953
  Beta virt. eigenvalues --    3.48545   3.49940   3.52431   3.53741   3.53958
  Beta virt. eigenvalues --    3.55398   3.56798   3.58261   3.59026   3.60604
  Beta virt. eigenvalues --    3.61785   3.64782   3.66316   3.66531   3.68235
  Beta virt. eigenvalues --    3.70520   3.71315   3.72770   3.73493   3.74155
  Beta virt. eigenvalues --    3.76875   3.78227   3.81045   3.83166   3.85475
  Beta virt. eigenvalues --    3.86724   3.93168   3.96142   4.00287   4.01184
  Beta virt. eigenvalues --    4.04802   4.07571   4.09104   4.11090   4.13276
  Beta virt. eigenvalues --    4.16407   4.24403   4.25869   4.29132   4.32203
  Beta virt. eigenvalues --    4.34471   4.35338   4.36709   4.37025   4.39989
  Beta virt. eigenvalues --    4.41020   4.43146   4.45229   4.49803   4.50310
  Beta virt. eigenvalues --    4.52557   4.53545   4.60891   4.62680   4.68685
  Beta virt. eigenvalues --    4.75376   4.76250   4.79340   4.80938   4.83249
  Beta virt. eigenvalues --    4.89723   4.94587   5.02544   5.05868   5.09315
  Beta virt. eigenvalues --    5.21828   5.26436   5.30290   5.36758   5.42420
  Beta virt. eigenvalues --    5.42643   5.43661   5.47101   5.55412   5.58627
  Beta virt. eigenvalues --    5.59020   5.63391   5.67753   5.71387   5.73241
  Beta virt. eigenvalues --    5.85160   5.96493   5.99841   6.09492   6.12355
  Beta virt. eigenvalues --    6.17679   6.30626   6.37188   6.42255   6.44384
  Beta virt. eigenvalues --    6.52171   6.54277   6.60511   6.66304   6.73138
  Beta virt. eigenvalues --    6.86836   6.89604   6.90543   6.96223   7.02634
  Beta virt. eigenvalues --    7.03813   7.11011   7.20940   7.29326   7.33535
  Beta virt. eigenvalues --    7.36443   7.39663   7.55647  22.41924  22.61570
  Beta virt. eigenvalues --   22.92443  22.97615  23.16130  23.19816  23.57058
  Beta virt. eigenvalues --   23.80247  44.15365  44.23485  44.52764
          Condensed to atoms (all electrons):
               1          2          3          4          5          6
     1  C    5.059657   0.267778  -0.165624  -0.036241   0.015477  -0.001446
     2  O    0.267778   8.054619   0.279554  -0.057255   0.018778  -0.002226
     3  C   -0.165624   0.279554   6.015683   0.105410   0.180032  -0.232655
     4  C   -0.036241  -0.057255   0.105410   5.433264   0.128156   0.115795
     5  C    0.015477   0.018778   0.180032   0.128156   5.511665   0.305973
     6  C   -0.001446  -0.002226  -0.232655   0.115795   0.305973   5.094336
     7  C   -0.002094   0.015670   0.275652  -0.252325   0.081530   0.378613
     8  C   -0.007622  -0.098615  -0.334370   0.309947  -0.251748   0.130204
     9  C   -0.024874  -0.006852  -0.198236   0.037134  -0.016096   0.027720
    10  O   -0.000032  -0.000200   0.002464  -0.000957   0.000356   0.001263
    11  O   -0.008814  -0.013683   0.020099   0.001126  -0.000245   0.000191
    12  H    0.372214  -0.053194   0.040602  -0.009202  -0.007124   0.000146
    13  H    0.362994  -0.033053   0.016702  -0.000293   0.000009  -0.000083
    14  H    0.387835  -0.053459  -0.018086   0.022900  -0.003910   0.001564
    15  H   -0.005532   0.007527  -0.102555   0.433884  -0.057513   0.013484
    16  H    0.000076  -0.000475   0.016762  -0.055903   0.423974  -0.062744
    17  H   -0.000010   0.000021  -0.001666   0.010662  -0.061404   0.421899
    18  H   -0.000078  -0.000233   0.006565  -0.000993   0.008607  -0.060112
    19  H    0.001216   0.000926  -0.001770   0.000072   0.000029   0.000013
               7          8          9         10         11         12
     1  C   -0.002094  -0.007622  -0.024874  -0.000032  -0.008814   0.372214
     2  O    0.015670  -0.098615  -0.006852  -0.000200  -0.013683  -0.053194
     3  C    0.275652  -0.334370  -0.198236   0.002464   0.020099   0.040602
     4  C   -0.252325   0.309947   0.037134  -0.000957   0.001126  -0.009202
     5  C    0.081530  -0.251748  -0.016096   0.000356  -0.000245  -0.007124
     6  C    0.378613   0.130204   0.027720   0.001263   0.000191   0.000146
     7  C    5.675235  -0.197435  -0.127542   0.043469   0.010252   0.000260
     8  C   -0.197435   6.611134   0.262921  -0.244453  -0.194945   0.000283
     9  C   -0.127542   0.262921   4.784440   0.714734   0.349277   0.002808
    10  O    0.043469  -0.244453   0.714734   8.006548  -0.103391   0.000003
    11  O    0.010252  -0.194945   0.349277  -0.103391   8.105861   0.000853
    12  H    0.000260   0.000283   0.002808   0.000003   0.000853   0.636159
    13  H    0.000446  -0.002940   0.000093  -0.000006   0.000015  -0.030985
    14  H   -0.003947   0.022443   0.002688   0.000119   0.008933  -0.051580
    15  H   -0.007603   0.033921   0.001124   0.000012  -0.000022  -0.003558
    16  H    0.010492  -0.005457   0.000096  -0.000001  -0.000002   0.000168
    17  H   -0.056999   0.012957  -0.001055  -0.000175   0.000005   0.000002
    18  H    0.426333  -0.049864  -0.009335   0.021400   0.001348  -0.000005
    19  H   -0.002218   0.041631  -0.047406   0.009364   0.274044  -0.000028
              13         14         15         16         17         18
     1  C    0.362994   0.387835  -0.005532   0.000076  -0.000010  -0.000078
     2  O   -0.033053  -0.053459   0.007527  -0.000475   0.000021  -0.000233
     3  C    0.016702  -0.018086  -0.102555   0.016762  -0.001666   0.006565
     4  C   -0.000293   0.022900   0.433884  -0.055903   0.010662  -0.000993
     5  C    0.000009  -0.003910  -0.057513   0.423974  -0.061404   0.008607
     6  C   -0.000083   0.001564   0.013484  -0.062744   0.421899  -0.060112
     7  C    0.000446  -0.003947  -0.007603   0.010492  -0.056999   0.426333
     8  C   -0.002940   0.022443   0.033921  -0.005457   0.012957  -0.049864
     9  C    0.000093   0.002688   0.001124   0.000096  -0.001055  -0.009335
    10  O   -0.000006   0.000119   0.000012  -0.000001  -0.000175   0.021400
    11  O    0.000015   0.008933  -0.000022  -0.000002   0.000005   0.001348
    12  H   -0.030985  -0.051580  -0.003558   0.000168   0.000002  -0.000005
    13  H    0.615331  -0.025785  -0.000616  -0.000002  -0.000000   0.000004
    14  H   -0.025785   0.571176   0.002505  -0.000050   0.000003  -0.000000
    15  H   -0.000616   0.002505   0.600827  -0.010203  -0.000414   0.000116
    16  H   -0.000002  -0.000050  -0.010203   0.615006  -0.007835  -0.000462
    17  H   -0.000000   0.000003  -0.000414  -0.007835   0.610422  -0.007020
    18  H    0.000004  -0.000000   0.000116  -0.000462  -0.007020   0.541147
    19  H   -0.000140  -0.000651  -0.000007   0.000000  -0.000002  -0.000264
              19
     1  C    0.001216
     2  O    0.000926
     3  C   -0.001770
     4  C    0.000072
     5  C    0.000029
     6  C    0.000013
     7  C   -0.002218
     8  C    0.041631
     9  C   -0.047406
    10  O    0.009364
    11  O    0.274044
    12  H   -0.000028
    13  H   -0.000140
    14  H   -0.000651
    15  H   -0.000007
    16  H    0.000000
    17  H   -0.000002
    18  H   -0.000264
    19  H    0.440030
          Atomic-Atomic Spin Densities.
               1          2          3          4          5          6
     1  C    0.142587   0.014662  -0.062498  -0.019808   0.010433  -0.000094
     2  O    0.014662   0.013820  -0.009134  -0.005358   0.003581   0.000199
     3  C   -0.062498  -0.009134   0.459448   0.000001  -0.015204   0.026606
     4  C   -0.019808  -0.005358   0.000001   0.039319  -0.154459  -0.000796
     5  C    0.010433   0.003581  -0.015204  -0.154459   0.667980  -0.069917
     6  C   -0.000094   0.000199   0.026606  -0.000796  -0.069917  -0.106694
     7  C   -0.008189  -0.003553  -0.029122   0.043301  -0.072883   0.083138
     8  C   -0.002276  -0.003061  -0.184142  -0.001629   0.034493  -0.037883
     9  C   -0.012772  -0.006786  -0.076230   0.009558  -0.002154  -0.001105
    10  O    0.000081   0.000091   0.006414  -0.000083  -0.000130   0.000200
    11  O    0.001422   0.001269   0.005002  -0.000109  -0.000008   0.000026
    12  H   -0.018551  -0.001844   0.010379   0.003469  -0.002539   0.000002
    13  H   -0.026012   0.000073   0.008829   0.000597  -0.000362   0.000006
    14  H   -0.025093  -0.002111   0.011607   0.003554  -0.001385   0.000064
    15  H   -0.002368  -0.000331  -0.000334   0.002147  -0.004240  -0.000886
    16  H    0.000037   0.000020   0.002890  -0.008200   0.014268  -0.005473
    17  H    0.000005   0.000002   0.000301   0.000069  -0.006257   0.001966
    18  H   -0.000212  -0.000117  -0.008211   0.002546  -0.000669   0.002883
    19  H    0.001009   0.000138   0.000073  -0.000110   0.000025  -0.000011
               7          8          9         10         11         12
     1  C   -0.008189  -0.002276  -0.012772   0.000081   0.001422  -0.018551
     2  O   -0.003553  -0.003061  -0.006786   0.000091   0.001269  -0.001844
     3  C   -0.029122  -0.184142  -0.076230   0.006414   0.005002   0.010379
     4  C    0.043301  -0.001629   0.009558  -0.000083  -0.000109   0.003469
     5  C   -0.072883   0.034493  -0.002154  -0.000130  -0.000008  -0.002539
     6  C    0.083138  -0.037883  -0.001105   0.000200   0.000026   0.000002
     7  C    0.331617  -0.160219  -0.001650   0.011418   0.002427   0.000902
     8  C   -0.160219   0.493054   0.104995  -0.030008  -0.025436   0.000660
     9  C   -0.001650   0.104995   0.244077  -0.086758  -0.032447   0.000568
    10  O    0.011418  -0.030008  -0.086758   0.214950   0.010585   0.000000
    11  O    0.002427  -0.025436  -0.032447   0.010585   0.054610  -0.000030
    12  H    0.000902   0.000660   0.000568   0.000000  -0.000030   0.002147
    13  H    0.000230   0.000633   0.001110  -0.000007  -0.000400   0.003912
    14  H    0.002397  -0.007224   0.002513   0.000073   0.001039   0.003711
    15  H    0.000743   0.001691   0.000253  -0.000002  -0.000013   0.000418
    16  H    0.001787  -0.001305  -0.000046   0.000000   0.000000  -0.000014
    17  H    0.000492   0.000093  -0.000012  -0.000001  -0.000000  -0.000001
    18  H    0.009057  -0.011385   0.004658   0.000334   0.000036   0.000014
    19  H   -0.000597   0.003408  -0.004824   0.000073   0.000060  -0.000032
              13         14         15         16         17         18
     1  C   -0.026012  -0.025093  -0.002368   0.000037   0.000005  -0.000212
     2  O    0.000073  -0.002111  -0.000331   0.000020   0.000002  -0.000117
     3  C    0.008829   0.011607  -0.000334   0.002890   0.000301  -0.008211
     4  C    0.000597   0.003554   0.002147  -0.008200   0.000069   0.002546
     5  C   -0.000362  -0.001385  -0.004240   0.014268  -0.006257  -0.000669
     6  C    0.000006   0.000064  -0.000886  -0.005473   0.001966   0.002883
     7  C    0.000230   0.002397   0.000743   0.001787   0.000492   0.009057
     8  C    0.000633  -0.007224   0.001691  -0.001305   0.000093  -0.011385
     9  C    0.001110   0.002513   0.000253  -0.000046  -0.000012   0.004658
    10  O   -0.000007   0.000073  -0.000002   0.000000  -0.000001   0.000334
    11  O   -0.000400   0.001039  -0.000013   0.000000  -0.000000   0.000036
    12  H    0.003912   0.003711   0.000418  -0.000014  -0.000001   0.000014
    13  H    0.010048   0.005281   0.000220  -0.000001  -0.000000   0.000004
    14  H    0.005281   0.007118   0.000167  -0.000002  -0.000001   0.000062
    15  H    0.000220   0.000167  -0.001389  -0.000045   0.000016   0.000024
    16  H   -0.000001  -0.000002  -0.000045  -0.022691  -0.000251   0.000010
    17  H   -0.000000  -0.000001   0.000016  -0.000251   0.005141  -0.000169
    18  H    0.000004   0.000062   0.000024   0.000010  -0.000169  -0.005890
    19  H   -0.000135  -0.000509  -0.000002   0.000000   0.000000  -0.000047
              19
     1  C    0.001009
     2  O    0.000138
     3  C    0.000073
     4  C   -0.000110
     5  C    0.000025
     6  C   -0.000011
     7  C   -0.000597
     8  C    0.003408
     9  C   -0.004824
    10  O    0.000073
    11  O    0.000060
    12  H   -0.000032
    13  H   -0.000135
    14  H   -0.000509
    15  H   -0.000002
    16  H    0.000000
    17  H    0.000000
    18  H   -0.000047
    19  H    0.000276
 Mulliken charges and spin densities:
               1          2
     1  C   -0.214882  -0.007636
     2  O   -0.325628   0.001561
     3  C    0.095437   0.146674
     4  C   -0.185182  -0.085989
     5  C   -0.276548   0.400573
     6  C   -0.131937  -0.107769
     7  C   -0.267790   0.211297
     8  C   -0.037991   0.174460
     9  C    0.248360   0.142946
    10  O   -0.450516   0.127228
    11  O   -0.450902   0.018032
    12  H    0.102178   0.003172
    13  H    0.098308   0.004025
    14  H    0.137300   0.001260
    15  H    0.094624  -0.003932
    16  H    0.076559  -0.019016
    17  H    0.080605   0.001391
    18  H    0.122845  -0.007073
    19  H    0.285159  -0.001206
 Sum of Mulliken charges =  -1.00000   1.00000
 Mulliken charges and spin densities with hydrogens summed into heavy atoms:
               1          2
     1  C    0.122903   0.000822
     2  O   -0.325628   0.001561
     3  C    0.095437   0.146674
     4  C   -0.090557  -0.089921
     5  C   -0.199989   0.381557
     6  C   -0.051331  -0.106378
     7  C   -0.144945   0.204224
     8  C   -0.037991   0.174460
     9  C    0.248360   0.142946
    10  O   -0.450516   0.127228
    11  O   -0.165743   0.016827
 Electronic spatial extent (au):  <R**2>=           1677.1025
 Charge=             -1.0000 electrons
 Dipole moment (field-independent basis, Debye):
    X=              0.9578    Y=              3.7918    Z=              1.3363  Tot=              4.1329
 Quadrupole moment (field-independent basis, Debye-Ang):
   XX=            -78.3530   YY=            -80.5678   ZZ=            -72.2702
   XY=              5.1858   XZ=              1.6895   YZ=              0.3931
 Traceless Quadrupole moment (field-independent basis, Debye-Ang):
   XX=             -1.2893   YY=             -3.5041   ZZ=              4.7935
   XY=              5.1858   XZ=              1.6895   YZ=              0.3931
 Octapole moment (field-independent basis, Debye-Ang**2):
  XXX=             60.7452  YYY=             32.4985  ZZZ=             -2.5872  XYY=            -11.1600
  XXY=             13.7513  XXZ=              1.9002  XZZ=             15.5054  YZZ=              0.9720
  YYZ=              6.5294  XYZ=             -0.1507
 Hexadecapole moment (field-independent basis, Debye-Ang**3):
 XXXX=          -1173.2385 YYYY=          -1031.0097 ZZZZ=           -126.1664 XXXY=             -1.0355
 XXXZ=              4.6126 YYYX=             46.7121 YYYZ=             -9.0823 ZZZX=              2.3072
 ZZZY=              0.6885 XXYY=           -403.2888 XXZZ=           -241.3154 YYZZ=           -193.9212
 XXYZ=            -10.4535 YYXZ=              5.3837 ZZXY=             -6.2358
 N-N= 6.012380960696D+02 E-N=-2.468727493625D+03  KE= 5.333203653968D+02
                          Isotropic Fermi Contact Couplings
        Atom                 a.u.       MegaHertz       Gauss      10(-4) cm-1
     1  C(13)              0.01847      20.76304       7.40877       6.92580
     2  O(17)              0.00368      -2.23348      -0.79696      -0.74501
     3  C(13)              0.00905      10.17131       3.62938       3.39278
     4  C(13)             -0.01436     -16.14099      -5.75951      -5.38405
     5  C(13)              0.03491      39.24343      14.00303      13.09020
     6  C(13)             -0.01845     -20.74328      -7.40172      -6.91921
     7  C(13)              0.01301      14.62608       5.21895       4.87874
     8  C(13)              0.00833       9.36772       3.34264       3.12474
     9  C(13)              0.01305      14.66566       5.23307       4.89194
    10  O(17)              0.02485     -15.06427      -5.37531      -5.02490
    11  O(17)              0.00467      -2.83152      -1.01036      -0.94449
    12  H(1)               0.00007       0.30439       0.10861       0.10153
    13  H(1)               0.00021       0.95769       0.34173       0.31945
    14  H(1)              -0.00008      -0.33705      -0.12027      -0.11243
    15  H(1)              -0.00027      -1.20832      -0.43116      -0.40305
    16  H(1)              -0.00530     -23.67081      -8.44633      -7.89573
    17  H(1)               0.00025       1.13740       0.40585       0.37940
    18  H(1)              -0.00279     -12.47607      -4.45177      -4.16157
    19  H(1)              -0.00056      -2.48148      -0.88545      -0.82773
 --------------------------------------------------------
       Center         ----  Spin Dipole Couplings  ----
                      3XX-RR        3YY-RR        3ZZ-RR
 --------------------------------------------------------
     1   Atom        0.000013      0.002129     -0.002142
     2   Atom       -0.017285     -0.003889      0.021173
     3   Atom       -0.066693     -0.059881      0.126574
     4   Atom        0.006214     -0.003876     -0.002337
     5   Atom       -0.162927     -0.164315      0.327242
     6   Atom        0.020574      0.015447     -0.036021
     7   Atom       -0.077318     -0.074651      0.151969
     8   Atom       -0.092961     -0.101048      0.194009
     9   Atom       -0.101426     -0.102886      0.204312
    10   Atom       -0.281041     -0.267671      0.548712
    11   Atom       -0.075630     -0.084205      0.159835
    12   Atom       -0.001291      0.003299     -0.002008
    13   Atom       -0.000296      0.002125     -0.001828
    14   Atom       -0.000477      0.001835     -0.001358
    15   Atom        0.000947      0.002943     -0.003889
    16   Atom        0.022748     -0.023014      0.000266
    17   Atom        0.003512      0.000724     -0.004236
    18   Atom       -0.005794      0.009759     -0.003965
    19   Atom        0.010154     -0.004961     -0.005193
 --------------------------------------------------------
                        XY            XZ            YZ
 --------------------------------------------------------
     1   Atom        0.004176      0.003864      0.003722
     2   Atom       -0.004049      0.002795     -0.013497
     3   Atom       -0.000445      0.012559      0.052338
     4   Atom        0.001247      0.000005     -0.001774
     5   Atom        0.001539      0.031733      0.088892
     6   Atom       -0.006209     -0.005566     -0.008146
     7   Atom        0.005091      0.028071      0.056992
     8   Atom       -0.000717      0.026132      0.059522
     9   Atom       -0.006026     -0.016775     -0.044138
    10   Atom        0.003926      0.016087     -0.155931
    11   Atom        0.001948     -0.034998     -0.048179
    12   Atom        0.000639     -0.000686      0.002354
    13   Atom        0.002005      0.000072      0.000102
    14   Atom        0.001763      0.001866      0.002370
    15   Atom       -0.002776      0.000318     -0.000929
    16   Atom       -0.011177      0.000719      0.005160
    17   Atom        0.000073     -0.000701     -0.000912
    18   Atom       -0.006467      0.001792     -0.001834
    19   Atom       -0.001341      0.000536     -0.000485
 --------------------------------------------------------


 ---------------------------------------------------------------------------------
              Anisotropic Spin Dipole Couplings in Principal Axis System
 ---------------------------------------------------------------------------------

       Atom             a.u.   MegaHertz   Gauss  10(-4) cm-1        Axes

              Baa    -0.0051    -0.689    -0.246    -0.230 -0.5276 -0.1271  0.8399
     1 C(13)  Bbb    -0.0030    -0.403    -0.144    -0.134 -0.6306  0.7211 -0.2870
              Bcc     0.0081     1.092     0.390     0.364  0.5692  0.6811  0.4606
 
              Baa    -0.0184     1.335     0.476     0.445  0.9544  0.2968  0.0338
     2 O(17)  Bbb    -0.0090     0.652     0.233     0.217 -0.2837  0.8653  0.4133
              Bcc     0.0275    -1.986    -0.709    -0.663  0.0934 -0.4040  0.9100
 
              Baa    -0.0752   -10.094    -3.602    -3.367  0.4171  0.8731 -0.2524
     3 C(13)  Bbb    -0.0657    -8.821    -3.148    -2.942  0.9070 -0.4175  0.0544
              Bcc     0.1410    18.915     6.749     6.309  0.0579  0.2516  0.9661
 
              Baa    -0.0051    -0.689    -0.246    -0.230 -0.0926  0.8411  0.5329
     4 C(13)  Bbb    -0.0012    -0.165    -0.059    -0.055  0.0876 -0.5263  0.8458
              Bcc     0.0064     0.855     0.305     0.285  0.9918  0.1250 -0.0249
 
              Baa    -0.1809   -24.272    -8.661    -8.096  0.2397  0.9537 -0.1818
     5 C(13)  Bbb    -0.1639   -21.995    -7.848    -7.337  0.9689 -0.2469 -0.0179
              Bcc     0.3448    46.266    16.509    15.433  0.0620  0.1719  0.9832
 
              Baa    -0.0380    -5.099    -1.819    -1.701  0.1104  0.1623  0.9805
     6 C(13)  Bbb     0.0133     1.780     0.635     0.594  0.5438  0.8159 -0.1963
              Bcc     0.0247     3.318     1.184     1.107  0.8319 -0.5549 -0.0018
 
              Baa    -0.0885   -11.872    -4.236    -3.960  0.1886  0.9504 -0.2473
     7 C(13)  Bbb    -0.0803   -10.778    -3.846    -3.595  0.9753 -0.2108 -0.0661
              Bcc     0.1688    22.650     8.082     7.555  0.1150  0.2287  0.9667
 
              Baa    -0.1143   -15.335    -5.472    -5.115  0.2827  0.9371 -0.2049
     8 C(13)  Bbb    -0.0935   -12.540    -4.475    -4.183  0.9555 -0.2939 -0.0260
              Bcc     0.2077    27.875     9.947     9.298  0.0846  0.1884  0.9784
 
              Baa    -0.1146   -15.384    -5.489    -5.132  0.5548  0.8197  0.1426
     9 C(13)  Bbb    -0.0967   -12.974    -4.629    -4.328  0.8305 -0.5559 -0.0352
              Bcc     0.2113    28.358    10.119     9.459 -0.0504 -0.1380  0.9892
 
              Baa    -0.2990    21.638     7.721     7.218 -0.3571  0.9174  0.1755
    10 O(17)  Bbb    -0.2787    20.168     7.196     6.727  0.9339  0.3543  0.0486
              Bcc     0.5777   -41.805   -14.917   -13.945  0.0176 -0.1813  0.9833
 
              Baa    -0.0948     6.862     2.449     2.289  0.3014  0.9285  0.2171
    11 O(17)  Bbb    -0.0790     5.717     2.040     1.907  0.9435 -0.3233  0.0730
              Bcc     0.1738   -12.579    -4.489    -4.196 -0.1380 -0.1828  0.9734
 
              Baa    -0.0033    -1.752    -0.625    -0.584  0.4024 -0.3426  0.8490
    12 H(1)   Bbb    -0.0009    -0.497    -0.177    -0.166  0.9132  0.0841 -0.3989
              Bcc     0.0042     2.249     0.803     0.750  0.0653  0.9357  0.3467
 
              Baa    -0.0018    -0.977    -0.349    -0.326 -0.0382 -0.0065  0.9993
    13 H(1)   Bbb    -0.0014    -0.762    -0.272    -0.254  0.8701 -0.4920  0.0300
              Bcc     0.0033     1.739     0.621     0.580  0.4914  0.8706  0.0244
 
              Baa    -0.0030    -1.622    -0.579    -0.541 -0.4490 -0.2542  0.8566
    14 H(1)   Bbb    -0.0013    -0.698    -0.249    -0.233  0.7679 -0.5999  0.2244
              Bcc     0.0043     2.320     0.828     0.774  0.4569  0.7586  0.4645
 
              Baa    -0.0040    -2.142    -0.764    -0.714  0.0136  0.1377  0.9904
    15 H(1)   Bbb    -0.0010    -0.523    -0.187    -0.175  0.8229  0.5611 -0.0894
              Bcc     0.0050     2.665     0.951     0.889 -0.5680  0.8162 -0.1057
 
              Baa    -0.0266   -14.193    -5.064    -4.734  0.2195  0.9570 -0.1897
    16 H(1)   Bbb     0.0013     0.672     0.240     0.224  0.0611  0.1806  0.9817
              Bcc     0.0253    13.521     4.824     4.510  0.9737 -0.2271 -0.0188
 
              Baa    -0.0045    -2.378    -0.848    -0.793  0.0848  0.1717  0.9815
    17 H(1)   Bbb     0.0009     0.466     0.166     0.155 -0.0713  0.9836 -0.1659
              Bcc     0.0036     1.912     0.682     0.638  0.9938  0.0559 -0.0956
 
              Baa    -0.0084    -4.483    -1.600    -1.495  0.9206  0.3029 -0.2466
    18 H(1)   Bbb    -0.0040    -2.149    -0.767    -0.717  0.1861  0.2149  0.9588
              Bcc     0.0124     6.632     2.367     2.212 -0.3434  0.9285 -0.1414
 
              Baa    -0.0056    -2.981    -1.064    -0.994  0.0295  0.6504  0.7590
    19 H(1)   Bbb    -0.0047    -2.511    -0.896    -0.838  0.0915  0.7544 -0.6500
              Bcc     0.0103     5.492     1.960     1.832  0.9954 -0.0887  0.0373
 

 ---------------------------------------------------------------------------------

   1 Symmetry operations used in ECPInt.
 ECPInt:  NShTT=   11781 NPrTT=   36312 LenC2=   11329 LenP2D=   26919.
 LDataN:  DoStor=T MaxTD1= 7 Len=  274
 Calling FoFJK, ICntrl=      2127 FMM=F ISym2X=0 I1Cent= 0 IOpClX= 1 NMat=1 NMatS=1 NMatT=0.
 ***** Axes restored to original set *****
 -------------------------------------------------------------------
 Center     Atomic                   Forces (Hartrees/Bohr)
 Number     Number              X              Y              Z
 -------------------------------------------------------------------
      1        6          -0.001900395   -0.008153319   -0.007313450
      2        8           0.011480763    0.018539627    0.000797742
      3        6          -0.039796166    0.015287544    0.003341264
      4        6           0.031651106    0.008237173   -0.003325814
      5        6          -0.031421574    0.000379382    0.002807429
      6        6           0.018724398   -0.011084232   -0.000072929
      7        6          -0.033657665   -0.019143434    0.001840247
      8        6           0.074543244   -0.012765140    0.000634043
      9        6          -0.081984934    0.037302197   -0.001915001
     10        8           0.027145519   -0.049893112   -0.001277271
     11        8           0.030860750    0.020454365    0.004937430
     12        1          -0.000911814    0.000181769    0.000599683
     13        1           0.001978228    0.001991649   -0.000185511
     14        1           0.000406503   -0.000690799    0.000936886
     15        1          -0.000222060    0.001896069   -0.001058818
     16        1          -0.001249535    0.000231485    0.000076270
     17        1          -0.001309788   -0.001835054    0.000610881
     18        1          -0.000028824   -0.000255523    0.000154618
     19        1          -0.004307756   -0.000680646   -0.001587700
 -------------------------------------------------------------------
 Cartesian Forces:  Max     0.081984934 RMS     0.020936144

 GradGradGradGradGradGradGradGradGradGradGradGradGradGradGradGradGradGrad
 Berny optimization.
 FormGI is forming the generalized inverse of G from B-inverse, IUseBI=4.
 Internal  Forces:  Max     0.055327413 RMS     0.010510729
 Search for a local minimum.
 Step number   1 out of a maximum of   93
 All quantities printed in internal units (Hartrees-Bohrs-Radians)
 Mixed Optimization -- RFO/linear search
 Second derivative matrix not updated -- first step.
 ITU=  0
     Eigenvalues ---    0.00902   0.01411   0.01434   0.01755   0.02145
     Eigenvalues ---    0.02174   0.02176   0.02228   0.02234   0.02251
     Eigenvalues ---    0.02264   0.02272   0.02291   0.02450   0.10199
     Eigenvalues ---    0.10637   0.15995   0.15998   0.16000   0.16000
     Eigenvalues ---    0.16000   0.16000   0.16000   0.16000   0.21999
     Eigenvalues ---    0.22485   0.24468   0.24947   0.24991   0.24997
     Eigenvalues ---    0.25000   0.25000   0.33483   0.34416   0.34620
     Eigenvalues ---    0.35146   0.35698   0.35701   0.35770   0.35830
     Eigenvalues ---    0.42542   0.42644   0.43017   0.46420   0.46959
     Eigenvalues ---    0.47820   0.48437   0.52273   0.53725   0.56608
     Eigenvalues ---    1.03990
 RFO step:  Lambda=-1.90322086D-02 EMin= 9.02299463D-03
 Linear search not attempted -- first point.
 Iteration  1 RMS(Cart)=  0.05618712 RMS(Int)=  0.00247473
 Iteration  2 RMS(Cart)=  0.00295312 RMS(Int)=  0.00011549
 Iteration  3 RMS(Cart)=  0.00000919 RMS(Int)=  0.00011528
 Iteration  4 RMS(Cart)=  0.00000000 RMS(Int)=  0.00011528
 Variable       Old X    -DE/DX   Delta X   Delta X   Delta X     New X
                                 (Linear)    (Quad)   (Total)
    R1        2.68239  -0.00866   0.00000  -0.01949  -0.01949   2.66290
    R2        2.06633   0.00105   0.00000   0.00289   0.00289   2.06922
    R3        2.05439   0.00267   0.00000   0.00721   0.00721   2.06160
    R4        2.06296   0.00122   0.00000   0.00334   0.00334   2.06630
    R5        2.57639   0.01697   0.00000   0.03133   0.03133   2.60772
    R6        2.62928  -0.01089   0.00000  -0.02232  -0.02234   2.60694
    R7        2.64150   0.02862   0.00000   0.06037   0.06041   2.70191
    R8        2.61481   0.02424   0.00000   0.04750   0.04745   2.66226
    R9        2.04557   0.00204   0.00000   0.00542   0.00542   2.05099
   R10        2.62716   0.01673   0.00000   0.03342   0.03339   2.66054
   R11        2.04552   0.00127   0.00000   0.00338   0.00338   2.04890
   R12        2.61094  -0.00539   0.00000  -0.01056  -0.01054   2.60040
   R13        2.04348   0.00231   0.00000   0.00612   0.00612   2.04961
   R14        2.63690   0.03247   0.00000   0.06790   0.06795   2.70485
   R15        2.04443   0.00025   0.00000   0.00066   0.00066   2.04509
   R16        2.81511  -0.02915   0.00000  -0.08238  -0.08238   2.73273
   R17        2.27082   0.05533   0.00000   0.05225   0.05225   2.32307
   R18        2.53730   0.03257   0.00000   0.05566   0.05566   2.59296
   R19        1.82983  -0.00357   0.00000  -0.00642  -0.00642   1.82341
    A1        1.93333  -0.00023   0.00000  -0.00143  -0.00144   1.93189
    A2        1.86069   0.00146   0.00000   0.00890   0.00889   1.86958
    A3        1.92816  -0.00044   0.00000  -0.00312  -0.00313   1.92504
    A4        1.91265   0.00000   0.00000   0.00131   0.00130   1.91395
    A5        1.91490  -0.00033   0.00000  -0.00323  -0.00324   1.91165
    A6        1.91338  -0.00042   0.00000  -0.00211  -0.00211   1.91127
    A7        1.99618  -0.00249   0.00000  -0.00926  -0.00926   1.98692
    A8        2.07065  -0.00077   0.00000  -0.00298  -0.00299   2.06766
    A9        2.12228  -0.00426   0.00000  -0.01600  -0.01601   2.10626
   A10        2.08849   0.00505   0.00000   0.01941   0.01942   2.10790
   A11        2.10345   0.00484   0.00000   0.01819   0.01810   2.12155
   A12        2.06349  -0.00286   0.00000  -0.01161  -0.01158   2.05191
   A13        2.11597  -0.00200   0.00000  -0.00678  -0.00675   2.10922
   A14        2.09712  -0.00664   0.00000  -0.03092  -0.03103   2.06609
   A15        2.08877   0.00338   0.00000   0.01577   0.01582   2.10459
   A16        2.09719   0.00326   0.00000   0.01508   0.01512   2.11231
   A17        2.08524   0.00587   0.00000   0.02298   0.02294   2.10818
   A18        2.10135  -0.00264   0.00000  -0.00982  -0.00982   2.09153
   A19        2.09657  -0.00323   0.00000  -0.01311  -0.01310   2.08347
   A20        2.11297   0.00230   0.00000   0.01065   0.01070   2.12368
   A21        2.11439  -0.00128   0.00000  -0.00605  -0.00609   2.10831
   A22        2.05581  -0.00102   0.00000  -0.00462  -0.00465   2.05116
   A23        2.07875  -0.01142   0.00000  -0.04055  -0.04047   2.03828
   A24        2.17764   0.00530   0.00000   0.01875   0.01871   2.19635
   A25        2.02669   0.00612   0.00000   0.02178   0.02174   2.04843
   A26        2.15538   0.01084   0.00000   0.04005   0.03992   2.19530
   A27        2.00106   0.00551   0.00000   0.02020   0.02009   2.02115
   A28        2.12611  -0.01638   0.00000  -0.06120  -0.06129   2.06481
   A29        1.85389  -0.00497   0.00000  -0.02776  -0.02776   1.82614
    D1       -1.03906   0.00043   0.00000   0.00113   0.00113  -1.03793
    D2       -3.11884  -0.00032   0.00000  -0.00501  -0.00502  -3.12386
    D3        1.08652  -0.00044   0.00000  -0.00604  -0.00603   1.08049
    D4        1.43447   0.00256   0.00000   0.06537   0.06540   1.49987
    D5       -1.77133   0.00312   0.00000   0.07396   0.07392  -1.69741
    D6        3.07872  -0.00017   0.00000  -0.00154  -0.00156   3.07716
    D7       -0.03795   0.00021   0.00000   0.00758   0.00757  -0.03038
    D8        0.00006  -0.00037   0.00000  -0.00865  -0.00875  -0.00869
    D9       -3.11661   0.00000   0.00000   0.00047   0.00038  -3.11623
   D10       -3.05617   0.00016   0.00000   0.00633   0.00628  -3.04989
   D11        0.06942   0.00018   0.00000   0.00482   0.00482   0.07424
   D12        0.02057   0.00052   0.00000   0.01419   0.01415   0.03472
   D13       -3.13702   0.00054   0.00000   0.01268   0.01269  -3.12433
   D14       -0.01238  -0.00019   0.00000  -0.00270  -0.00274  -0.01512
   D15       -3.13844   0.00010   0.00000   0.00298   0.00300  -3.13544
   D16        3.10353  -0.00058   0.00000  -0.01215  -0.01223   3.09130
   D17       -0.02254  -0.00030   0.00000  -0.00647  -0.00649  -0.02902
   D18        0.00367   0.00032   0.00000   0.00764   0.00768   0.01135
   D19       -3.12973   0.00007   0.00000   0.00089   0.00096  -3.12877
   D20        3.12966   0.00004   0.00000   0.00193   0.00191   3.13158
   D21       -0.00374  -0.00022   0.00000  -0.00482  -0.00481  -0.00854
   D22        0.01748  -0.00001   0.00000  -0.00133  -0.00125   0.01624
   D23       -3.12717  -0.00029   0.00000  -0.00772  -0.00766  -3.13483
   D24       -3.13228   0.00024   0.00000   0.00541   0.00545  -3.12682
   D25        0.00626  -0.00003   0.00000  -0.00098  -0.00096   0.00530
   D26       -0.02957  -0.00032   0.00000  -0.00919  -0.00914  -0.03872
   D27        3.12666  -0.00035   0.00000  -0.00784  -0.00785   3.11881
   D28        3.11498  -0.00006   0.00000  -0.00300  -0.00293   3.11205
   D29       -0.01197  -0.00008   0.00000  -0.00165  -0.00163  -0.01361
   D30       -2.79317  -0.00364   0.00000  -0.12524  -0.12551  -2.91868
   D31        0.38643  -0.00249   0.00000  -0.09572  -0.09546   0.29097
   D32        0.33285  -0.00377   0.00000  -0.12723  -0.12749   0.20536
   D33       -2.77074  -0.00261   0.00000  -0.09771  -0.09744  -2.86818
   D34        3.12734   0.00079   0.00000   0.01056   0.01114   3.13848
   D35        0.02304   0.00128   0.00000   0.03712   0.03654   0.05958
         Item               Value     Threshold  Converged?
 Maximum Force            0.055327     0.000450     NO 
 RMS     Force            0.010511     0.000300     NO 
 Maximum Displacement     0.301860     0.001800     NO 
 RMS     Displacement     0.056466     0.001200     NO 
 Predicted change in Energy=-1.048817D-02
 GradGradGradGradGradGradGradGradGradGradGradGradGradGradGradGradGradGrad

                          Input orientation:                          
 ---------------------------------------------------------------------
 Center     Atomic      Atomic             Coordinates (Angstroms)
 Number     Number       Type             X           Y           Z
 ---------------------------------------------------------------------
      1          6           0        0.843498    2.547301    0.492939
      2          8           0        0.457978    1.748297   -0.601895
      3          6           0       -0.413926    0.731296   -0.270617
      4          6           0       -1.765015    1.008060   -0.237795
      5          6           0       -2.717713    0.001946    0.016830
      6          6           0       -2.262264   -1.314307    0.222317
      7          6           0       -0.918315   -1.607975    0.188668
      8          6           0        0.067207   -0.594323   -0.034957
      9          6           0        1.454612   -1.001956   -0.023096
     10          8           0        1.863360   -2.161185   -0.041331
     11          8           0        2.373492    0.010136    0.095601
     12          1           0       -0.030903    3.014676    0.957664
     13          1           0        1.511108    3.319369    0.107731
     14          1           0        1.373078    1.943721    1.235128
     15          1           0       -2.074229    2.026990   -0.447855
     16          1           0       -3.776248    0.236014    0.033368
     17          1           0       -2.976075   -2.109444    0.408322
     18          1           0       -0.568490   -2.620784    0.340422
     19          1           0        3.229239   -0.435620    0.089038
 ---------------------------------------------------------------------
                    Distance matrix (angstroms):
                    1          2          3          4          5
     1  C    0.000000
     2  O    1.409147   0.000000
     3  C    2.337093   1.379946   0.000000
     4  C    3.115698   2.371121   1.379535   0.000000
     5  C    4.403150   3.676625   2.433518   1.408805   0.000000
     6  C    4.962963   4.178347   2.800684   2.419162   1.407899
     7  C    4.523591   3.712645   2.436707   2.782518   2.420580
     8  C    3.278887   2.441718   1.429787   2.442500   2.848508
     9  C    3.638266   2.981976   2.560638   3.801613   4.291586
    10  O    4.847206   4.192062   3.688503   4.821599   5.066434
    11  O    2.989308   2.678973   2.902393   4.270157   5.091821
    12  H    1.094982   2.067594   2.620917   2.909085   4.144956
    13  H    1.090954   2.020129   3.247619   4.024242   5.375546
    14  H    1.093439   2.061614   2.632608   3.590625   4.689276
    15  H    3.109492   2.552150   2.113490   1.085338   2.175042
    16  H    5.186068   4.540840   3.412172   2.171323   1.084231
    17  H    6.023418   5.262644   3.885277   3.406312   2.162865
    18  H    5.359671   4.585898   3.410821   3.864520   3.406257
    19  H    3.840926   3.595382   3.842356   5.208992   5.963465
                    6          7          8          9         10
     6  C    0.000000
     7  C    1.376072   0.000000
     8  C    2.451734   1.431346   0.000000
     9  C    3.738042   2.458228   1.446098   0.000000
    10  O    4.219892   2.845462   2.383540   1.229316   0.000000
    11  O    4.822908   3.669187   2.387753   1.372137   2.234641
    12  H    4.925424   4.769461   3.744302   4.393402   5.601407
    13  H    5.976824   5.494303   4.173991   4.323675   5.493886
    14  H    4.985604   4.354320   3.124113   3.204183   4.326659
    15  H    3.413027   3.867075   3.409914   4.669867   5.762871
    16  H    2.175165   3.404731   3.932718   5.375654   6.128403
    17  H    1.084605   2.129342   3.428360   4.587335   4.860555
    18  H    2.142359   1.082215   2.156748   2.616427   2.504168
    19  H    5.562954   4.311211   3.168439   1.866175   2.204585
                   11         12         13         14         15
    11  O    0.000000
    12  H    3.943543   0.000000
    13  H    3.419778   1.786903   0.000000
    14  H    2.457255   1.787483   1.783952   0.000000
    15  H    4.913783   2.669492   3.851436   3.837094   0.000000
    16  H    6.154201   4.754250   6.121172   5.556622   2.517149
    17  H    5.762663   5.935691   7.049623   6.002241   4.319312
    18  H    3.954356   5.694594   6.297960   5.040326   4.948781
    19  H    0.964907   4.825721   4.129439   3.228021   5.871922
                   16         17         18         19
    16  H    0.000000
    17  H    2.506400   0.000000
    18  H    4.306424   2.462224   0.000000
    19  H    7.037829   6.435025   4.388721   0.000000
 Stoichiometry    C8H8O3(1-,2)
 Framework group  C1[X(C8H8O3)]
 Deg. of freedom    51
 Full point group                 C1      NOp   1
 Largest Abelian subgroup         C1      NOp   1
 Largest concise Abelian subgroup C1      NOp   1
                         Standard orientation:                         
 ---------------------------------------------------------------------
 Center     Atomic      Atomic             Coordinates (Angstroms)
 Number     Number       Type             X           Y           Z
 ---------------------------------------------------------------------
      1          6           0        0.912767    2.505692    0.526532
      2          8           0        0.499051    1.737005   -0.579657
      3          6           0       -0.396643    0.736995   -0.260338
      4          6           0       -1.739831    1.047921   -0.212523
      5          6           0       -2.716539    0.062277    0.030953
      6          6           0       -2.294000   -1.268828    0.209277
      7          6           0       -0.958393   -1.596451    0.160384
      8          6           0        0.051537   -0.604686   -0.052205
      9          6           0        1.427941   -1.048169   -0.057975
     10          8           0        1.806320   -2.217044   -0.100150
     11          8           0        2.373586   -0.062482    0.072158
     12          1           0        0.054038    2.986948    1.006076
     13          1           0        1.597508    3.267152    0.150384
     14          1           0        1.431634    1.875205    1.253766
     15          1           0       -2.023938    2.078159   -0.401867
     16          1           0       -3.768500    0.323270    0.059550
     17          1           0       -3.026906   -2.048521    0.386185
     18          1           0       -0.633935   -2.620556    0.291244
     19          1           0        3.217407   -0.530000    0.051217
 ---------------------------------------------------------------------
 Rotational constants (GHZ):           1.4779939           1.1492867           0.6708354
 Standard basis: def2TZVP (5D, 7F)
 There are   444 symmetry adapted cartesian basis functions of A   symmetry.
 There are   389 symmetry adapted basis functions of A   symmetry.
   389 basis functions,   625 primitive gaussians,   444 cartesian basis functions
    41 alpha electrons       40 beta electrons
       nuclear repulsion energy       597.7583898470 Hartrees.
 NAtoms=   19 NActive=   19 NUniq=   19 SFac= 1.00D+00 NAtFMM=   60 NAOKFM=F Big=F
 Integral buffers will be    131072 words long.
 Raffenetti 2 integral format.
 Two-electron integral symmetry is turned on.
 One-electron integrals computed using PRISM.
   1 Symmetry operations used in ECPInt.
 ECPInt:  NShTT=   11781 NPrTT=   36312 LenC2=   11318 LenP2D=   26860.
 LDataN:  DoStor=T MaxTD1= 6 Len=  172
 NBasis=   389 RedAO= T EigKep=  9.11D-06  NBF=   389
 NBsUse=   389 1.00D-06 EigRej= -1.00D+00 NBFU=   389
 Initial guess from the checkpoint file:  "/tmp/Gau-3425966.chk"
 B after Tr=     0.000000    0.000000   -0.000000
         Rot=    0.999939   -0.002938   -0.001217    0.010543 Ang=  -1.26 deg.
 Initial guess <Sx>= 0.0000 <Sy>= 0.0000 <Sz>= 0.5000 <S**2>= 0.7618 S= 0.5059
 ExpMin= 9.52D-02 ExpMax= 2.70D+04 ExpMxC= 9.22D+02 IAcc=3 IRadAn=         5 AccDes= 0.00D+00
 Harris functional with IExCor= 1009 and IRadAn=       5 diagonalized for initial guess.
 HarFok:  IExCor= 1009 AccDes= 0.00D+00 IRadAn=         5 IDoV= 1 UseB2=F ITyADJ=14
 ICtDFT=  3500011 ScaDFX=  1.000000  1.000000  1.000000  1.000000
 FoFCou: FMM=F IPFlag=           0 FMFlag=      100000 FMFlg1=           0
         NFxFlg=           0 DoJE=T BraDBF=F KetDBF=T FulRan=T
[...]
 399125,-0.00238277,0.08846894,-0.11591839,0.01404086,-0.03762822,0.667
 48045,-0.00014659,-0.00194445,-0.00142527,0.01105084,0.00337487,0.0063
 6170,-0.02528993,0.01313711,-0.06570451,0.01490606,-0.13533283,0.14782
 872,-0.00130333,0.00015979,0.00051024,-0.00286759,-0.00122421,-0.00052
 144,-0.04475650,-0.01932729,0.00452056,-0.19100468,-0.11158094,0.02692
 275,0.71249661,0.00185990,-0.00082016,0.00085061,-0.00076461,-0.002120
 39,0.00176390,-0.05278918,0.02082298,-0.00239061,-0.04579872,-0.195434
 07,0.03683818,-0.02367431,0.54055004,0.00134857,0.00116481,-0.00022122
 ,-0.00204235,0.00140105,0.00762965,0.01302066,-0.00387317,0.00566192,0
 .01059718,0.03830574,-0.04770183,0.01379938,-0.12563164,0.09974317,0.0
 0139860,-0.00030105,0.00184305,-0.00473920,-0.00387409,-0.00030658,-0.
 02780173,0.01405584,-0.00248451,0.05071771,0.00382542,-0.00143263,-0.1
 3661778,0.01348251,-0.00478050,0.71191852,-0.00073423,0.00068908,-0.00
 059374,0.00240301,0.00202723,-0.00001480,0.02236894,-0.00597548,0.0000
 4206,-0.04093684,-0.05781274,0.01542883,0.08356623,-0.24159008,0.05621
 293,0.05022359,0.61490365,0.00007265,-0.00034780,0.00012673,-0.0004334
 4,-0.00026299,-0.00059281,-0.00611306,0.00050507,-0.00156980,0.0112305
 8,0.01542083,-0.00347392,-0.02359599,0.05560445,-0.05469499,-0.0114770
 5,-0.13554680,0.15005149,-0.00124659,-0.00006124,-0.00198973,0.0014504
 4,0.00891584,-0.00075439,0.04597745,-0.02805342,0.00662269,-0.04179023
 ,-0.01399896,0.00387620,-0.01652237,0.07433401,-0.01984280,-0.38300690
 ,0.01179017,-0.00458835,0.72483382,0.00093618,0.00039679,0.00131074,0.
 00036151,-0.00545148,0.00211363,-0.00763735,-0.04001971,0.00969152,0.0
 0390221,0.00669660,-0.00210292,0.03594736,-0.02046800,0.00819420,0.057
 01209,-0.10974740,0.01499557,-0.06342896,0.62554200,-0.00019896,0.0007
 7745,-0.00030094,-0.00008177,0.00156747,0.00442537,0.00205594,0.009449
 03,-0.00530840,-0.00146834,-0.00287540,-0.00185599,-0.01027705,0.00987
 061,0.00715592,-0.01439730,0.01383000,-0.05593912,0.01221993,-0.137597
 29,0.15051724,0.00210460,-0.00057900,0.00396896,0.01039095,-0.03029577
 ,0.00479267,-0.14666921,0.07577276,-0.01881226,-0.00450134,0.03352840,
 -0.00777527,-0.00469575,-0.00645890,0.00105857,-0.03277018,-0.02092989
 ,0.00651177,-0.18102920,-0.09122874,0.02579975,0.70105960,0.00136435,0
 .00002676,0.00276454,-0.00121419,-0.03139002,0.00744486,0.04045884,-0.
 21139484,0.03893974,0.03966811,-0.00602898,0.00307474,-0.00174406,-0.0
 1702799,0.00309415,-0.02941734,0.01842255,-0.00291414,-0.05613150,-0.1
 8184140,0.03633659,-0.04243424,0.58200526,-0.00235795,-0.00079808,-0.0
 0066017,0.00159611,0.00968932,0.00151841,-0.00849407,0.03804775,-0.060
 61400,-0.01121227,0.00281817,0.00840893,0.00113839,0.00268630,-0.00688
 799,0.00715187,-0.00228361,0.00541753,0.01864843,0.03678186,-0.0609497
 0,-0.01224390,-0.11882891,0.14159493,0.00285666,-0.00012357,0.00444824
 ,-0.01119108,-0.00951650,-0.00022547,0.00519566,0.02220642,-0.00402015
 ,-0.00836425,-0.00915797,0.00188085,0.01080013,0.00440042,-0.00049191,
 -0.00049211,0.00087810,-0.00008247,-0.03332042,-0.00365437,0.00340089,
 -0.29256112,0.05048100,-0.00323129,0.71550081,0.00032184,-0.00168190,-
 0.00060331,-0.00266484,0.00283970,0.00083851,0.02593425,0.00561186,-0.
 00420810,0.00926632,-0.00241454,0.00123155,-0.00840646,0.00094781,-0.0
 0142849,0.00228879,-0.01366092,0.00427380,-0.02600820,0.01376701,-0.00
 190099,0.05062695,-0.11479135,0.01339089,-0.15162630,0.69981376,0.0000
 7530,0.00017076,-0.00016415,0.00179663,-0.00073185,-0.00110864,-0.0094
 5901,-0.00310592,-0.00126455,-0.00193359,0.00175705,0.00187038,0.00160
 217,-0.00007862,-0.00157291,0.00006437,0.00305607,0.00138570,0.0071508
 5,-0.00214225,0.00431528,0.00137375,0.01152432,-0.06371994,0.00850904,
 -0.14441503,0.20180456,-0.00112096,-0.00022066,-0.00178188,0.00431943,
 0.00326062,0.00040755,-0.01081383,-0.00742988,0.00197103,0.00518441,0.
 00650411,-0.00137135,-0.00499594,-0.00349130,0.00059942,0.00069905,0.0
 0172122,-0.00050819,-0.00185870,-0.00219759,0.00051596,-0.01949125,0.0
 5213737,-0.01155789,-0.17344530,0.15244921,-0.03608692,0.17241505,0.00
 048602,0.00052606,0.00135291,-0.00166651,-0.00196242,-0.00150828,0.013
 78732,-0.00330273,0.00372555,-0.01795055,-0.00982295,0.00221995,0.0140
 1821,0.00532288,-0.00027338,-0.00575983,0.00736662,-0.00190113,0.00401
 390,0.00358462,-0.00136079,0.02415425,-0.02757792,0.00760235,0.1482730
 5,-0.45955187,0.10561952,-0.17142908,0.56482408,-0.00025490,-0.0000336
 7,-0.00031370,0.00023760,0.00039657,0.00019369,-0.00266514,0.00321790,
 0.00493868,0.00503158,0.00257081,-0.00044034,-0.00381875,-0.00166611,0
 .00048159,0.00145611,-0.00185759,0.00048359,-0.00107736,-0.00184443,-0
 .00220922,-0.00399521,0.00832604,0.01390449,-0.03534516,0.10362058,-0.
 08990531,0.03911978,-0.14198515,0.06765290,-0.00322772,-0.00000309,-0.
 00265882,-0.00013366,0.00994182,0.00162066,-0.00477382,-0.00225309,-0.
 00043198,0.00437906,0.00244340,-0.00049059,-0.00558282,0.00220197,-0.0
 0091194,0.00419357,-0.00703981,0.00197590,-0.00938727,0.00371770,-0.00
 073256,-0.03224144,-0.03200820,0.01370028,-0.16529174,-0.06333054,0.02
 684439,0.02389768,-0.01527712,0.00414855,0.56587164,0.00026992,-0.0009
 5559,-0.00425887,0.00884202,0.00150980,-0.00058255,-0.00871250,-0.0020
 1690,-0.00078567,0.00536525,0.00304006,-0.00047041,-0.00579409,0.00168
 904,-0.00072695,0.00556406,-0.00361955,0.00120360,-0.00378061,-0.00296
 539,0.00147202,-0.00077350,0.00938215,0.00099892,-0.01967859,-0.147948
 15,0.03063149,-0.03867702,-0.07744713,0.03082399,-0.13117008,0.3902595
 3,0.00066781,-0.00080352,-0.00324317,-0.00228635,0.00058674,0.00167294
 ,0.00276938,-0.00041319,-0.00105081,-0.00215065,-0.00124038,0.00025123
 ,0.00218686,-0.00015094,0.00051284,-0.00181856,0.00157694,0.00005056,0
 .00199660,0.00153767,0.00251835,0.00232417,0.00175172,0.00689708,0.016
 35061,0.03478415,-0.05767775,0.01023230,0.02911697,0.01091840,-0.00069
 548,-0.09559563,0.05580419,-0.19110982,0.07602479,0.09732088,0.0127421
 7,-0.00898082,-0.00974089,0.00342052,-0.00034147,-0.00172147,0.0003605
 4,0.00119485,-0.00005379,0.00024955,-0.00008916,0.00009311,-0.00004625
 ,0.00020913,-0.00005848,0.00022462,-0.00004081,0.00007096,-0.00035553,
 0.00014306,0.00052826,-0.00102774,-0.00088953,0.00024802,0.00018996,0.
 00036091,-0.00014244,0.00049890,0.00121670,0.00035602,0.19912944,0.074
 62753,-0.09272206,-0.04598994,0.00219978,-0.00897869,-0.01876338,0.004
 19835,0.00271536,-0.00071115,-0.00044050,0.00045015,0.00045725,-0.0003
 9332,-0.00036550,0.00009048,-0.00012497,-0.00000431,-0.00000920,0.0001
 5208,-0.00007942,0.00014227,-0.00040679,-0.00056647,0.00019628,0.00106
 477,0.00082325,-0.00026763,-0.00022630,-0.00005804,0.00008135,-0.00024
 657,-0.00118243,-0.00047737,-0.08253309,0.09642363,0.09450509,-0.04829
 438,-0.11072943,0.00943351,-0.02422550,-0.03292960,0.00427874,0.005065
 78,-0.00026471,-0.00006201,0.00018365,0.00055908,-0.00054121,-0.000869
 72,0.00006953,-0.00053482,0.00042014,-0.00005779,0.00050503,-0.0002373
 2,0.00013999,-0.00069124,-0.00041593,0.00011241,-0.00073832,0.00003627
 ,0.00010459,0.00022007,0.00001109,-0.00007466,0.00030803,0.00076056,0.
 00053701,-0.10385513,0.06515265,0.13590354,-0.15848859,-0.11542294,0.0
 5352777,-0.01090062,-0.01416393,-0.00058760,-0.00015806,0.00075355,-0.
 00341059,0.00082948,-0.00030131,-0.00038334,-0.00025245,-0.00069278,0.
 00042362,-0.00043961,0.00044353,-0.00014355,0.00014087,-0.00028592,0.0
 0009624,-0.00016538,0.00044952,0.00011290,-0.00046995,0.00027880,0.000
 11120,0.00029030,-0.00045431,0.00006650,0.00038111,-0.00007247,-0.0002
 3307,-0.01394211,-0.01632916,0.00822917,0.17176277,-0.11503892,-0.1752
 3665,0.05746020,-0.01332189,-0.01439107,-0.00105137,-0.00039595,0.0015
 8370,-0.00305993,0.00032633,-0.00034412,-0.00021441,-0.00032621,-0.000
 76613,0.00039414,-0.00063156,0.00046196,-0.00012809,0.00054910,0.00002
 089,0.00002916,-0.00024033,0.00006487,-0.00016377,-0.00157934,0.000182
 68,0.00031454,0.00056644,-0.00020984,0.00000146,0.00124344,0.00090145,
 -0.00035580,0.00910393,0.01101381,-0.00331386,0.13536603,0.19101475,0.
 06137016,0.06618196,-0.07694092,-0.02516918,-0.02886018,0.00418679,-0.
 00154246,-0.00015996,-0.00337145,-0.00056485,-0.00070630,0.00026232,-0
 .00029787,-0.00016654,0.00028306,-0.00021766,0.00020299,-0.00003768,0.
 00016614,-0.00022298,0.00025173,-0.00028536,-0.00020113,0.00030304,-0.
 00001265,-0.00011256,-0.00020576,0.00003579,-0.00003016,0.00004825,-0.
 00006601,0.00006118,0.00000238,0.00876630,0.01205881,-0.00397244,-0.05
 403259,-0.05766699,0.08340022,-0.10861581,0.08584554,-0.06319485,-0.00
 881081,0.00285369,-0.01655315,0.00149885,0.00357326,-0.00111272,-0.000
 62560,-0.00032612,0.00027893,-0.00001258,0.00015223,-0.00006870,0.0000
 8280,-0.00008871,0.00002745,-0.00027462,-0.00019425,0.00025808,0.00002
 339,-0.00034003,0.00066476,0.00163002,0.00043301,-0.00037306,-0.000363
 09,-0.00010321,0.00002304,-0.00157060,0.00097814,0.00114775,-0.0104568
 6,0.01860200,-0.01080128,0.01160125,-0.01538596,0.01196592,0.11589593,
 0.08900064,-0.18548520,0.10416130,-0.00882563,0.01127733,-0.01234370,-
 0.00081136,0.00338028,-0.00141953,-0.00046844,-0.00064667,0.00047249,0
 .00026889,0.00016991,-0.00010363,-0.00010293,0.00011684,-0.00001511,0.
 00013511,0.00036564,-0.00001594,0.00064474,-0.00011529,-0.00000541,-0.
 00007117,-0.00115566,-0.00084126,0.00003628,-0.00034847,0.00019365,0.0
 0108346,-0.00259873,-0.00234808,0.00444156,-0.00732324,0.00580810,0.01
 055400,-0.01400321,0.00967226,-0.09612433,0.19636704,-0.06103143,0.093
 91273,-0.11583790,-0.02368123,0.01060226,-0.03037864,0.00386908,0.0042
 1427,-0.00017617,-0.00088529,-0.00080485,0.00039742,0.00019451,-0.0001
 9756,0.00003670,-0.00027395,0.00032338,-0.00008883,0.00017147,-0.00045
 560,0.00017477,-0.00000528,0.00007495,0.00012740,-0.00276084,-0.001845
 29,0.00011865,0.00070156,0.00004604,-0.00011277,0.00156267,0.00121538,
 0.00002176,0.00838091,-0.01167103,0.01086030,-0.00383897,0.00786323,-0
 .00398215,0.07747093,-0.10313315,0.13874411,-0.00055041,-0.00015427,-0
 .00031053,0.00291568,0.00003682,0.00024047,-0.00581938,0.03086812,-0.0
 0757930,-0.08364584,0.07634635,-0.01951830,0.01158554,-0.01750141,0.00
 451812,-0.00231547,-0.00334155,0.00069200,-0.00087701,-0.00019440,0.00
 004475,-0.00532513,-0.00108088,0.00029005,0.00050380,0.00166476,-0.000
 62646,-0.00060675,-0.00024969,0.00018445,-0.00007705,-0.00006626,-0.00
 002498,-0.00005281,0.00002365,-0.00009113,0.00000412,-0.00001087,-0.00
 002182,0.00014248,0.00002344,0.00014545,0.08292239,-0.00006212,-0.0000
 1141,-0.00021860,-0.00102019,0.00174332,-0.00182416,-0.00029257,-0.007
 25817,0.00330321,0.08076649,-0.29092106,0.06436933,0.01039104,-0.01521
 913,0.00368161,-0.00451469,-0.00116182,0.00156640,-0.00049303,0.000455
 12,-0.00032321,0.00163870,0.00206118,0.00087249,-0.00125311,0.00004861
 ,0.00060762,0.00059395,-0.00061959,-0.00011641,0.00046991,0.00039672,-
 0.00017109,0.00014813,-0.00001251,0.00010981,0.00003906,0.00002889,0.0
 0001204,-0.00004004,-0.00004920,-0.00005628,-0.08634362,0.31097564,-0.
 00093984,-0.00015423,0.00010843,0.00098304,-0.00189012,-0.00567104,0.0
 0174567,0.00386874,0.00544564,-0.02249875,0.06414324,-0.04712365,-0.00
 186929,0.00422591,-0.00134129,0.00121145,0.00144909,0.00552875,-0.0001
 7246,-0.00015346,-0.00077846,-0.00040105,0.00061260,0.00531181,0.00016
 282,0.00074316,0.00134832,-0.00012574,-0.00040314,-0.00063576,-0.00002
 936,-0.00006440,-0.00013341,-0.00017707,-0.00024239,-0.00028205,0.0000
 0732,-0.00016977,-0.00027516,0.00004270,0.00000866,-0.00007537,0.02193
 479,-0.07145648,0.04104976,0.00005284,0.00026273,0.00063585,-0.0018423
 4,-0.00079631,-0.00025435,0.00112934,-0.00314930,0.00058654,-0.0155152
 9,0.00742860,-0.00191106,-0.33238838,0.04828564,-0.01573447,-0.0072135
 9,-0.00165281,0.00042934,0.00128790,0.00235666,-0.00064714,0.00057027,
 -0.00017181,0.00001625,0.00035710,0.00004045,-0.00003425,-0.00036415,0
 .00013458,-0.00001476,-0.00019860,-0.00003579,0.00004154,0.00007834,-0
 .00002138,-0.00009190,-0.00008631,-0.00009793,-0.00007212,-0.00003111,
 0.00000161,-0.00008455,0.00080433,-0.00053887,0.00021122,0.35317020,0.
 00002810,0.00015498,0.00042255,-0.00181067,-0.00054711,0.00015390,-0.0
 0108479,-0.00315238,0.00167389,-0.02291922,0.00812282,-0.00327572,0.04
 866166,-0.06351332,0.01470005,0.02803670,0.00130248,-0.00134934,0.0005
 4666,-0.00526020,0.00278992,-0.00045228,-0.00016329,-0.00025402,0.0001
 3716,-0.00022013,-0.00000792,0.00003509,0.00045561,-0.00014735,0.00017
 008,0.00015034,-0.00002985,0.00004285,-0.00000278,-0.00007537,-0.00004
 768,-0.00004592,-0.00005823,-0.00002952,-0.00001559,-0.00007261,0.0009
 4785,0.00070657,-0.00066126,-0.05270479,0.06132296,0.00024045,0.000222
 83,0.00001406,0.00014099,0.00004598,0.00122985,0.00037613,0.00187361,0
 .00349789,0.00548679,-0.00315280,-0.00349885,-0.01534293,0.01470889,-0
 .01389935,-0.00770422,-0.00157023,-0.00436488,0.00003445,0.00288679,0.
 00414623,0.00007699,-0.00038921,-0.00098869,-0.00006170,-0.00001218,-0
 .00031707,0.00000939,-0.00016369,0.00000422,-0.00006578,-0.00004925,0.
 00003582,-0.00000214,-0.00000626,-0.00001603,0.00005879,0.00008041,0.0
 0007607,-0.00000361,0.00000165,0.00002416,-0.00023414,-0.00059649,-0.0
 0198733,0.01710919,-0.01336817,0.01670280,0.00005868,0.00007743,0.0001
 4815,-0.00008699,-0.00050278,0.00000979,-0.00046120,0.00102247,-0.0002
 4881,0.00051073,0.00232192,-0.00072157,0.00998485,0.00770844,-0.001966
 93,-0.16632503,-0.12747564,0.03364403,-0.01634740,-0.02661473,0.007166
 58,-0.00397678,0.00321494,-0.00087974,0.00034739,-0.00153066,0.0002922
 6,-0.00035590,0.00025576,-0.00004363,-0.00075373,0.00025218,0.00001503
 ,0.00001676,-0.00002294,-0.00003803,-0.00003485,-0.00004252,-0.0000039
 1,0.00000860,0.00002885,0.00000558,0.00031666,0.00045953,-0.00007384,0
 .00067283,-0.00084183,0.00024479,0.17549451,0.00005043,0.00008552,0.00
 015542,-0.00034652,-0.00014597,-0.00036936,0.00109174,0.00019874,-0.00
 009653,0.00370817,-0.00382563,0.00285469,-0.02112791,-0.01542704,0.003
 89175,-0.12920858,-0.20995998,0.04795661,0.00434928,0.00597798,-0.0012
 8645,0.00101562,0.00168928,0.00175813,0.00077204,-0.00027783,0.0002642
 3,-0.00041083,0.00062623,-0.00013533,-0.00030403,-0.00025086,-0.000017
 43,0.00003072,-0.00001138,-0.00000853,-0.00003483,-0.00003251,-0.00001
 747,-0.00002609,0.00001697,-0.00002218,-0.00104283,-0.00106224,0.00026
 073,0.00068832,0.00074128,-0.00084166,0.14115500,0.22111991,-0.0000877
 7,-0.00012153,-0.00001569,0.00014921,-0.00025104,-0.00089973,-0.000373
 85,0.00006196,-0.00028051,-0.00122704,0.00271491,0.00565089,0.00594236
 ,0.00404839,-0.00158183,0.03393947,0.04807159,-0.04377504,-0.00093190,
 -0.00145891,0.00158481,-0.00003390,0.00163463,0.00778662,-0.00031231,0
 .00040440,0.00094327,0.00014888,-0.00030196,0.00011143,0.00008561,0.00
 000234,-0.00048090,-0.00002419,-0.00000585,-0.00001661,-0.00001659,-0.
 00001322,-0.00004824,-0.00001470,-0.00000545,-0.00000886,0.00034490,0.
 00033540,0.00001684,-0.00017209,-0.00081709,-0.00193782,-0.03745212,-0
 .05280250,0.03775695,0.00018183,0.00006720,0.00039323,0.00012129,-0.00
 195117,0.00023551,-0.00319277,-0.00121362,0.00040648,0.00002829,-0.000
 28873,0.00009277,-0.00508824,-0.00118501,0.00032083,-0.00649425,0.0286
 0972,-0.00759969,-0.08827855,0.08979146,-0.02364545,0.01007348,-0.0177
 6823,0.00479800,0.00136830,-0.00371125,0.00090509,-0.00205896,0.002843
 93,-0.00072804,0.00023220,0.00066593,-0.00020590,-0.00002629,-0.000023
 36,-0.00006670,-0.00002042,-0.00002810,-0.00004506,-0.00000362,0.00006
 561,-0.00006578,0.00009433,0.00007664,-0.00000213,-0.00051213,0.001283
 49,-0.00036964,0.00106153,-0.00043058,0.00008231,0.09260781,0.00019941
 ,0.00013540,0.00047614,0.00018168,-0.00187086,-0.00005526,-0.00398173,
 0.00041591,0.00117282,-0.00072551,-0.00005692,-0.00010498,0.00052311,0
 .00314761,0.00093450,-0.00047369,-0.00124507,0.00081318,0.08823704,-0.
 29165401,0.06887781,0.00855564,-0.01812384,0.00563108,0.00269677,-0.00
 384147,0.00048672,0.00155791,0.00327784,-0.00112253,-0.00052871,0.0003
 1553,-0.00009737,-0.00000462,-0.00005728,-0.00008167,-0.00002988,-0.00
 005213,-0.00004861,-0.00002149,0.00005850,-0.00004891,0.00006794,-0.00
 008538,-0.00012754,-0.00004910,-0.00004070,0.00031888,0.00061894,0.000
 53712,-0.00145498,-0.09669336,0.30923375,-0.00006448,-0.00029142,-0.00
 015882,-0.00013656,0.00041110,-0.00106359,0.00100202,0.00157073,0.0041
 1965,0.00063154,-0.00005331,-0.00032222,-0.00035828,0.00058829,0.00641
 387,-0.00039329,0.00111530,0.00154073,-0.02239770,0.06876477,-0.049183
 33,-0.00250500,0.00521339,0.00213151,-0.00103336,0.00103087,-0.0011419
 7,-0.00024952,-0.00137430,-0.00036794,0.00022768,-0.00011607,-0.000320
 30,-0.00002509,-0.00002201,-0.00000525,0.00000373,0.00000051,-0.000033
 28,-0.00005185,-0.00002934,0.00001720,0.00000872,-0.00011646,-0.000552
 86,0.00000123,0.00036609,0.00123381,-0.00014353,-0.00149741,-0.0046912
 8,0.02546919,-0.07559784,0.04238388,0.00005938,0.00011269,-0.00006262,
 0.00025891,-0.00012950,-0.00009048,0.00101876,-0.00060497,0.00011375,-
 0.00089582,-0.00045460,0.00008602,0.00097174,0.00002025,0.00006013,-0.
 00074814,-0.00001416,0.00001654,0.00002416,0.00145195,-0.00018053,-0.0
 0044000,-0.00560670,0.00133183,-0.05239615,0.01486341,-0.00045979,0.00
 847895,0.00456237,-0.00218220,-0.37621569,0.18560671,-0.03067307,0.000
 10660,-0.00009980,0.00003213,-0.00005154,-0.00005569,0.00002723,-0.000
 11861,0.00011967,0.00012514,-0.00001948,-0.00002522,-0.00000949,0.0000
 2877,0.00000112,0.00000618,-0.00013065,0.00007088,-0.00004628,-0.00009
 381,-0.00013034,0.00001452,0.42016262,0.00043388,0.00052461,0.00062710
 ,0.00071138,-0.00108541,-0.00051468,-0.00017602,-0.00007466,-0.0001831
 4,0.00009348,-0.00003189,-0.00001326,0.00006248,0.00010154,-0.00002815
 ,-0.00008027,-0.00051306,0.00013510,-0.00106727,0.00068036,0.00021777,
 -0.00213761,-0.00463065,0.00186026,-0.03424881,0.02150915,-0.00284185,
 0.00522045,-0.00508300,-0.00032378,0.23088945,-0.16865991,0.03234645,-
 0.00003711,-0.00006209,-0.00002576,-0.00004928,-0.00019142,0.00006186,
 0.00024190,-0.00001125,0.00005520,0.00000685,-0.00001554,0.00001066,0.
 00001951,0.00000439,0.00001091,-0.00008437,0.00000041,-0.00004110,-0.0
 0011057,-0.00009400,0.00003712,-0.19968808,0.15763242,0.00024564,-0.00
 030117,-0.00005175,-0.00078476,0.00035531,-0.00019388,0.00012229,0.000
 11392,-0.00065833,0.00007014,0.00002703,-0.00004406,-0.00019441,-0.000
 03379,-0.00008682,0.00015473,0.00013743,0.00000977,0.00036289,-0.00006
 160,0.00129548,0.00084182,0.00195705,0.00030633,0.01356318,-0.00582825
 ,0.00518731,-0.00228025,-0.00039241,-0.00467753,-0.04439125,0.03548030
 ,-0.01631621,0.00003623,-0.00001288,0.00006213,0.00000904,-0.00000644,
 0.00005324,0.00029434,-0.00005750,0.00013823,0.00000297,0.00002128,0.0
 0004683,-0.00001447,0.00001053,0.00004512,0.00004589,-0.00004670,-0.00
 011431,0.00002497,0.00002859,0.00000018,0.03189099,-0.03139070,0.01499
 828\\0.00000234,-0.00000149,-0.00000185,-0.00000290,0.00000277,0.00000
 527,0.00000571,-0.00000114,-0.00000210,-0.00000398,0.00000262,-0.00000
 244,0.00000639,-0.00000855,0.00000821,-0.00001188,0.00000594,0.0000007
 3,0.00001336,0.00000567,0.00000228,-0.00002028,-0.00000837,-0.00000806
 ,0.00001044,0.00001771,-0.00000688,0.00000321,-0.00001409,0.00000146,-
 0.00000526,0.00000217,0.00000439,-0.00000004,-0.00000104,0.00000314,0.
 00000020,0.00000111,0.00000267,-0.00000009,0.00000172,0.00000065,-0.00
 000146,0.00000087,0.00000600,-0.00000075,0.00000070,0.00000068,0.00000
 229,-0.00000198,-0.00000075,0.00000104,-0.00000227,-0.00000355,0.00000
 164,-0.00000235,-0.00000988\\\@
 The archive entry for this job was punched.


 GROWING OLD ISN'T SO BAD -- WHEN YOU CONSIDER THE ALTERNATIVE.

                     -- MAURICE CHEVALIER
 Job cpu time:       0 days  3 hours 54 minutes 12.7 seconds.
 Elapsed time:       0 days  0 hours 29 minutes 32.5 seconds.
 File lengths (MBytes):  RWF=    465 Int=      0 D2E=      0 Chk=     18 Scr=      1
 Normal termination of Gaussian 16 at Mon Jan 29 14:10:45 2024.
