Job Start Time: Mon Jan 29 12:53:56 MST 2024
SLURM Job ID: 229728
SLURM Job Name: Ac4_rdkit_conf_1_SP_IE
 Entering Gaussian System, Link 0=/opt/apps/Gaussian/G16C/g16/g16
 Initial command:
 /opt/apps/Gaussian/G16C/g16/l1.exe "/tmp/Gau-829289.inp" -scrdir="/tmp/"
 Entering Link 1 = /opt/apps/Gaussian/G16C/g16/l1.exe PID=    829292.
  
 Copyright (c) 1988-2019, Gaussian, Inc.  All Rights Reserved.
  
 This is part of the Gaussian(R) 16 program.  It is based on
 the Gaussian(R) 09 system (copyright 2009, Gaussian, Inc.),
 the Gaussian(R) 03 system (copyright 2003, Gaussian, Inc.),
 the Gaussian(R) 98 system (copyright 1998, Gaussian, Inc.),
 the Gaussian(R) 94 system (copyright 1995, Gaussian, Inc.),
 the Gaussian 92(TM) system (copyright 1992, Gaussian, Inc.),
 the Gaussian 90(TM) system (copyright 1990, Gaussian, Inc.),
 the Gaussian 88(TM) system (copyright 1988, Gaussian, Inc.),
 the Gaussian 86(TM) system (copyright 1986, Carnegie Mellon
 University), and the Gaussian 82(TM) system (copyright 1983,
 Carnegie Mellon University). Gaussian is a federally registered
 trademark of Gaussian, Inc.
  
 This software contains proprietary and confidential information,
 including trade secrets, belonging to Gaussian, Inc.
  
 This software is provided under written license and may be
 used, copied, transmitted, or stored only in accord with that
 written license.
  
 The following legend is applicable only to US Government
 contracts under FAR:
  
                    RESTRICTED RIGHTS LEGEND
  
 Use, reproduction and disclosure by the US Government is
 subject to restrictions as set forth in subparagraphs (a)
 and (c) of the Commercial Computer Software - Restricted
 Rights clause in FAR 52.227-19.
  
 Gaussian, Inc.
 340 Quinnipiac St., Bldg. 40, Wallingford CT 06492
  
  
 ---------------------------------------------------------------
 Warning -- This program may not be used in any manner that
 competes with the business of Gaussian, Inc. or will provide
 assistance to any competitor of Gaussian, Inc.  The licensee
 of this program is prohibited from giving any competitor of
 Gaussian, Inc. access to this program.  By using this program,
 the user acknowledges that Gaussian, Inc. is engaged in the
 business of creating and licensing software in the field of
 computational chemistry and represents and warrants to the
 licensee that it is not a competitor of Gaussian, Inc. and that
 it will not use this program in any manner prohibited above.
 ---------------------------------------------------------------
  

 Cite this work as:
 Gaussian 16, Revision C.01,
 M. J. Frisch, G. W. Trucks, H. B. Schlegel, G. E. Scuseria, 
 M. A. Robb, J. R. Cheeseman, G. Scalmani, V. Barone, 
 G. A. Petersson, H. Nakatsuji, X. Li, M. Caricato, A. V. Marenich, 
 J. Bloino, B. G. Janesko, R. Gomperts, B. Mennucci, H. P. Hratchian, 
 J. V. Ortiz, A. F. Izmaylov, J. L. Sonnenberg, D. Williams-Young, 
 F. Ding, F. Lipparini, F. Egidi, J. Goings, B. Peng, A. Petrone, 
 T. Henderson, D. Ranasinghe, V. G. Zakrzewski, J. Gao, N. Rega, 
 G. Zheng, W. Liang, M. Hada, M. Ehara, K. Toyota, R. Fukuda, 
 J. Hasegawa, M. Ishida, T. Nakajima, Y. Honda, O. Kitao, H. Nakai, 
 T. Vreven, K. Throssell, J. A. Montgomery, Jr., J. E. Peralta, 
 F. Ogliaro, M. J. Bearpark, J. J. Heyd, E. N. Brothers, K. N. Kudin, 
 V. N. Staroverov, T. A. Keith, R. Kobayashi, J. Normand, 
 K. Raghavachari, A. P. Rendell, J. C. Burant, S. S. Iyengar, 
 J. Tomasi, M. Cossi, J. M. Millam, M. Klene, C. Adamo, R. Cammi, 
 J. W. Ochterski, R. L. Martin, K. Morokuma, O. Farkas, 
 J. B. Foresman, and D. J. Fox, Gaussian, Inc., Wallingford CT, 2019.
 
 ******************************************
 Gaussian 16:  AS64L-G16RevC.01  3-Jul-2019
                29-Jan-2024 
 ******************************************
 %nprocshared=8
 Will use up to    8 processors via shared memory.
 %mem=16GB
 ----------------
 # m062x/def2tzvp
 ----------------
 1/38=1,172=1/1;
 2/12=2,17=6,18=5,40=1/2;
 3/5=44,7=101,11=2,25=1,30=1,74=-55/1,2,3;
 4//1;
 5/5=2,38=5/2;
 6/7=2,8=2,9=2,10=2,28=1/1;
 99/5=1,9=1/99;
 ----------------------
 Ac4_rdkit_conf_1_SP_IE
 ----------------------
 Symbolic Z-matrix:
 Charge =  1 Multiplicity = 2
 C                    -2.0465   -2.26067  -0.05619 
 O                    -0.78472  -1.63121  -0.03365 
 C                    -0.73337  -0.29098  -0.00378 
 C                    -1.87575   0.51093   0.00266 
 C                    -1.76295   1.89222   0.02171 
 C                    -0.51967   2.50367   0.02967 
 C                     0.61595   1.71255   0.01968 
 C                     0.53564   0.32216   0.00832 
 C                     1.78434  -0.48375   0.02403 
 O                     1.87782  -1.66792   0.18366 
 O                     2.88426   0.28664  -0.15822 
 H                    -2.62646  -2.01748   0.83768 
 H                    -2.61432  -1.9792   -0.9468 
 H                    -1.84393  -3.32751  -0.07715 
 H                    -2.85666   0.0609   -0.00764 
 H                    -2.66396   2.4925    0.02866 
 H                    -0.43425   3.58111   0.04324 
 H                     1.59522   2.16871   0.02499 
 H                     3.63924  -0.31589  -0.1139 
 
                          Input orientation:                          
 ---------------------------------------------------------------------
 Center     Atomic      Atomic             Coordinates (Angstroms)
 Number     Number       Type             X           Y           Z
 ---------------------------------------------------------------------
      1          6           0       -2.046496   -2.260665   -0.056193
      2          8           0       -0.784718   -1.631211   -0.033646
      3          6           0       -0.733371   -0.290984   -0.003777
      4          6           0       -1.875750    0.510929    0.002664
      5          6           0       -1.762951    1.892223    0.021712
      6          6           0       -0.519669    2.503674    0.029674
      7          6           0        0.615952    1.712550    0.019679
      8          6           0        0.535641    0.322156    0.008315
      9          6           0        1.784342   -0.483754    0.024025
     10          8           0        1.877819   -1.667923    0.183657
     11          8           0        2.884264    0.286644   -0.158218
     12          1           0       -2.626459   -2.017476    0.837681
     13          1           0       -2.614323   -1.979204   -0.946801
     14          1           0       -1.843925   -3.327508   -0.077149
     15          1           0       -2.856661    0.060901   -0.007641
     16          1           0       -2.663958    2.492495    0.028658
     17          1           0       -0.434248    3.581107    0.043235
     18          1           0        1.595222    2.168712    0.024987
     19          1           0        3.639243   -0.315885   -0.113899
 ---------------------------------------------------------------------
                    Distance matrix (angstroms):
                    1          2          3          4          5
     1  C    0.000000
     2  O    1.410250   0.000000
     3  C    2.367845   1.341543   0.000000
     4  C    2.777472   2.404253   1.395756   0.000000
     5  C    4.163285   3.657129   2.413934   1.386023   0.000000
     6  C    5.003749   4.143855   2.803016   2.410543   1.385527
     7  C    4.783390   3.625667   2.415651   2.766362   2.385679
     8  C    3.652747   2.358125   1.409425   2.418775   2.783669
     9  C    4.223644   2.814259   2.525235   3.792904   4.269492
    10  O    3.976068   2.671642   2.957939   4.343896   5.094710
    11  O    5.550819   4.141873   3.666714   4.768010   4.920047
    12  H    1.092936   2.073746   2.696777   2.766523   4.086220
    13  H    1.093083   2.074224   2.697659   2.765454   4.080539
    14  H    1.086107   2.000309   3.234067   3.839399   5.221295
    15  H    2.459348   2.675232   2.152254   1.079267   2.133261
    16  H    4.793849   4.532149   3.387621   2.132733   1.082676
    17  H    6.060984   5.224653   3.883912   3.391986   2.149010
    18  H    5.734813   4.484079   3.387223   3.846608   3.369537
    19  H    6.009420   4.616054   4.374071   5.577845   5.837622
                    6          7          8          9         10
     6  C    0.000000
     7  C    1.384056   0.000000
     8  C    2.423460   1.392758   0.000000
     9  C    3.772695   2.487751   1.486268   0.000000
    10  O    4.813926   3.612035   2.406782   1.198531   0.000000
    11  O    4.066606   2.685162   2.354788   1.355195   2.224892
    12  H    5.052943   5.009536   4.020025   4.740201   4.564916
    13  H    5.043538   4.999781   4.016314   4.746275   4.642647
    14  H    5.980614   5.609149   4.357716   4.611019   4.083334
    15  H    3.380838   3.845482   3.402385   4.672961   5.043880
    16  H    2.144318   3.371380   3.866293   5.352145   6.161237
    17  H    1.080899   2.143590   3.400392   4.630940   5.737394
    18  H    2.141258   1.080316   2.129028   2.659200   3.850299
    19  H    5.026637   3.643169   3.170864   1.867582   2.240348
                   11         12         13         14         15
    11  O    0.000000
    12  H    6.055481   0.000000
    13  H    5.999199   1.784934   0.000000
    14  H    5.951843   1.779173   1.779812   0.000000
    15  H    5.747334   2.255485   2.258933   3.537200   0.000000
    16  H    5.973564   4.582113   4.577125   5.878442   2.439488
    17  H    4.680448   6.064739   6.053921   7.051996   4.273467
    18  H    2.288531   6.000603   5.989144   6.484335   4.925768
    19  H    0.966953   6.562007   6.524373   6.255906   6.507690
                   16         17         18         19
    16  H    0.000000
    17  H    2.481309   0.000000
    18  H    4.271471   2.472638   0.000000
    19  H    6.902004   5.639554   3.220331   0.000000
 Stoichiometry    C8H8O3(1+,2)
 Framework group  C1[X(C8H8O3)]
 Deg. of freedom    51
 Full point group                 C1      NOp   1
 Largest Abelian subgroup         C1      NOp   1
 Largest concise Abelian subgroup C1      NOp   1
                         Standard orientation:                         
 ---------------------------------------------------------------------
 Center     Atomic      Atomic             Coordinates (Angstroms)
 Number     Number       Type             X           Y           Z
 ---------------------------------------------------------------------
      1          6           0        2.046496   -2.260665    0.056193
      2          8           0        0.784718   -1.631211    0.033646
      3          6           0        0.733371   -0.290984    0.003777
      4          6           0        1.875750    0.510929   -0.002664
      5          6           0        1.762951    1.892223   -0.021712
      6          6           0        0.519669    2.503674   -0.029674
      7          6           0       -0.615952    1.712550   -0.019679
      8          6           0       -0.535641    0.322156   -0.008315
      9          6           0       -1.784342   -0.483754   -0.024025
     10          8           0       -1.877819   -1.667923   -0.183657
     11          8           0       -2.884264    0.286644    0.158218
     12          1           0        2.626459   -2.017476   -0.837681
     13          1           0        2.614323   -1.979204    0.946801
     14          1           0        1.843925   -3.327508    0.077149
     15          1           0        2.856661    0.060901    0.007641
     16          1           0        2.663958    2.492495   -0.028658
     17          1           0        0.434247    3.581107   -0.043235
     18          1           0       -1.595222    2.168712   -0.024987
     19          1           0       -3.639243   -0.315885    0.113899
 ---------------------------------------------------------------------
 Rotational constants (GHZ):           1.4203255           1.1555472           0.6414600
 Standard basis: def2TZVP (5D, 7F)
 There are   444 symmetry adapted cartesian basis functions of A   symmetry.
 There are   389 symmetry adapted basis functions of A   symmetry.
   389 basis functions,   625 primitive gaussians,   444 cartesian basis functions
    40 alpha electrons       39 beta electrons
       nuclear repulsion energy       596.8247346160 Hartrees.
 NAtoms=   19 NActive=   19 NUniq=   19 SFac= 1.00D+00 NAtFMM=   60 NAOKFM=F Big=F
 Integral buffers will be    131072 words long.
 Raffenetti 2 integral format.
 Two-electron integral symmetry is turned on.
 One-electron integrals computed using PRISM.
   1 Symmetry operations used in ECPInt.
 ECPInt:  NShTT=   11781 NPrTT=   36312 LenC2=   11250 LenP2D=   26645.
 LDataN:  DoStor=T MaxTD1= 6 Len=  172
 NBasis=   389 RedAO= T EigKep=  7.69D-06  NBF=   389
 NBsUse=   389 1.00D-06 EigRej= -1.00D+00 NBFU=   389
 ExpMin= 9.52D-02 ExpMax= 2.70D+04 ExpMxC= 9.22D+02 IAcc=3 IRadAn=         5 AccDes= 0.00D+00
 Harris functional with IExCor= 1009 and IRadAn=       5 diagonalized for initial guess.
 HarFok:  IExCor= 1009 AccDes= 0.00D+00 IRadAn=         5 IDoV= 1 UseB2=F ITyADJ=14
 ICtDFT=  3500011 ScaDFX=  1.000000  1.000000  1.000000  1.000000
 FoFCou: FMM=F IPFlag=           0 FMFlag=      100000 FMFlg1=           0
         NFxFlg=           0 DoJE=T BraDBF=F KetDBF=T FulRan=T
         wScrn=  0.000000 ICntrl=       500 IOpCl=  0 I1Cent=   200000004 NGrid=           0
         NMat0=    1 NMatS0=      1 NMatT0=    0 NMatD0=    1 NMtDS0=    0 NMtDT0=    0
 Petite list used in FoFCou.
 Initial guess <Sx>= 0.0000 <Sy>= 0.0000 <Sz>= 0.5000 <S**2>= 0.7500 S= 0.5000
 Requested convergence on RMS density matrix=1.00D-08 within 128 cycles.
 Requested convergence on MAX density matrix=1.00D-06.
 Requested convergence on             energy=1.00D-06.
 No special actions if energy rises.
 Integral accuracy reduced to 1.0D-05 until final iterations.
 Initial convergence to 1.0D-05 achieved.  Increase integral accuracy.
 SCF Done:  E(UM062X) =  -535.019000511     A.U. after   22 cycles
            NFock= 22  Conv=0.51D-08     -V/T= 2.0044
 <Sx>= 0.0000 <Sy>= 0.0000 <Sz>= 0.5000 <S**2>= 0.7732 S= 0.5115
 <L.S>=  0.00000000000    
 Annihilation of the first spin contaminant:
 S**2 before annihilation     0.7732,   after     0.7503

 **********************************************************************

            Population analysis using the SCF Density.

 **********************************************************************

 Orbital symmetries:
 Alpha Orbitals:
       Occupied  (A) (A) (A) (A) (A) (A) (A) (A) (A) (A) (A) (A)
                 (A) (A) (A) (A) (A) (A) (A) (A) (A) (A) (A) (A)
                 (A) (A) (A) (A) (A) (A) (A) (A) (A) (A) (A) (A)
                 (A) (A) (A) (A)
       Virtual   (A) (A) (A) (A) (A) (A) (A) (A) (A) (A) (A) (A)
                 (A) (A) (A) (A) (A) (A) (A) (A) (A) (A) (A) (A)
                 (A) (A) (A) (A) (A) (A) (A) (A) (A) (A) (A) (A)
                 (A) (A) (A) (A) (A) (A) (A) (A) (A) (A) (A) (A)
                 (A) (A) (A) (A) (A) (A) (A) (A) (A) (A) (A) (A)
                 (A) (A) (A) (A) (A) (A) (A) (A) (A) (A) (A) (A)
                 (A) (A) (A) (A) (A) (A) (A) (A) (A) (A) (A) (A)
                 (A) (A) (A) (A) (A) (A) (A) (A) (A) (A) (A) (A)
                 (A) (A) (A) (A) (A) (A) (A) (A) (A) (A) (A) (A)
                 (A) (A) (A) (A) (A) (A) (A) (A) (A) (A) (A) (A)
                 (A) (A) (A) (A) (A) (A) (A) (A) (A) (A) (A) (A)
                 (A) (A) (A) (A) (A) (A) (A) (A) (A) (A) (A) (A)
                 (A) (A) (A) (A) (A) (A) (A) (A) (A) (A) (A) (A)
                 (A) (A) (A) (A) (A) (A) (A) (A) (A) (A) (A) (A)
                 (A) (A) (A) (A) (A) (A) (A) (A) (A) (A) (A) (A)
                 (A) (A) (A) (A) (A) (A) (A) (A) (A) (A) (A) (A)
                 (A) (A) (A) (A) (A) (A) (A) (A) (A) (A) (A) (A)
                 (A) (A) (A) (A) (A) (A) (A) (A) (A) (A) (A) (A)
                 (A) (A) (A) (A) (A) (A) (A) (A) (A) (A) (A) (A)
                 (A) (A) (A) (A) (A) (A) (A) (A) (A) (A) (A) (A)
                 (A) (A) (A) (A) (A) (A) (A) (A) (A) (A) (A) (A)
                 (A) (A) (A) (A) (A) (A) (A) (A) (A) (A) (A) (A)
                 (A) (A) (A) (A) (A) (A) (A) (A) (A) (A) (A) (A)
                 (A) (A) (A) (A) (A) (A) (A) (A) (A) (A) (A) (A)
                 (A) (A) (A) (A) (A) (A) (A) (A) (A) (A) (A) (A)
                 (A) (A) (A) (A) (A) (A) (A) (A) (A) (A) (A) (A)
                 (A) (A) (A) (A) (A) (A) (A) (A) (A) (A) (A) (A)
                 (A) (A) (A) (A) (A) (A) (A) (A) (A) (A) (A) (A)
                 (A) (A) (A) (A) (A) (A) (A) (A) (A) (A) (A) (A)
                 (A)
 Beta  Orbitals:
       Occupied  (A) (A) (A) (A) (A) (A) (A) (A) (A) (A) (A) (A)
                 (A) (A) (A) (A) (A) (A) (A) (A) (A) (A) (A) (A)
                 (A) (A) (A) (A) (A) (A) (A) (A) (A) (A) (A) (A)
                 (A) (A) (A)
       Virtual   (A) (A) (A) (A) (A) (A) (A) (A) (A) (A) (A) (A)
                 (A) (A) (A) (A) (A) (A) (A) (A) (A) (A) (A) (A)
                 (A) (A) (A) (A) (A) (A) (A) (A) (A) (A) (A) (A)
                 (A) (A) (A) (A) (A) (A) (A) (A) (A) (A) (A) (A)
                 (A) (A) (A) (A) (A) (A) (A) (A) (A) (A) (A) (A)
                 (A) (A) (A) (A) (A) (A) (A) (A) (A) (A) (A) (A)
                 (A) (A) (A) (A) (A) (A) (A) (A) (A) (A) (A) (A)
                 (A) (A) (A) (A) (A) (A) (A) (A) (A) (A) (A) (A)
                 (A) (A) (A) (A) (A) (A) (A) (A) (A) (A) (A) (A)
                 (A) (A) (A) (A) (A) (A) (A) (A) (A) (A) (A) (A)
                 (A) (A) (A) (A) (A) (A) (A) (A) (A) (A) (A) (A)
                 (A) (A) (A) (A) (A) (A) (A) (A) (A) (A) (A) (A)
                 (A) (A) (A) (A) (A) (A) (A) (A) (A) (A) (A) (A)
                 (A) (A) (A) (A) (A) (A) (A) (A) (A) (A) (A) (A)
                 (A) (A) (A) (A) (A) (A) (A) (A) (A) (A) (A) (A)
                 (A) (A) (A) (A) (A) (A) (A) (A) (A) (A) (A) (A)
                 (A) (A) (A) (A) (A) (A) (A) (A) (A) (A) (A) (A)
                 (A) (A) (A) (A) (A) (A) (A) (A) (A) (A) (A) (A)
                 (A) (A) (A) (A) (A) (A) (A) (A) (A) (A) (A) (A)
                 (A) (A) (A) (A) (A) (A) (A) (A) (A) (A) (A) (A)
                 (A) (A) (A) (A) (A) (A) (A) (A) (A) (A) (A) (A)
                 (A) (A) (A) (A) (A) (A) (A) (A) (A) (A) (A) (A)
                 (A) (A) (A) (A) (A) (A) (A) (A) (A) (A) (A) (A)
                 (A) (A) (A) (A) (A) (A) (A) (A) (A) (A) (A) (A)
                 (A) (A) (A) (A) (A) (A) (A) (A) (A) (A) (A) (A)
                 (A) (A) (A) (A) (A) (A) (A) (A) (A) (A) (A) (A)
                 (A) (A) (A) (A) (A) (A) (A) (A) (A) (A) (A) (A)
                 (A) (A) (A) (A) (A) (A) (A) (A) (A) (A) (A) (A)
                 (A) (A) (A) (A) (A) (A) (A) (A) (A) (A) (A) (A)
                 (A) (A)
 The electronic state is 2-A.
 Alpha  occ. eigenvalues --  -19.90785 -19.81215 -19.77121 -10.84687 -10.83647
 Alpha  occ. eigenvalues --  -10.77183 -10.77158 -10.76490 -10.76224 -10.75518
 Alpha  occ. eigenvalues --  -10.75083  -1.43662  -1.38558  -1.29000  -1.18733
 Alpha  occ. eigenvalues --   -1.08397  -1.06823  -0.99967  -0.93925  -0.89224
 Alpha  occ. eigenvalues --   -0.86608  -0.81378  -0.78097  -0.77548  -0.76478
 Alpha  occ. eigenvalues --   -0.73461  -0.72564  -0.70867  -0.69521  -0.68661
 Alpha  occ. eigenvalues --   -0.65373  -0.65102  -0.63289  -0.62272  -0.61069
 Alpha  occ. eigenvalues --   -0.60674  -0.54620  -0.52174  -0.51253  -0.51048
 Alpha virt. eigenvalues --   -0.20726  -0.18116  -0.08125  -0.08060  -0.06867
 Alpha virt. eigenvalues --   -0.05236  -0.04250  -0.02750  -0.01193  -0.00063
 Alpha virt. eigenvalues --    0.00273   0.00658   0.01750   0.01811   0.03551
 Alpha virt. eigenvalues --    0.05580   0.06036   0.06694   0.08456   0.09074
 Alpha virt. eigenvalues --    0.09202   0.10110   0.11248   0.12171   0.13245
 Alpha virt. eigenvalues --    0.13669   0.15311   0.15401   0.17106   0.17492
 Alpha virt. eigenvalues --    0.18053   0.20151   0.21474   0.22628   0.22739
 Alpha virt. eigenvalues --    0.23395   0.25093   0.25519   0.26485   0.27844
 Alpha virt. eigenvalues --    0.28188   0.28920   0.30422   0.31420   0.32229
 Alpha virt. eigenvalues --    0.33367   0.33448   0.34334   0.34761   0.34999
 Alpha virt. eigenvalues --    0.36470   0.36890   0.38306   0.38890   0.40002
 Alpha virt. eigenvalues --    0.42604   0.43473   0.44632   0.45170   0.47246
 Alpha virt. eigenvalues --    0.47950   0.49450   0.51802   0.52773   0.54147
 Alpha virt. eigenvalues --    0.54311   0.55764   0.56225   0.56969   0.58548
 Alpha virt. eigenvalues --    0.59592   0.60845   0.61526   0.62961   0.65705
 Alpha virt. eigenvalues --    0.65873   0.66640   0.69117   0.70254   0.70933
 Alpha virt. eigenvalues --    0.74097   0.74760   0.75399   0.77762   0.79674
 Alpha virt. eigenvalues --    0.79958   0.82626   0.82973   0.83564   0.85351
 Alpha virt. eigenvalues --    0.87138   0.89171   0.92425   0.93744   0.96214
 Alpha virt. eigenvalues --    0.96770   0.98171   0.99569   1.04612   1.04814
 Alpha virt. eigenvalues --    1.07532   1.08075   1.10337   1.10939   1.11808
 Alpha virt. eigenvalues --    1.13423   1.16982   1.18138   1.21652   1.22574
 Alpha virt. eigenvalues --    1.25212   1.26139   1.28810   1.29768   1.33378
 Alpha virt. eigenvalues --    1.34368   1.35622   1.36066   1.37574   1.38669
 Alpha virt. eigenvalues --    1.39630   1.40114   1.42052   1.42296   1.44604
 Alpha virt. eigenvalues --    1.45796   1.49430   1.50615   1.51422   1.53083
 Alpha virt. eigenvalues --    1.53414   1.54930   1.55584   1.56742   1.58360
 Alpha virt. eigenvalues --    1.62695   1.65007   1.67246   1.70114   1.70498
 Alpha virt. eigenvalues --    1.71815   1.72662   1.74644   1.78592   1.79549
 Alpha virt. eigenvalues --    1.81146   1.82512   1.83440   1.85061   1.86816
 Alpha virt. eigenvalues --    1.89196   1.91328   1.92552   1.93811   1.95144
 Alpha virt. eigenvalues --    1.95655   1.96177   1.98061   2.02309   2.05566
 Alpha virt. eigenvalues --    2.06403   2.08434   2.09445   2.10413   2.12242
 Alpha virt. eigenvalues --    2.16470   2.16967   2.18763   2.20306   2.22353
 Alpha virt. eigenvalues --    2.24576   2.26412   2.27204   2.30630   2.31217
 Alpha virt. eigenvalues --    2.34916   2.36362   2.38229   2.39087   2.41146
 Alpha virt. eigenvalues --    2.42083   2.44683   2.46503   2.47177   2.47701
 Alpha virt. eigenvalues --    2.47999   2.50825   2.51320   2.53038   2.55025
 Alpha virt. eigenvalues --    2.56482   2.57381   2.61330   2.62512   2.62893
 Alpha virt. eigenvalues --    2.64212   2.65748   2.66520   2.67960   2.68870
 Alpha virt. eigenvalues --    2.69564   2.69911   2.71783   2.73332   2.73689
 Alpha virt. eigenvalues --    2.75486   2.75986   2.78580   2.81045   2.83106
 Alpha virt. eigenvalues --    2.85410   2.85837   2.86520   2.88559   2.89381
 Alpha virt. eigenvalues --    2.93505   2.94848   2.96764   2.97183   2.97978
 Alpha virt. eigenvalues --    3.00020   3.00494   3.01442   3.03441   3.03993
 Alpha virt. eigenvalues --    3.05452   3.08538   3.10339   3.10584   3.11723
 Alpha virt. eigenvalues --    3.12484   3.13080   3.14157   3.14699   3.15265
 Alpha virt. eigenvalues --    3.18255   3.19020   3.19823   3.21999   3.23233
 Alpha virt. eigenvalues --    3.24113   3.26154   3.28353   3.28891   3.30300
 Alpha virt. eigenvalues --    3.32079   3.33917   3.34802   3.35886   3.37527
 Alpha virt. eigenvalues --    3.38754   3.40125   3.42453   3.45772   3.47489
 Alpha virt. eigenvalues --    3.48645   3.54266   3.55454   3.61089   3.66389
 Alpha virt. eigenvalues --    3.66734   3.67700   3.69563   3.74390   3.76234
 Alpha virt. eigenvalues --    3.82054   3.87785   3.89854   3.91396   3.92320
 Alpha virt. eigenvalues --    3.94206   3.95874   3.96876   3.99235   3.99594
 Alpha virt. eigenvalues --    4.02740   4.03519   4.06132   4.08404   4.10835
 Alpha virt. eigenvalues --    4.21129   4.21728   4.26061   4.30889   4.31783
 Alpha virt. eigenvalues --    4.35096   4.38044   4.39194   4.42540   4.47118
 Alpha virt. eigenvalues --    4.52322   4.59542   4.62760   4.69318   4.71920
 Alpha virt. eigenvalues --    4.83506   4.93047   4.94950   5.02027   5.04395
 Alpha virt. eigenvalues --    5.05803   5.07538   5.11526   5.15006   5.16774
 Alpha virt. eigenvalues --    5.25327   5.27359   5.30839   5.38405   5.40332
 Alpha virt. eigenvalues --    5.50762   5.54018   5.67125   5.68999   5.73905
 Alpha virt. eigenvalues --    5.79791   5.82314   6.02688   6.10647   6.14543
 Alpha virt. eigenvalues --    6.18404   6.25111   6.30720   6.34121   6.40088
 Alpha virt. eigenvalues --    6.40925   6.55761   6.58709   6.60212   6.62389
 Alpha virt. eigenvalues --    6.66984   6.69244   6.78807   6.94313   6.96883
 Alpha virt. eigenvalues --    7.02921   7.17755   7.23051  22.07081  22.34809
 Alpha virt. eigenvalues --   22.52422  22.57766  22.76429  22.80951  23.18938
 Alpha virt. eigenvalues --   23.43969  43.83339  43.89899  44.18331
  Beta  occ. eigenvalues --  -19.90129 -19.81222 -19.77066 -10.84617 -10.83668
  Beta  occ. eigenvalues --  -10.77061 -10.76983 -10.76506 -10.76141 -10.75566
  Beta  occ. eigenvalues --  -10.75138  -1.41861  -1.38495  -1.28907  -1.17966
  Beta  occ. eigenvalues --   -1.07711  -1.06162  -0.99297  -0.93641  -0.88848
  Beta  occ. eigenvalues --   -0.85983  -0.80984  -0.77587  -0.76071  -0.73996
  Beta  occ. eigenvalues --   -0.73173  -0.72423  -0.70654  -0.68913  -0.68203
  Beta  occ. eigenvalues --   -0.64966  -0.63545  -0.63084  -0.62107  -0.60200
  Beta  occ. eigenvalues --   -0.57050  -0.54287  -0.51569  -0.50884
  Beta virt. eigenvalues --   -0.34891  -0.19177  -0.15198  -0.07988  -0.07228
  Beta virt. eigenvalues --   -0.07048  -0.05162  -0.04180  -0.02683  -0.01328
  Beta virt. eigenvalues --   -0.00294   0.00278   0.00641   0.01697   0.02883
  Beta virt. eigenvalues --    0.03393   0.05467   0.05892   0.06945   0.08572
  Beta virt. eigenvalues --    0.08805   0.08976   0.10014   0.11164   0.12100
  Beta virt. eigenvalues --    0.12910   0.13273   0.15418   0.15807   0.16884
  Beta virt. eigenvalues --    0.17490   0.18384   0.19846   0.21535   0.22304
  Beta virt. eigenvalues --    0.22740   0.23209   0.25032   0.25660   0.26343
  Beta virt. eigenvalues --    0.27892   0.28232   0.28750   0.30565   0.31509
  Beta virt. eigenvalues --    0.32416   0.33363   0.33750   0.34386   0.34808
  Beta virt. eigenvalues --    0.35055   0.36311   0.36976   0.38350   0.39150
  Beta virt. eigenvalues --    0.40015   0.42537   0.43618   0.44907   0.45220
  Beta virt. eigenvalues --    0.47332   0.47958   0.48980   0.51784   0.52972
  Beta virt. eigenvalues --    0.54140   0.54385   0.55716   0.56491   0.57118
  Beta virt. eigenvalues --    0.58914   0.59266   0.60817   0.61814   0.62499
  Beta virt. eigenvalues --    0.65845   0.66138   0.66765   0.69200   0.70582
  Beta virt. eigenvalues --    0.71293   0.73807   0.74817   0.75503   0.77841
  Beta virt. eigenvalues --    0.79661   0.80054   0.82685   0.82965   0.83616
  Beta virt. eigenvalues --    0.85453   0.87224   0.89122   0.92583   0.93962
  Beta virt. eigenvalues --    0.96399   0.96840   0.98347   0.99921   1.04902
  Beta virt. eigenvalues --    1.05082   1.07825   1.08441   1.10593   1.11220
  Beta virt. eigenvalues --    1.12261   1.13766   1.17334   1.18317   1.22147
  Beta virt. eigenvalues --    1.23453   1.25704   1.26552   1.29306   1.30532
  Beta virt. eigenvalues --    1.33415   1.34840   1.36025   1.37455   1.37632
  Beta virt. eigenvalues --    1.39082   1.40146   1.40185   1.42082   1.42305
  Beta virt. eigenvalues --    1.44980   1.46043   1.49757   1.51425   1.51855
  Beta virt. eigenvalues --    1.53818   1.54178   1.55445   1.55889   1.56892
  Beta virt. eigenvalues --    1.58890   1.62919   1.65221   1.67915   1.70615
  Beta virt. eigenvalues --    1.71298   1.72358   1.73128   1.74995   1.78728
  Beta virt. eigenvalues --    1.79983   1.81510   1.83006   1.83755   1.85244
  Beta virt. eigenvalues --    1.87036   1.89541   1.91691   1.92930   1.94282
  Beta virt. eigenvalues --    1.95423   1.96069   1.96584   1.98772   2.02987
  Beta virt. eigenvalues --    2.06120   2.06958   2.08947   2.09877   2.10704
  Beta virt. eigenvalues --    2.12596   2.16762   2.18174   2.19679   2.20857
  Beta virt. eigenvalues --    2.22483   2.25002   2.26980   2.27444   2.30998
  Beta virt. eigenvalues --    2.31670   2.35684   2.36866   2.39155   2.39945
  Beta virt. eigenvalues --    2.41707   2.42577   2.45303   2.47697   2.48337
  Beta virt. eigenvalues --    2.48678   2.49622   2.51677   2.52670   2.53758
  Beta virt. eigenvalues --    2.56090   2.57685   2.58880   2.61965   2.63290
  Beta virt. eigenvalues --    2.63862   2.65144   2.66121   2.67103   2.68725
  Beta virt. eigenvalues --    2.69416   2.70023   2.71167   2.72254   2.74011
  Beta virt. eigenvalues --    2.74430   2.76344   2.76545   2.78931   2.81937
  Beta virt. eigenvalues --    2.83826   2.86039   2.86536   2.87032   2.89154
  Beta virt. eigenvalues --    2.89804   2.94356   2.95588   2.97156   2.97594
  Beta virt. eigenvalues --    2.99053   3.00682   3.01251   3.02005   3.04073
  Beta virt. eigenvalues --    3.05118   3.06081   3.09162   3.10838   3.10884
  Beta virt. eigenvalues --    3.12612   3.12963   3.13861   3.15238   3.15321
  Beta virt. eigenvalues --    3.15773   3.19059   3.19671   3.20351   3.22936
  Beta virt. eigenvalues --    3.24010   3.24854   3.27109   3.29323   3.29880
  Beta virt. eigenvalues --    3.30810   3.32984   3.35022   3.35230   3.36582
  Beta virt. eigenvalues --    3.38100   3.39616   3.40493   3.43405   3.46461
  Beta virt. eigenvalues --    3.48316   3.49908   3.54901   3.56188   3.62433
  Beta virt. eigenvalues --    3.66976   3.67289   3.68944   3.69994   3.75217
  Beta virt. eigenvalues --    3.77172   3.83018   3.88672   3.90868   3.91969
  Beta virt. eigenvalues --    3.94853   3.96712   3.97531   3.98217   4.00672
  Beta virt. eigenvalues --    4.01175   4.04439   4.04869   4.06591   4.09683
  Beta virt. eigenvalues --    4.12069   4.21348   4.22879   4.27246   4.31710
  Beta virt. eigenvalues --    4.32991   4.37715   4.39552   4.40799   4.44231
  Beta virt. eigenvalues --    4.48054   4.54926   4.60167   4.64102   4.70895
  Beta virt. eigenvalues --    4.74168   4.86138   4.94622   4.96453   5.02230
  Beta virt. eigenvalues --    5.06063   5.07589   5.08129   5.12606   5.16087
  Beta virt. eigenvalues --    5.19337   5.25402   5.28398   5.31767   5.38539
  Beta virt. eigenvalues --    5.41308   5.51122   5.54967   5.67493   5.69668
  Beta virt. eigenvalues --    5.74159   5.79889   5.82909   6.02904   6.11090
  Beta virt. eigenvalues --    6.14621   6.18707   6.25214   6.30905   6.34601
  Beta virt. eigenvalues --    6.40582   6.43544   6.55816   6.58938   6.62749
  Beta virt. eigenvalues --    6.64722   6.67307   6.69441   6.78870   6.94482
  Beta virt. eigenvalues --    6.96998   7.02984   7.18470   7.23254  22.07289
  Beta virt. eigenvalues --   22.34772  22.52742  22.58181  22.76922  22.81207
  Beta virt. eigenvalues --   23.19266  23.44282  43.83340  43.89888  44.18279
          Condensed to atoms (all electrons):
               1          2          3          4          5          6
     1  C    4.986663   0.197258  -0.085333   0.012787  -0.002285   0.001435
     2  O    0.197258   7.708395   0.431530  -0.057711   0.003010  -0.001325
     3  C   -0.085333   0.431530   4.767347   0.412342   0.003055  -0.046479
     4  C    0.012787  -0.057711   0.412342   5.018907   0.469655  -0.006436
     5  C   -0.002285   0.003010   0.003055   0.469655   4.927213   0.417419
     6  C    0.001435  -0.001325  -0.046479  -0.006436   0.417419   4.911067
     7  C   -0.002744   0.005537  -0.008756  -0.075438  -0.000211   0.401981
     8  C    0.007649  -0.114345   0.344767   0.002762  -0.073884  -0.000481
     9  C    0.001214   0.009024  -0.081108   0.001703  -0.000919   0.000909
    10  O    0.002009  -0.013537  -0.006685   0.001221  -0.000269   0.000172
    11  O    0.000026  -0.000179  -0.000506  -0.000513   0.000474  -0.001505
    12  H    0.409040  -0.025645  -0.012527   0.000642   0.000115   0.000037
    13  H    0.409206  -0.024086  -0.013003   0.000796   0.000169   0.000004
    14  H    0.402538  -0.026210   0.004738  -0.000477   0.000124  -0.000024
    15  H    0.001215  -0.002013  -0.031648   0.397820  -0.002246   0.000520
    16  H    0.000006  -0.000072   0.001834  -0.011717   0.395190  -0.021300
    17  H    0.000002   0.000007  -0.001375   0.005782  -0.029959   0.412377
    18  H   -0.000001   0.000016   0.010636  -0.002713   0.005365  -0.037274
    19  H   -0.000002   0.000042  -0.000084   0.000025   0.000001  -0.000039
               7          8          9         10         11         12
     1  C   -0.002744   0.007649   0.001214   0.002009   0.000026   0.409040
     2  O    0.005537  -0.114345   0.009024  -0.013537  -0.000179  -0.025645
     3  C   -0.008756   0.344767  -0.081108  -0.006685  -0.000506  -0.012527
     4  C   -0.075438   0.002762   0.001703   0.001221  -0.000513   0.000642
     5  C   -0.000211  -0.073884  -0.000919  -0.000269   0.000474   0.000115
     6  C    0.401981  -0.000481   0.000909   0.000172  -0.001505   0.000037
     7  C    4.969979   0.422314  -0.005623   0.001973   0.017785  -0.000113
     8  C    0.422314   5.346227   0.252555  -0.070521  -0.154371  -0.000459
     9  C   -0.005623   0.252555   4.460846   0.664323   0.407105   0.000159
    10  O    0.001973  -0.070521   0.664323   7.747161  -0.084271  -0.000079
    11  O    0.017785  -0.154371   0.407105  -0.084271   7.912859  -0.000001
    12  H   -0.000113  -0.000459   0.000159  -0.000079  -0.000001   0.486194
    13  H   -0.000014  -0.001487  -0.000071  -0.000068  -0.000001  -0.040933
    14  H    0.000081   0.000075  -0.000212   0.000206   0.000001  -0.011130
    15  H    0.000637   0.003262  -0.000156   0.000025   0.000003  -0.003284
    16  H    0.001398   0.000475   0.000048  -0.000001   0.000000  -0.000001
    17  H   -0.029223   0.005604  -0.000047   0.000002  -0.000112   0.000000
    18  H    0.405854  -0.012980  -0.012141   0.000228   0.008526  -0.000001
    19  H   -0.002268   0.020799  -0.026047   0.005674   0.302079   0.000000
              13         14         15         16         17         18
     1  C    0.409206   0.402538   0.001215   0.000006   0.000002  -0.000001
     2  O   -0.024086  -0.026210  -0.002013  -0.000072   0.000007   0.000016
     3  C   -0.013003   0.004738  -0.031648   0.001834  -0.001375   0.010636
     4  C    0.000796  -0.000477   0.397820  -0.011717   0.005782  -0.002713
     5  C    0.000169   0.000124  -0.002246   0.395190  -0.029959   0.005365
     6  C    0.000004  -0.000024   0.000520  -0.021300   0.412377  -0.037274
     7  C   -0.000014   0.000081   0.000637   0.001398  -0.029223   0.405854
     8  C   -0.001487   0.000075   0.003262   0.000475   0.005604  -0.012980
     9  C   -0.000071  -0.000212  -0.000156   0.000048  -0.000047  -0.012141
    10  O   -0.000068   0.000206   0.000025  -0.000001   0.000002   0.000228
    11  O   -0.000001   0.000001   0.000003   0.000000  -0.000112   0.008526
    12  H   -0.040933  -0.011130  -0.003284  -0.000001   0.000000  -0.000001
    13  H    0.486759  -0.011361  -0.003908  -0.000000   0.000001   0.000001
    14  H   -0.011361   0.432657   0.000170   0.000000  -0.000000   0.000000
    15  H   -0.003908   0.000170   0.424593  -0.001674  -0.000074   0.000003
    16  H   -0.000000   0.000000  -0.001674   0.429664  -0.001883  -0.000061
    17  H    0.000001  -0.000000  -0.000074  -0.001883   0.424065  -0.002107
    18  H    0.000001   0.000000   0.000003  -0.000061  -0.002107   0.412839
    19  H    0.000000  -0.000000  -0.000000   0.000000  -0.000000  -0.000097
              19
     1  C   -0.000002
     2  O    0.000042
     3  C   -0.000084
     4  C    0.000025
     5  C    0.000001
     6  C   -0.000039
     7  C   -0.002268
     8  C    0.020799
     9  C   -0.026047
    10  O    0.005674
    11  O    0.302079
    12  H    0.000000
    13  H    0.000000
    14  H   -0.000000
    15  H   -0.000000
    16  H    0.000000
    17  H   -0.000000
    18  H   -0.000097
    19  H    0.331141
          Atomic-Atomic Spin Densities.
               1          2          3          4          5          6
     1  C   -0.018040  -0.006282   0.002962  -0.000086   0.000581  -0.000103
     2  O   -0.006282   0.369023  -0.069117  -0.002344   0.000014   0.000617
     3  C    0.002962  -0.069117   0.110858   0.049616  -0.006919  -0.003830
     4  C   -0.000086  -0.002344   0.049616   0.151090  -0.028953  -0.011961
     5  C    0.000581   0.000014  -0.006919  -0.028953  -0.097881   0.044179
     6  C   -0.000103   0.000617  -0.003830  -0.011961   0.044179   0.387784
     7  C    0.000072  -0.000571  -0.005021  -0.002279  -0.004940   0.033494
     8  C    0.000609  -0.015809   0.055029   0.003766   0.000202  -0.016297
     9  C   -0.000043   0.001792  -0.000395   0.000943  -0.000133   0.000165
    10  O   -0.000030   0.001164   0.000128  -0.000115   0.000014   0.000002
    11  O    0.000000   0.000011   0.000098  -0.000043   0.000019   0.000018
    12  H    0.003996  -0.004082   0.002289   0.001289  -0.000060  -0.000031
    13  H    0.003929  -0.004030   0.002479   0.001175  -0.000065  -0.000045
    14  H   -0.000451  -0.000112   0.000267  -0.000178  -0.000004  -0.000000
    15  H    0.000272  -0.000344   0.001862  -0.002122  -0.000175   0.000167
    16  H    0.000009   0.000003  -0.000099  -0.001805   0.001305  -0.000683
    17  H   -0.000001   0.000001   0.000218  -0.000142   0.002540  -0.004566
    18  H    0.000000  -0.000002  -0.000332  -0.000063   0.000007  -0.000586
    19  H   -0.000000  -0.000001  -0.000018   0.000005  -0.000002   0.000004
               7          8          9         10         11         12
     1  C    0.000072   0.000609  -0.000043  -0.000030   0.000000   0.003996
     2  O   -0.000571  -0.015809   0.001792   0.001164   0.000011  -0.004082
     3  C   -0.005021   0.055029  -0.000395   0.000128   0.000098   0.002289
     4  C   -0.002279   0.003766   0.000943  -0.000115  -0.000043   0.001289
     5  C   -0.004940   0.000202  -0.000133   0.000014   0.000019  -0.000060
     6  C    0.033494  -0.016297   0.000165   0.000002   0.000018  -0.000031
     7  C   -0.096952  -0.021941   0.001645   0.000032   0.000550  -0.000027
     8  C   -0.021941   0.166017  -0.001096  -0.003948  -0.001261   0.000152
     9  C    0.001645  -0.001096  -0.022317   0.000191   0.003192   0.000005
    10  O    0.000032  -0.003948   0.000191   0.032884   0.000305  -0.000005
    11  O    0.000550  -0.001261   0.003192   0.000305  -0.004246   0.000000
    12  H   -0.000027   0.000152   0.000005  -0.000005   0.000000   0.017001
    13  H   -0.000004   0.000256  -0.000012  -0.000007  -0.000000  -0.003975
    14  H    0.000003   0.000052  -0.000005   0.000001   0.000000   0.000083
    15  H   -0.000132   0.000776  -0.000003   0.000001   0.000000  -0.000044
    16  H   -0.000100   0.000008   0.000003   0.000000   0.000000  -0.000001
    17  H    0.002720  -0.000265  -0.000012   0.000000   0.000000   0.000000
    18  H    0.001634  -0.001861   0.000367  -0.000004  -0.000109  -0.000000
    19  H   -0.000021  -0.000061   0.000006  -0.000070   0.000075  -0.000000
              13         14         15         16         17         18
     1  C    0.003929  -0.000451   0.000272   0.000009  -0.000001   0.000000
     2  O   -0.004030  -0.000112  -0.000344   0.000003   0.000001  -0.000002
     3  C    0.002479   0.000267   0.001862  -0.000099   0.000218  -0.000332
     4  C    0.001175  -0.000178  -0.002122  -0.001805  -0.000142  -0.000063
     5  C   -0.000065  -0.000004  -0.000175   0.001305   0.002540   0.000007
     6  C   -0.000045  -0.000000   0.000167  -0.000683  -0.004566  -0.000586
     7  C   -0.000004   0.000003  -0.000132  -0.000100   0.002720   0.001634
     8  C    0.000256   0.000052   0.000776   0.000008  -0.000265  -0.001861
     9  C   -0.000012  -0.000005  -0.000003   0.000003  -0.000012   0.000367
    10  O   -0.000007   0.000001   0.000001   0.000000   0.000000  -0.000004
    11  O   -0.000000   0.000000   0.000000   0.000000   0.000000  -0.000109
    12  H   -0.003975   0.000083  -0.000044  -0.000001   0.000000  -0.000000
    13  H    0.017207   0.000055  -0.000091   0.000001   0.000000   0.000000
    14  H    0.000055   0.000360  -0.000002  -0.000000   0.000000   0.000000
    15  H   -0.000091  -0.000002  -0.005647   0.000087  -0.000004  -0.000000
    16  H    0.000001  -0.000000   0.000087   0.001174  -0.000095  -0.000002
    17  H    0.000000   0.000000  -0.000004  -0.000095  -0.007072  -0.000102
    18  H    0.000000   0.000000  -0.000000  -0.000002  -0.000102   0.001013
    19  H    0.000000  -0.000000  -0.000000  -0.000000  -0.000000  -0.000003
              19
     1  C   -0.000000
     2  O   -0.000001
     3  C   -0.000018
     4  C    0.000005
     5  C   -0.000002
     6  C    0.000004
     7  C   -0.000021
     8  C   -0.000061
     9  C    0.000006
    10  O   -0.000070
    11  O    0.000075
    12  H   -0.000000
    13  H    0.000000
    14  H   -0.000000
    15  H   -0.000000
    16  H   -0.000000
    17  H   -0.000000
    18  H   -0.000003
    19  H   -0.000209
 Mulliken charges and spin densities:
               1          2
     1  C   -0.340685  -0.012606
     2  O   -0.089696   0.269931
     3  C    0.311254   0.140075
     4  C   -0.169438   0.157789
     5  C   -0.112017  -0.090271
     6  C   -0.031058   0.428330
     7  C   -0.103152  -0.091840
     8  C    0.022039   0.164329
     9  C    0.328438  -0.015706
    10  O   -0.247563   0.030542
    11  O   -0.407401  -0.001392
    12  H    0.197984   0.016589
    13  H    0.197996   0.016872
    14  H    0.208824   0.000068
    15  H    0.216755  -0.005399
    16  H    0.208096  -0.000196
    17  H    0.216940  -0.006779
    18  H    0.223908  -0.000041
    19  H    0.368775  -0.000295
 Sum of Mulliken charges =   1.00000   1.00000
 Mulliken charges and spin densities with hydrogens summed into heavy atoms:
               1          2
     1  C    0.264120   0.020923
     2  O   -0.089696   0.269931
     3  C    0.311254   0.140075
     4  C    0.047318   0.152390
     5  C    0.096078  -0.090466
     6  C    0.185882   0.421551
     7  C    0.120756  -0.091882
     8  C    0.022039   0.164329
     9  C    0.328438  -0.015706
    10  O   -0.247563   0.030542
    11  O   -0.038625  -0.001687
 Electronic spatial extent (au):  <R**2>=           1676.4524
 Charge=              1.0000 electrons
 Dipole moment (field-independent basis, Debye):
    X=              4.9005    Y=              2.9908    Z=              0.1802  Tot=              5.7439
 Quadrupole moment (field-independent basis, Debye-Ang):
   XX=            -33.2390   YY=            -39.0676   ZZ=            -61.5677
   XY=             -4.9142   XZ=             -0.1632   YZ=             -1.2306
 Traceless Quadrupole moment (field-independent basis, Debye-Ang):
   XX=             11.3857   YY=              5.5572   ZZ=            -16.9429
   XY=             -4.9142   XZ=             -0.1632   YZ=             -1.2306
 Octapole moment (field-independent basis, Debye-Ang**2):
  XXX=            -17.6126  YYY=             21.3366  ZZZ=              0.2299  XYY=             35.7693
  XXY=            -15.0681  XXZ=              1.4156  XZZ=             -3.4171  YZZ=             -8.3800
  YYZ=              1.0359  XYZ=              1.1691
 Hexadecapole moment (field-independent basis, Debye-Ang**3):
 XXXX=           -758.3436 YYYY=           -700.3889 ZZZZ=            -68.0068 XXXY=             16.7835
 XXXZ=             -4.6706 YYYX=            -44.1411 YYYZ=             -5.3950 ZZZX=              0.3646
 ZZZY=              0.4215 XXYY=           -274.4540 XXZZ=           -193.6066 YYZZ=           -172.9242
 XXYZ=             -5.3317 YYXZ=             -1.3760 ZZXY=             -5.6792
 N-N= 5.968247346160D+02 E-N=-2.429652743067D+03  KE= 5.326934367356D+02
                          Isotropic Fermi Contact Couplings
        Atom                 a.u.       MegaHertz       Gauss      10(-4) cm-1
     1  C(13)             -0.00863      -9.69987      -3.46115      -3.23553
     2  O(17)              0.06071     -36.80508     -13.13297     -12.27685
     3  C(13)              0.00113       1.26809       0.45248       0.42299
     4  C(13)              0.01136      12.77469       4.55833       4.26118
     5  C(13)             -0.02106     -23.67840      -8.44904      -7.89827
     6  C(13)              0.05355      60.19545      21.47923      20.07904
     7  C(13)             -0.02216     -24.91209      -8.88925      -8.30978
     8  C(13)              0.01448      16.28370       5.81043       5.43166
     9  C(13)             -0.01103     -12.39661      -4.42342      -4.13506
    10  O(17)              0.00411      -2.49001      -0.88850      -0.83058
    11  O(17)             -0.00261       1.58292       0.56483       0.52801
    12  H(1)               0.00773      34.55770      12.33105      11.52721
    13  H(1)               0.00785      35.09321      12.52213      11.70584
    14  H(1)              -0.00012      -0.55590      -0.19836      -0.18543
    15  H(1)              -0.00328     -14.67185      -5.23528      -4.89400
    16  H(1)               0.00018       0.80839       0.28845       0.26965
    17  H(1)              -0.00660     -29.47981     -10.51913      -9.83341
    18  H(1)               0.00032       1.41969       0.50658       0.47356
    19  H(1)              -0.00007      -0.32915      -0.11745      -0.10979
 --------------------------------------------------------
       Center         ----  Spin Dipole Couplings  ----
                      3XX-RR        3YY-RR        3ZZ-RR
 --------------------------------------------------------
     1   Atom        0.006909     -0.004401     -0.002508
     2   Atom       -0.643510     -0.670340      1.313850
     3   Atom       -0.095042     -0.083498      0.178541
     4   Atom       -0.075707     -0.087441      0.163149
     5   Atom        0.023747      0.017447     -0.041194
     6   Atom       -0.215079     -0.206016      0.421096
     7   Atom        0.027083      0.024216     -0.051299
     8   Atom       -0.082520     -0.094898      0.177418
     9   Atom        0.012301      0.005976     -0.018277
    10   Atom       -0.055845     -0.055648      0.111493
    11   Atom        0.007754      0.002512     -0.010266
    12   Atom        0.004769     -0.000921     -0.003848
    13   Atom        0.004560     -0.001013     -0.003547
    14   Atom       -0.001582      0.006620     -0.005038
    15   Atom        0.016562     -0.010748     -0.005814
    16   Atom        0.007461     -0.002432     -0.005029
    17   Atom       -0.027808      0.032982     -0.005173
    18   Atom        0.006246     -0.001222     -0.005024
    19   Atom        0.002468     -0.001034     -0.001433
 --------------------------------------------------------
                        XY            XZ            YZ
 --------------------------------------------------------
     1   Atom       -0.010198      0.000438     -0.000042
     2   Atom       -0.009161     -0.000931      0.055314
     3   Atom        0.000438      0.000801      0.005584
     4   Atom        0.002986     -0.002180      0.002147
     5   Atom       -0.003676     -0.000235     -0.001174
     6   Atom       -0.000925      0.000946      0.008218
     7   Atom        0.004618     -0.000050     -0.001118
     8   Atom       -0.000680     -0.001416      0.001441
     9   Atom        0.000642     -0.001197      0.002771
    10   Atom        0.000814      0.000685     -0.032538
    11   Atom       -0.000127      0.000852      0.001574
    12   Atom       -0.004340     -0.005333      0.001620
    13   Atom       -0.004099      0.005616     -0.001779
    14   Atom       -0.006658      0.000179     -0.000307
    15   Atom       -0.004979      0.000091      0.000023
    16   Atom       -0.000842      0.000068     -0.000023
    17   Atom       -0.005136      0.000099     -0.000528
    18   Atom        0.002471     -0.000060     -0.000040
    19   Atom       -0.000428     -0.000213     -0.000003
 --------------------------------------------------------


 ---------------------------------------------------------------------------------
              Anisotropic Spin Dipole Couplings in Principal Axis System
 ---------------------------------------------------------------------------------

       Atom             a.u.   MegaHertz   Gauss  10(-4) cm-1        Axes

              Baa    -0.0104    -1.397    -0.499    -0.466  0.5077  0.8612 -0.0235
     1 C(13)  Bbb    -0.0025    -0.337    -0.120    -0.113 -0.0103  0.0333  0.9994
              Bcc     0.0129     1.734     0.619     0.579  0.8615 -0.5071  0.0258
 
              Baa    -0.6746    48.811    17.417    16.282  0.2821  0.9590 -0.0265
     2 O(17)  Bbb    -0.6408    46.370    16.546    15.467  0.9594 -0.2820  0.0084
              Bcc     1.3154   -95.181   -33.963   -31.749 -0.0006  0.0278  0.9996
 
              Baa    -0.0951   -12.756    -4.552    -4.255  0.9993 -0.0368 -0.0022
     3 C(13)  Bbb    -0.0836   -11.219    -4.003    -3.742  0.0367  0.9991 -0.0214
              Bcc     0.1787    23.975     8.555     7.997  0.0030  0.0213  0.9998
 
              Baa    -0.0882   -11.834    -4.222    -3.947 -0.2345  0.9721 -0.0103
     4 C(13)  Bbb    -0.0750   -10.065    -3.591    -3.357  0.9721  0.2345  0.0068
              Bcc     0.1632    21.898     7.814     7.304 -0.0090  0.0085  0.9999
 
              Baa    -0.0412    -5.531    -1.974    -1.845  0.0048  0.0203  0.9998
     5 C(13)  Bbb     0.0158     2.118     0.756     0.706  0.4184  0.9080 -0.0204
              Bcc     0.0254     3.414     1.218     1.139  0.9082 -0.4184  0.0042
 
              Baa    -0.2152   -28.875   -10.303    -9.632  0.9947  0.1030 -0.0028
     6 C(13)  Bbb    -0.2060   -27.647    -9.865    -9.222 -0.1030  0.9946 -0.0129
              Bcc     0.4212    56.522    20.168    18.854  0.0015  0.0131  0.9999
 
              Baa    -0.0513    -6.886    -2.457    -2.297 -0.0002  0.0148  0.9999
     7 C(13)  Bbb     0.0208     2.794     0.997     0.932 -0.5937  0.8046 -0.0121
              Bcc     0.0305     4.092     1.460     1.365  0.8047  0.5937 -0.0086
 
              Baa    -0.0949   -12.740    -4.546    -4.250  0.0541  0.9985 -0.0050
     8 C(13)  Bbb    -0.0825   -11.070    -3.950    -3.692  0.9985 -0.0541  0.0057
              Bcc     0.1774    23.810     8.496     7.942 -0.0055  0.0053  1.0000
 
              Baa    -0.0186    -2.501    -0.893    -0.834  0.0407 -0.1128  0.9928
     9 C(13)  Bbb     0.0062     0.838     0.299     0.280 -0.0821  0.9899  0.1159
              Bcc     0.0124     1.663     0.593     0.555  0.9958  0.0863 -0.0311
 
              Baa    -0.0619     4.479     1.598     1.494 -0.1513  0.9714  0.1829
    10 O(17)  Bbb    -0.0557     4.031     1.438     1.345  0.9885  0.1493  0.0250
              Bcc     0.1176    -8.510    -3.037    -2.839  0.0030 -0.1846  0.9828
 
              Baa    -0.0105     0.760     0.271     0.253 -0.0471 -0.1205  0.9916
    11 O(17)  Bbb     0.0027    -0.196    -0.070    -0.065  0.0046  0.9927  0.1208
              Bcc     0.0078    -0.564    -0.201    -0.188  0.9989 -0.0102  0.0463
 
              Baa    -0.0064    -3.435    -1.226    -1.146  0.4595  0.1023  0.8823
    12 H(1)   Bbb    -0.0029    -1.572    -0.561    -0.524  0.3216  0.9068 -0.2727
              Bcc     0.0094     5.007     1.787     1.670  0.8279 -0.4090 -0.3838
 
              Baa    -0.0064    -3.436    -1.226    -1.146 -0.4744 -0.0707  0.8775
    13 H(1)   Bbb    -0.0029    -1.554    -0.555    -0.518  0.3178  0.9158  0.2456
              Bcc     0.0094     4.990     1.781     1.665  0.8210 -0.3954  0.4120
 
              Baa    -0.0053    -2.828    -1.009    -0.943  0.8731  0.4870 -0.0237
    14 H(1)   Bbb    -0.0050    -2.693    -0.961    -0.898  0.0094  0.0317  0.9995
              Bcc     0.0103     5.521     1.970     1.842 -0.4875  0.8728 -0.0231
 
              Baa    -0.0116    -6.204    -2.214    -2.069  0.1740  0.9847 -0.0066
    15 H(1)   Bbb    -0.0058    -3.102    -1.107    -1.035 -0.0025  0.0072  1.0000
              Bcc     0.0174     9.306     3.321     3.104  0.9847 -0.1739  0.0037
 
              Baa    -0.0050    -2.684    -0.958    -0.895 -0.0049  0.0073  1.0000
    16 H(1)   Bbb    -0.0025    -1.335    -0.476    -0.445  0.0843  0.9964 -0.0069
              Bcc     0.0075     4.019     1.434     1.341  0.9964 -0.0842  0.0055
 
              Baa    -0.0282   -15.067    -5.376    -5.026  0.9965  0.0836 -0.0024
    17 H(1)   Bbb    -0.0052    -2.764    -0.986    -0.922  0.0012  0.0140  0.9999
              Bcc     0.0334    17.831     6.363     5.948 -0.0836  0.9964 -0.0138
 
              Baa    -0.0050    -2.681    -0.957    -0.894  0.0036  0.0081  1.0000
    18 H(1)   Bbb    -0.0020    -1.048    -0.374    -0.350 -0.2882  0.9576 -0.0068
              Bcc     0.0070     3.729     1.331     1.244  0.9576  0.2881 -0.0058
 
              Baa    -0.0014    -0.772    -0.275    -0.257  0.0620  0.0708  0.9956
    19 H(1)   Bbb    -0.0011    -0.578    -0.206    -0.193  0.1146  0.9904 -0.0776
              Bcc     0.0025     1.350     0.482     0.450  0.9915 -0.1189 -0.0533
 

 ---------------------------------------------------------------------------------

 Unable to Open any file for archive entry.
 1\1\GINC-NODE11\SP\UM062X\def2TZVP\C8H8O3(1+,2)\SVSS\29-Jan-2024\0\\# 
 m062x/def2tzvp\\Ac4_rdkit_conf_1_SP_IE\\1,2\C,0,-2.046496,-2.260665,-0
 .056193\O,0,-0.784718,-1.631211,-0.033646\C,0,-0.733371,-0.290984,-0.0
 03777\C,0,-1.87575,0.510929,0.002664\C,0,-1.762951,1.892223,0.021712\C
 ,0,-0.519669,2.503674,0.029674\C,0,0.615952,1.71255,0.019679\C,0,0.535
 641,0.322156,0.008315\C,0,1.784342,-0.483754,0.024025\O,0,1.877819,-1.
 667923,0.183657\O,0,2.884264,0.286644,-0.158218\H,0,-2.626459,-2.01747
 6,0.837681\H,0,-2.614323,-1.979204,-0.946801\H,0,-1.843925,-3.327508,-
 0.077149\H,0,-2.856661,0.060901,-0.007641\H,0,-2.663958,2.492495,0.028
 658\H,0,-0.434248,3.581107,0.043235\H,0,1.595222,2.168712,0.024987\H,0
 ,3.639243,-0.315885,-0.113899\\Version=AS64L-G16RevC.01\State=2-A\HF=-
 535.0190005\S2=0.773209\S2-1=0.\S2A=0.750282\RMSD=5.123e-09\Dipole=-1.
 9280177,1.1766752,-0.0708801\Quadrupole=8.4650047,4.1316151,-12.596619
 8,3.6535778,-0.1213287,0.9149453\PG=C01 [X(C8H8O3)]\\@
 The archive entry for this job was punched.


 A ROPE OVER THE TOP OF A FENCE HAS THE SAME LENGTH ON EACH SIDE.
 WEIGHS 1/3 POUND PER FOOT.  ON ONE END HANGS A MONKEY HOLDING A
 BANANA, AND ON THE OTHER END A WEIGHT EQUAL TO THE WEIGHT
 OF THE MONKEY.  THE BANANA WEIGHS TWO OUNCES PER INCH.
 THE ROPE IS AS LONG AS THE AGE OF THE MONKEY, 
 AND THE WEIGHT OF THE MONKEY (IN OUNCES) IS AS MUCH
 AS THE AGE OF THE MONKEY'S MOTHER.  THE COMBINED AGES OF MONKEY
 AND MOTHER ARE THIRTY YEARS.  HALF THE WEIGHT OF THE MONKEY,
  PLUS THE WEIGHT OF THE BANANA, IS ONE FOURTH AS MUCH AS THE WEIGHT
 OF THE WEIGHT AND THE ROPE.
 THE MONKEY'S MOTHER IS HALF AS OLD AS THE MONKEY WILL BE
 WHEN IT IS 3 TIMES AS OLD AS ITS MOTHER WAS WHEN
 SHE WAS HALF AS OLD AS THE MONKEY WILL BE WHEN IT IS
 AS OLD AS ITS MOTHER WILL BE WHEN SHE IS 4 TIMES AS
 OLD AS THE MONKEY WAS WHEN IT WAS TWICE AS OLD AS 
 ITS MOTHER WAS WHEN SHE WAS ONE THIRD AS OLD AS THE
 MONKEY WAS WHEN IT WAS AS OLD AS ITS MOTHER WAS WHEN 
 SHE WAS 3 TIMES AS OLD AS THE MONKEY WAS WHEN IT WAS AS OLD AS ITS
 MOTHER WAS WHEN SHE WAS 3 TIMES AS OLD AS THE MONKEY 
 WAS WHEN IT WAS ONE FOURTH WAS OLD AS IT IS NOW.

 HOW LONG IS THE BANANA?
 Job cpu time:       0 days  0 hours 32 minutes 44.5 seconds.
 Elapsed time:       0 days  0 hours  4 minutes 12.2 seconds.
 File lengths (MBytes):  RWF=    149 Int=      0 D2E=      0 Chk=     12 Scr=      1
 Normal termination of Gaussian 16 at Mon Jan 29 12:58:08 2024.
