Job Start Time: Mon Jan 29 12:53:57 MST 2024
SLURM Job ID: 229731
SLURM Job Name: Ac5_rdkit_conf_1_SP_IE
 Entering Gaussian System, Link 0=/opt/apps/Gaussian/G16C/g16/g16
 Initial command:
 /opt/apps/Gaussian/G16C/g16/l1.exe "/tmp/Gau-351936.inp" -scrdir="/tmp/"
 Entering Link 1 = /opt/apps/Gaussian/G16C/g16/l1.exe PID=    351937.
  
 Copyright (c) 1988-2019, Gaussian, Inc.  All Rights Reserved.
  
 This is part of the Gaussian(R) 16 program.  It is based on
 the Gaussian(R) 09 system (copyright 2009, Gaussian, Inc.),
 the Gaussian(R) 03 system (copyright 2003, Gaussian, Inc.),
 the Gaussian(R) 98 system (copyright 1998, Gaussian, Inc.),
 the Gaussian(R) 94 system (copyright 1995, Gaussian, Inc.),
 the Gaussian 92(TM) system (copyright 1992, Gaussian, Inc.),
 the Gaussian 90(TM) system (copyright 1990, Gaussian, Inc.),
 the Gaussian 88(TM) system (copyright 1988, Gaussian, Inc.),
 the Gaussian 86(TM) system (copyright 1986, Carnegie Mellon
 University), and the Gaussian 82(TM) system (copyright 1983,
 Carnegie Mellon University). Gaussian is a federally registered
 trademark of Gaussian, Inc.
  
 This software contains proprietary and confidential information,
 including trade secrets, belonging to Gaussian, Inc.
  
 This software is provided under written license and may be
 used, copied, transmitted, or stored only in accord with that
 written license.
  
 The following legend is applicable only to US Government
 contracts under FAR:
  
                    RESTRICTED RIGHTS LEGEND
  
 Use, reproduction and disclosure by the US Government is
 subject to restrictions as set forth in subparagraphs (a)
 and (c) of the Commercial Computer Software - Restricted
 Rights clause in FAR 52.227-19.
  
 Gaussian, Inc.
 340 Quinnipiac St., Bldg. 40, Wallingford CT 06492
  
  
 ---------------------------------------------------------------
 Warning -- This program may not be used in any manner that
 competes with the business of Gaussian, Inc. or will provide
 assistance to any competitor of Gaussian, Inc.  The licensee
 of this program is prohibited from giving any competitor of
 Gaussian, Inc. access to this program.  By using this program,
 the user acknowledges that Gaussian, Inc. is engaged in the
 business of creating and licensing software in the field of
 computational chemistry and represents and warrants to the
 licensee that it is not a competitor of Gaussian, Inc. and that
 it will not use this program in any manner prohibited above.
 ---------------------------------------------------------------
  

 Cite this work as:
 Gaussian 16, Revision C.01,
 M. J. Frisch, G. W. Trucks, H. B. Schlegel, G. E. Scuseria, 
 M. A. Robb, J. R. Cheeseman, G. Scalmani, V. Barone, 
 G. A. Petersson, H. Nakatsuji, X. Li, M. Caricato, A. V. Marenich, 
 J. Bloino, B. G. Janesko, R. Gomperts, B. Mennucci, H. P. Hratchian, 
 J. V. Ortiz, A. F. Izmaylov, J. L. Sonnenberg, D. Williams-Young, 
 F. Ding, F. Lipparini, F. Egidi, J. Goings, B. Peng, A. Petrone, 
 T. Henderson, D. Ranasinghe, V. G. Zakrzewski, J. Gao, N. Rega, 
 G. Zheng, W. Liang, M. Hada, M. Ehara, K. Toyota, R. Fukuda, 
 J. Hasegawa, M. Ishida, T. Nakajima, Y. Honda, O. Kitao, H. Nakai, 
 T. Vreven, K. Throssell, J. A. Montgomery, Jr., J. E. Peralta, 
 F. Ogliaro, M. J. Bearpark, J. J. Heyd, E. N. Brothers, K. N. Kudin, 
 V. N. Staroverov, T. A. Keith, R. Kobayashi, J. Normand, 
 K. Raghavachari, A. P. Rendell, J. C. Burant, S. S. Iyengar, 
 J. Tomasi, M. Cossi, J. M. Millam, M. Klene, C. Adamo, R. Cammi, 
 J. W. Ochterski, R. L. Martin, K. Morokuma, O. Farkas, 
 J. B. Foresman, and D. J. Fox, Gaussian, Inc., Wallingford CT, 2019.
 
 ******************************************
 Gaussian 16:  AS64L-G16RevC.01  3-Jul-2019
                29-Jan-2024 
 ******************************************
 %nprocshared=8
 Will use up to    8 processors via shared memory.
 %mem=16GB
 ----------------
 # m062x/def2tzvp
 ----------------
 1/38=1,172=1/1;
 2/12=2,17=6,18=5,40=1/2;
 3/5=44,7=101,11=2,25=1,30=1,74=-55/1,2,3;
 4//1;
 5/5=2,38=5/2;
 6/7=2,8=2,9=2,10=2,28=1/1;
 99/5=1,9=1/99;
 ----------------------
 Ac5_rdkit_conf_1_SP_IE
 ----------------------
 Symbolic Z-matrix:
 Charge =  1 Multiplicity = 2
 C                     1.44577   1.86835  -0.14733 
 C                     1.01804   0.48837   0.35935 
 C                     1.35911   0.35756   1.84603 
 C                     1.7872   -0.57543  -0.41473 
 O                     2.39344  -1.49      0.07018 
 O                     1.7083   -0.39503  -1.74525 
 C                    -0.47101   0.20573   0.14911 
 C                    -0.95773  -1.07598   0.40982 
 C                    -2.30327  -1.37015   0.26486 
 C                    -3.19266  -0.38278  -0.14013 
 C                    -2.72014   0.89257  -0.4024 
 C                    -1.3679    1.18411  -0.26285 
 H                     1.18144   2.01493  -1.19293 
 H                     2.52631   1.97882  -0.04686 
 H                     0.97419   2.64689   0.45304 
 H                     0.78429   1.09181   2.41097 
 H                     1.12207  -0.63655   2.21916 
 H                     2.42255   0.53426   2.01012 
 H                     2.19099  -1.12389  -2.1604 
 H                    -0.27023  -1.85343   0.7251 
 H                    -2.65906  -2.372     0.46798 
 H                    -4.24485  -0.60912  -0.25254 
 H                    -3.40311   1.66923  -0.72188 
 H                    -1.023     2.18523  -0.48152 
 
                          Input orientation:                          
 ---------------------------------------------------------------------
 Center     Atomic      Atomic             Coordinates (Angstroms)
 Number     Number       Type             X           Y           Z
 ---------------------------------------------------------------------
      1          6           0        1.445774    1.868346   -0.147332
      2          6           0        1.018036    0.488372    0.359351
      3          6           0        1.359114    0.357563    1.846028
      4          6           0        1.787200   -0.575430   -0.414733
      5          8           0        2.393442   -1.490001    0.070178
      6          8           0        1.708298   -0.395033   -1.745249
      7          6           0       -0.471014    0.205730    0.149105
      8          6           0       -0.957725   -1.075979    0.409820
      9          6           0       -2.303265   -1.370148    0.264857
     10          6           0       -3.192664   -0.382782   -0.140127
     11          6           0       -2.720142    0.892569   -0.402395
     12          6           0       -1.367900    1.184106   -0.262850
     13          1           0        1.181444    2.014928   -1.192931
     14          1           0        2.526307    1.978824   -0.046864
     15          1           0        0.974189    2.646890    0.453035
     16          1           0        0.784292    1.091806    2.410968
     17          1           0        1.122069   -0.636552    2.219158
     18          1           0        2.422554    0.534260    2.010116
     19          1           0        2.190992   -1.123889   -2.160395
     20          1           0       -0.270226   -1.853425    0.725102
     21          1           0       -2.659058   -2.371998    0.467975
     22          1           0       -4.244851   -0.609119   -0.252538
     23          1           0       -3.403114    1.669227   -0.721878
     24          1           0       -1.023002    2.185234   -0.481523
 ---------------------------------------------------------------------
                    Distance matrix (angstroms):
                    1          2          3          4          5
     1  C    0.000000
     2  C    1.531018   0.000000
     3  C    2.502690   1.530900   0.000000
     4  C    2.481958   1.523973   2.482896   0.000000
     5  O    3.496267   2.426793   2.763507   1.199628   0.000000
     6  O    2.783010   2.384577   3.685865   1.345006   2.228038
     7  C    2.554651   1.530150   2.500394   2.455128   3.329691
     8  C    3.841390   2.520590   3.079850   2.909476   3.393684
     9  C    4.971221   3.807107   4.347195   4.222005   4.702268
    10  C    5.155845   4.328785   5.021116   4.991149   5.698661
    11  C    4.286263   3.836353   4.688493   4.740391   5.661158
    12  C    2.897980   2.562005   3.545017   3.615756   4.627035
    13  H    1.088409   2.183267   3.466078   2.771730   3.917769
    14  H    1.090803   2.159013   2.752066   2.684366   3.473341
    15  H    1.090396   2.160995   2.707326   3.434728   4.390299
    16  H    2.754174   2.151256   1.090271   3.430756   3.838540
    17  H    3.461152   2.176042   1.087971   2.717263   2.638727
    18  H    2.718173   2.167903   1.090436   2.741346   2.803897
    19  H    3.682559   3.213150   4.351798   1.873817   2.269467
    20  H    4.190152   2.697667   2.966427   2.676845   2.766971
    21  H    5.933697   4.659886   5.049281   4.876068   5.144309
    22  H    6.207424   5.410811   6.061590   6.034325   6.704255
    23  H    4.886867   4.702132   5.567173   5.663231   6.648920
    24  H    2.511365   2.784286   3.798993   3.939919   5.048150
                    6          7          8          9         10
     6  O    0.000000
     7  C    2.949389   0.000000
     8  C    3.495095   1.395578   0.000000
     9  C    4.591733   2.419490   1.384929   0.000000
    10  C    5.157131   2.799532   2.403730   1.389221   0.000000
    11  C    4.803359   2.415466   2.764234   2.395600   1.385129
    12  C    3.762204   1.389723   2.393473   2.770847   2.408311
    13  H    2.527952   2.793721   4.086387   5.072187   5.098061
    14  H    3.031311   3.488008   4.656056   5.885367   6.188094
    15  H    3.824221   2.853112   4.194510   5.187843   5.185886
    16  H    4.509836   2.734401   3.426151   4.494443   4.949614
    17  H    4.014788   2.744535   2.791477   4.011280   4.924180
    18  H    3.934020   3.456014   4.071867   5.385728   6.082367
    19  H    0.967766   3.766690   4.064815   5.112811   5.797799
    20  H    3.484838   2.147605   1.084657   2.139773   3.384089
    21  H    5.280204   3.396159   2.139528   1.082381   2.147441
    22  H    6.141173   3.881642   3.385539   2.148632   1.082110
    23  H    5.606692   3.390818   3.846664   3.379514   2.143237
    24  H    3.964187   2.149609   3.381459   3.851869   3.379155
                   11         12         13         14         15
    11  C    0.000000
    12  C    1.390333   0.000000
    13  H    4.136062   2.838040   0.000000
    14  H    5.369505   3.980336   1.767323   0.000000
    15  H    4.178215   2.852650   1.775256   1.762181   0.000000
    16  H    4.498418   3.433621   3.741386   3.140439   2.507558
    17  H    4.896257   3.959180   4.321600   3.734559   3.731226
    18  H    5.691741   4.467238   3.740621   2.515690   2.997577
    19  H    5.592486   4.646852   3.436182   3.769122   4.746515
    20  H    3.848873   3.377504   4.555255   4.806523   4.677117
    21  H    3.379153   3.853190   6.062440   6.788426   6.195962
    22  H    2.145288   3.390075   6.100380   7.251781   6.191753
    23  H    1.082459   2.141996   4.621642   5.975745   4.636489
    24  H    2.134837   1.081217   2.322647   3.581777   2.252842
                   16         17         18         19         20
    16  H    0.000000
    17  H    1.771470   0.000000
    18  H    1.776356   1.762317   0.000000
    19  H    5.271192   4.534377   4.494023   0.000000
    20  H    3.553665   2.377282   3.821435   3.862112   0.000000
    21  H    5.256407   4.513905   6.053703   5.655890   2.457957
    22  H    5.939671   5.908795   7.133106   6.732383   4.278051
    23  H    5.261417   5.868866   6.533785   6.415984   4.931310
    24  H    3.581676   4.456174   4.561341   4.909039   4.281750
                   21         22         23         24
    21  H    0.000000
    22  H    2.478229   0.000000
    23  H    4.277951   2.473795   0.000000
    24  H    4.934226   4.270966   2.447237   0.000000
 Stoichiometry    C10H12O2(1+,2)
 Framework group  C1[X(C10H12O2)]
 Deg. of freedom    66
 Full point group                 C1      NOp   1
 Largest Abelian subgroup         C1      NOp   1
 Largest concise Abelian subgroup C1      NOp   1
                         Standard orientation:                         
 ---------------------------------------------------------------------
 Center     Atomic      Atomic             Coordinates (Angstroms)
 Number     Number       Type             X           Y           Z
 ---------------------------------------------------------------------
      1          6           0        1.445774    1.868346   -0.147332
      2          6           0        1.018036    0.488372    0.359351
      3          6           0        1.359114    0.357563    1.846028
      4          6           0        1.787200   -0.575430   -0.414733
      5          8           0        2.393442   -1.490001    0.070178
      6          8           0        1.708298   -0.395033   -1.745249
      7          6           0       -0.471014    0.205730    0.149105
      8          6           0       -0.957725   -1.075979    0.409820
      9          6           0       -2.303265   -1.370148    0.264857
     10          6           0       -3.192664   -0.382782   -0.140127
     11          6           0       -2.720142    0.892569   -0.402395
     12          6           0       -1.367900    1.184106   -0.262850
     13          1           0        1.181444    2.014928   -1.192931
     14          1           0        2.526307    1.978824   -0.046864
     15          1           0        0.974189    2.646890    0.453035
     16          1           0        0.784292    1.091806    2.410968
     17          1           0        1.122069   -0.636552    2.219158
     18          1           0        2.422554    0.534260    2.010116
     19          1           0        2.190992   -1.123889   -2.160395
     20          1           0       -0.270226   -1.853425    0.725102
     21          1           0       -2.659058   -2.371998    0.467975
     22          1           0       -4.244851   -0.609119   -0.252538
     23          1           0       -3.403114    1.669227   -0.721878
     24          1           0       -1.023002    2.185234   -0.481523
 ---------------------------------------------------------------------
 Rotational constants (GHZ):           1.6267624           0.6928536           0.6354023
 Standard basis: def2TZVP (5D, 7F)
 There are   504 symmetry adapted cartesian basis functions of A   symmetry.
 There are   444 symmetry adapted basis functions of A   symmetry.
   444 basis functions,   708 primitive gaussians,   504 cartesian basis functions
    44 alpha electrons       43 beta electrons
       nuclear repulsion energy       702.7708860726 Hartrees.
 NAtoms=   24 NActive=   24 NUniq=   24 SFac= 1.00D+00 NAtFMM=   60 NAOKFM=F Big=F
 Integral buffers will be    131072 words long.
 Raffenetti 2 integral format.
 Two-electron integral symmetry is turned on.
 One-electron integrals computed using PRISM.
   1 Symmetry operations used in ECPInt.
 ECPInt:  NShTT=   16290 NPrTT=   49128 LenC2=   15667 LenP2D=   36387.
 LDataN:  DoStor=T MaxTD1= 6 Len=  172
 NBasis=   444 RedAO= T EigKep=  7.60D-06  NBF=   444
 NBsUse=   444 1.00D-06 EigRej= -1.00D+00 NBFU=   444
 ExpMin= 9.52D-02 ExpMax= 2.70D+04 ExpMxC= 9.22D+02 IAcc=3 IRadAn=         5 AccDes= 0.00D+00
 Harris functional with IExCor= 1009 and IRadAn=       5 diagonalized for initial guess.
 HarFok:  IExCor= 1009 AccDes= 0.00D+00 IRadAn=         5 IDoV= 1 UseB2=F ITyADJ=14
 ICtDFT=  3500011 ScaDFX=  1.000000  1.000000  1.000000  1.000000
 FoFCou: FMM=F IPFlag=           0 FMFlag=      100000 FMFlg1=           0
         NFxFlg=           0 DoJE=T BraDBF=F KetDBF=T FulRan=T
         wScrn=  0.000000 ICntrl=       500 IOpCl=  0 I1Cent=   200000004 NGrid=           0
         NMat0=    1 NMatS0=      1 NMatT0=    0 NMatD0=    1 NMtDS0=    0 NMtDT0=    0
 Petite list used in FoFCou.
 Initial guess <Sx>= 0.0000 <Sy>= 0.0000 <Sz>= 0.5000 <S**2>= 0.7500 S= 0.5000
 Requested convergence on RMS density matrix=1.00D-08 within 128 cycles.
 Requested convergence on MAX density matrix=1.00D-06.
 Requested convergence on             energy=1.00D-06.
 No special actions if energy rises.
 Integral accuracy reduced to 1.0D-05 until final iterations.
 Initial convergence to 1.0D-05 achieved.  Increase integral accuracy.
 SCF Done:  E(UM062X) =  -538.406292156     A.U. after   24 cycles
            NFock= 24  Conv=0.73D-08     -V/T= 2.0044
 <Sx>= 0.0000 <Sy>= 0.0000 <Sz>= 0.5000 <S**2>= 0.7675 S= 0.5087
 <L.S>=  0.00000000000    
 Annihilation of the first spin contaminant:
 S**2 before annihilation     0.7675,   after     0.7501

 **********************************************************************

            Population analysis using the SCF Density.

 **********************************************************************

 Orbital symmetries:
 Alpha Orbitals:
       Occupied  (A) (A) (A) (A) (A) (A) (A) (A) (A) (A) (A) (A)
                 (A) (A) (A) (A) (A) (A) (A) (A) (A) (A) (A) (A)
                 (A) (A) (A) (A) (A) (A) (A) (A) (A) (A) (A) (A)
                 (A) (A) (A) (A) (A) (A) (A) (A)
       Virtual   (A) (A) (A) (A) (A) (A) (A) (A) (A) (A) (A) (A)
                 (A) (A) (A) (A) (A) (A) (A) (A) (A) (A) (A) (A)
                 (A) (A) (A) (A) (A) (A) (A) (A) (A) (A) (A) (A)
                 (A) (A) (A) (A) (A) (A) (A) (A) (A) (A) (A) (A)
                 (A) (A) (A) (A) (A) (A) (A) (A) (A) (A) (A) (A)
                 (A) (A) (A) (A) (A) (A) (A) (A) (A) (A) (A) (A)
                 (A) (A) (A) (A) (A) (A) (A) (A) (A) (A) (A) (A)
                 (A) (A) (A) (A) (A) (A) (A) (A) (A) (A) (A) (A)
                 (A) (A) (A) (A) (A) (A) (A) (A) (A) (A) (A) (A)
                 (A) (A) (A) (A) (A) (A) (A) (A) (A) (A) (A) (A)
                 (A) (A) (A) (A) (A) (A) (A) (A) (A) (A) (A) (A)
                 (A) (A) (A) (A) (A) (A) (A) (A) (A) (A) (A) (A)
                 (A) (A) (A) (A) (A) (A) (A) (A) (A) (A) (A) (A)
                 (A) (A) (A) (A) (A) (A) (A) (A) (A) (A) (A) (A)
                 (A) (A) (A) (A) (A) (A) (A) (A) (A) (A) (A) (A)
                 (A) (A) (A) (A) (A) (A) (A) (A) (A) (A) (A) (A)
                 (A) (A) (A) (A) (A) (A) (A) (A) (A) (A) (A) (A)
                 (A) (A) (A) (A) (A) (A) (A) (A) (A) (A) (A) (A)
                 (A) (A) (A) (A) (A) (A) (A) (A) (A) (A) (A) (A)
                 (A) (A) (A) (A) (A) (A) (A) (A) (A) (A) (A) (A)
                 (A) (A) (A) (A) (A) (A) (A) (A) (A) (A) (A) (A)
                 (A) (A) (A) (A) (A) (A) (A) (A) (A) (A) (A) (A)
                 (A) (A) (A) (A) (A) (A) (A) (A) (A) (A) (A) (A)
                 (A) (A) (A) (A) (A) (A) (A) (A) (A) (A) (A) (A)
                 (A) (A) (A) (A) (A) (A) (A) (A) (A) (A) (A) (A)
                 (A) (A) (A) (A) (A) (A) (A) (A) (A) (A) (A) (A)
                 (A) (A) (A) (A) (A) (A) (A) (A) (A) (A) (A) (A)
                 (A) (A) (A) (A) (A) (A) (A) (A) (A) (A) (A) (A)
                 (A) (A) (A) (A) (A) (A) (A) (A) (A) (A) (A) (A)
                 (A) (A) (A) (A) (A) (A) (A) (A) (A) (A) (A) (A)
                 (A) (A) (A) (A) (A) (A) (A) (A) (A) (A) (A) (A)
                 (A) (A) (A) (A) (A) (A) (A) (A) (A) (A) (A) (A)
                 (A) (A) (A) (A) (A) (A) (A) (A) (A) (A) (A) (A)
                 (A) (A) (A) (A)
 Beta  Orbitals:
       Occupied  (A) (A) (A) (A) (A) (A) (A) (A) (A) (A) (A) (A)
                 (A) (A) (A) (A) (A) (A) (A) (A) (A) (A) (A) (A)
                 (A) (A) (A) (A) (A) (A) (A) (A) (A) (A) (A) (A)
                 (A) (A) (A) (A) (A) (A) (A)
       Virtual   (A) (A) (A) (A) (A) (A) (A) (A) (A) (A) (A) (A)
                 (A) (A) (A) (A) (A) (A) (A) (A) (A) (A) (A) (A)
                 (A) (A) (A) (A) (A) (A) (A) (A) (A) (A) (A) (A)
                 (A) (A) (A) (A) (A) (A) (A) (A) (A) (A) (A) (A)
                 (A) (A) (A) (A) (A) (A) (A) (A) (A) (A) (A) (A)
                 (A) (A) (A) (A) (A) (A) (A) (A) (A) (A) (A) (A)
                 (A) (A) (A) (A) (A) (A) (A) (A) (A) (A) (A) (A)
                 (A) (A) (A) (A) (A) (A) (A) (A) (A) (A) (A) (A)
                 (A) (A) (A) (A) (A) (A) (A) (A) (A) (A) (A) (A)
                 (A) (A) (A) (A) (A) (A) (A) (A) (A) (A) (A) (A)
                 (A) (A) (A) (A) (A) (A) (A) (A) (A) (A) (A) (A)
                 (A) (A) (A) (A) (A) (A) (A) (A) (A) (A) (A) (A)
                 (A) (A) (A) (A) (A) (A) (A) (A) (A) (A) (A) (A)
                 (A) (A) (A) (A) (A) (A) (A) (A) (A) (A) (A) (A)
                 (A) (A) (A) (A) (A) (A) (A) (A) (A) (A) (A) (A)
                 (A) (A) (A) (A) (A) (A) (A) (A) (A) (A) (A) (A)
                 (A) (A) (A) (A) (A) (A) (A) (A) (A) (A) (A) (A)
                 (A) (A) (A) (A) (A) (A) (A) (A) (A) (A) (A) (A)
                 (A) (A) (A) (A) (A) (A) (A) (A) (A) (A) (A) (A)
                 (A) (A) (A) (A) (A) (A) (A) (A) (A) (A) (A) (A)
                 (A) (A) (A) (A) (A) (A) (A) (A) (A) (A) (A) (A)
                 (A) (A) (A) (A) (A) (A) (A) (A) (A) (A) (A) (A)
                 (A) (A) (A) (A) (A) (A) (A) (A) (A) (A) (A) (A)
                 (A) (A) (A) (A) (A) (A) (A) (A) (A) (A) (A) (A)
                 (A) (A) (A) (A) (A) (A) (A) (A) (A) (A) (A) (A)
                 (A) (A) (A) (A) (A) (A) (A) (A) (A) (A) (A) (A)
                 (A) (A) (A) (A) (A) (A) (A) (A) (A) (A) (A) (A)
                 (A) (A) (A) (A) (A) (A) (A) (A) (A) (A) (A) (A)
                 (A) (A) (A) (A) (A) (A) (A) (A) (A) (A) (A) (A)
                 (A) (A) (A) (A) (A) (A) (A) (A) (A) (A) (A) (A)
                 (A) (A) (A) (A) (A) (A) (A) (A) (A) (A) (A) (A)
                 (A) (A) (A) (A) (A) (A) (A) (A) (A) (A) (A) (A)
                 (A) (A) (A) (A) (A) (A) (A) (A) (A) (A) (A) (A)
                 (A) (A) (A) (A) (A)
 The electronic state is 2-A.
 Alpha  occ. eigenvalues --  -19.81537 -19.76826 -10.82597 -10.79365 -10.78166
 Alpha  occ. eigenvalues --  -10.75441 -10.75321 -10.75006 -10.74663 -10.74011
 Alpha  occ. eigenvalues --  -10.68067 -10.67849  -1.38595  -1.28939  -1.19185
 Alpha  occ. eigenvalues --   -1.11288  -1.05355  -1.04003  -0.94132  -0.91880
 Alpha  occ. eigenvalues --   -0.89807  -0.88406  -0.81987  -0.78846  -0.74897
 Alpha  occ. eigenvalues --   -0.73532  -0.72567  -0.71480  -0.69816  -0.68841
 Alpha  occ. eigenvalues --   -0.67083  -0.66250  -0.63831  -0.62874  -0.62375
 Alpha  occ. eigenvalues --   -0.61050  -0.60005  -0.58375  -0.57344  -0.55946
 Alpha  occ. eigenvalues --   -0.54316  -0.53338  -0.51407  -0.49949
 Alpha virt. eigenvalues --   -0.19682  -0.18074  -0.09818  -0.07522  -0.06078
 Alpha virt. eigenvalues --   -0.04589  -0.03790  -0.03160  -0.02146  -0.01587
 Alpha virt. eigenvalues --   -0.01537   0.00122   0.00273   0.01778   0.02387
 Alpha virt. eigenvalues --    0.03724   0.05177   0.05495   0.05928   0.06194
 Alpha virt. eigenvalues --    0.07092   0.07793   0.08146   0.08730   0.09746
 Alpha virt. eigenvalues --    0.10560   0.11650   0.12121   0.12606   0.13841
 Alpha virt. eigenvalues --    0.15190   0.15296   0.16242   0.16963   0.18216
 Alpha virt. eigenvalues --    0.19626   0.20381   0.20941   0.21190   0.21670
 Alpha virt. eigenvalues --    0.23217   0.23888   0.24984   0.26096   0.26549
 Alpha virt. eigenvalues --    0.26877   0.28665   0.28722   0.29138   0.29792
 Alpha virt. eigenvalues --    0.30415   0.30742   0.31771   0.32575   0.32837
 Alpha virt. eigenvalues --    0.34250   0.34488   0.35185   0.35355   0.36626
 Alpha virt. eigenvalues --    0.36927   0.37591   0.38104   0.38742   0.39518
 Alpha virt. eigenvalues --    0.41680   0.42560   0.43783   0.44374   0.45536
 Alpha virt. eigenvalues --    0.47647   0.48301   0.49571   0.50442   0.51934
 Alpha virt. eigenvalues --    0.52679   0.53048   0.54242   0.55916   0.56159
 Alpha virt. eigenvalues --    0.56561   0.57727   0.59410   0.60091   0.61853
 Alpha virt. eigenvalues --    0.63590   0.64967   0.66529   0.67038   0.67574
 Alpha virt. eigenvalues --    0.68872   0.71540   0.72906   0.73177   0.74086
 Alpha virt. eigenvalues --    0.75464   0.76747   0.78723   0.79991   0.80851
 Alpha virt. eigenvalues --    0.81354   0.84622   0.85810   0.86861   0.88721
 Alpha virt. eigenvalues --    0.91097   0.91895   0.92385   0.93361   0.94695
 Alpha virt. eigenvalues --    0.95798   0.96755   0.99061   0.99415   1.00333
 Alpha virt. eigenvalues --    1.02617   1.04675   1.05767   1.07791   1.07955
 Alpha virt. eigenvalues --    1.09438   1.10161   1.12034   1.12356   1.13470
 Alpha virt. eigenvalues --    1.14275   1.16985   1.18071   1.19744   1.22969
 Alpha virt. eigenvalues --    1.24772   1.25661   1.28080   1.28933   1.29872
 Alpha virt. eigenvalues --    1.32388   1.33074   1.35023   1.35654   1.37648
 Alpha virt. eigenvalues --    1.38557   1.39711   1.42351   1.43520   1.44514
 Alpha virt. eigenvalues --    1.45482   1.46288   1.47572   1.48427   1.49092
 Alpha virt. eigenvalues --    1.49471   1.50751   1.51789   1.52663   1.53370
 Alpha virt. eigenvalues --    1.53993   1.55035   1.55937   1.56447   1.57165
 Alpha virt. eigenvalues --    1.58892   1.60434   1.61718   1.65322   1.67351
 Alpha virt. eigenvalues --    1.69714   1.70361   1.73856   1.75570   1.76947
 Alpha virt. eigenvalues --    1.78395   1.79085   1.81208   1.81744   1.83630
 Alpha virt. eigenvalues --    1.85613   1.88619   1.89272   1.90392   1.93004
 Alpha virt. eigenvalues --    1.93448   1.95082   1.96997   1.97670   1.99287
 Alpha virt. eigenvalues --    2.00376   2.02124   2.03995   2.05078   2.06323
 Alpha virt. eigenvalues --    2.07021   2.08644   2.11131   2.14717   2.15120
 Alpha virt. eigenvalues --    2.17492   2.18748   2.19887   2.20763   2.21254
 Alpha virt. eigenvalues --    2.22958   2.24362   2.26370   2.28099   2.29073
 Alpha virt. eigenvalues --    2.29846   2.32282   2.32429   2.34750   2.35827
 Alpha virt. eigenvalues --    2.37059   2.39626   2.39978   2.41231   2.43815
 Alpha virt. eigenvalues --    2.44366   2.45277   2.45977   2.47362   2.48647
 Alpha virt. eigenvalues --    2.49361   2.49694   2.50200   2.50717   2.51785
 Alpha virt. eigenvalues --    2.52852   2.54539   2.55660   2.57435   2.58230
 Alpha virt. eigenvalues --    2.59793   2.61170   2.62463   2.62795   2.63865
 Alpha virt. eigenvalues --    2.64875   2.65815   2.66529   2.67596   2.69359
 Alpha virt. eigenvalues --    2.72213   2.72861   2.74442   2.75492   2.76232
 Alpha virt. eigenvalues --    2.80008   2.80971   2.83396   2.83891   2.85417
 Alpha virt. eigenvalues --    2.85932   2.87755   2.90118   2.91152   2.91855
 Alpha virt. eigenvalues --    2.93184   2.94897   2.95253   2.96312   2.98815
 Alpha virt. eigenvalues --    3.00045   3.00992   3.02423   3.03357   3.03855
 Alpha virt. eigenvalues --    3.05098   3.05488   3.06476   3.07999   3.08501
 Alpha virt. eigenvalues --    3.09547   3.11006   3.12445   3.13095   3.14388
 Alpha virt. eigenvalues --    3.14431   3.16295   3.17852   3.18622   3.19267
 Alpha virt. eigenvalues --    3.20394   3.21495   3.23761   3.24173   3.25150
 Alpha virt. eigenvalues --    3.27569   3.28121   3.28797   3.30083   3.30205
 Alpha virt. eigenvalues --    3.31596   3.32691   3.34343   3.35461   3.36307
 Alpha virt. eigenvalues --    3.38352   3.39721   3.41553   3.44623   3.45690
 Alpha virt. eigenvalues --    3.46285   3.49307   3.49930   3.52007   3.54410
 Alpha virt. eigenvalues --    3.55938   3.59171   3.62072   3.62881   3.67895
 Alpha virt. eigenvalues --    3.71912   3.73474   3.74511   3.76497   3.78298
 Alpha virt. eigenvalues --    3.84429   3.84586   3.86060   3.86441   3.87237
 Alpha virt. eigenvalues --    3.92049   3.92963   3.94133   3.95032   3.97770
 Alpha virt. eigenvalues --    3.98189   3.99824   4.00525   4.01600   4.01809
 Alpha virt. eigenvalues --    4.06886   4.07701   4.09223   4.11120   4.14571
 Alpha virt. eigenvalues --    4.18028   4.18335   4.19875   4.24064   4.25994
 Alpha virt. eigenvalues --    4.31133   4.33948   4.34509   4.35413   4.40600
 Alpha virt. eigenvalues --    4.41730   4.44975   4.47998   4.53599   4.55086
 Alpha virt. eigenvalues --    4.59409   4.63599   4.66558   4.71151   4.72434
 Alpha virt. eigenvalues --    4.75783   4.83707   4.87181   4.98365   4.98712
 Alpha virt. eigenvalues --    5.03177   5.07962   5.09453   5.10872   5.14923
 Alpha virt. eigenvalues --    5.23554   5.27980   5.28594   5.39664   5.40692
 Alpha virt. eigenvalues --    5.48846   5.62620   5.75180   5.77076   6.06842
 Alpha virt. eigenvalues --    6.10881   6.21683   6.24960   6.34179   6.36923
 Alpha virt. eigenvalues --    6.54870   6.57285   6.64252   6.71433   6.78223
 Alpha virt. eigenvalues --    6.96441   7.00268   7.17741  22.02487  22.41220
 Alpha virt. eigenvalues --   22.45199  22.47142  22.53953  22.69030  22.73122
 Alpha virt. eigenvalues --   22.77228  23.11327  23.30113  43.93905  43.96006
  Beta  occ. eigenvalues --  -19.81514 -19.76771 -10.82563 -10.79181 -10.77956
  Beta  occ. eigenvalues --  -10.75394 -10.75322 -10.74996 -10.74702 -10.74019
  Beta  occ. eigenvalues --  -10.68028 -10.67849  -1.38480  -1.28797  -1.18154
  Beta  occ. eigenvalues --   -1.10370  -1.05195  -1.02845  -0.93948  -0.91469
  Beta  occ. eigenvalues --   -0.89223  -0.87949  -0.81653  -0.78435  -0.74475
  Beta  occ. eigenvalues --   -0.73088  -0.72423  -0.71062  -0.69473  -0.68670
  Beta  occ. eigenvalues --   -0.66340  -0.64387  -0.63111  -0.62716  -0.61391
  Beta  occ. eigenvalues --   -0.60299  -0.59822  -0.57995  -0.56851  -0.55697
  Beta  occ. eigenvalues --   -0.54197  -0.51186  -0.49760
  Beta virt. eigenvalues --   -0.35894  -0.16491  -0.15602  -0.09537  -0.07427
  Beta virt. eigenvalues --   -0.05986  -0.04528  -0.03715  -0.03086  -0.01711
  Beta virt. eigenvalues --   -0.01537  -0.01080   0.00194   0.00600   0.01821
  Beta virt. eigenvalues --    0.02408   0.03811   0.05255   0.05593   0.05710
  Beta virt. eigenvalues --    0.06260   0.06910   0.07880   0.08309   0.08597
  Beta virt. eigenvalues --    0.09584   0.10776   0.11408   0.12030   0.12744
  Beta virt. eigenvalues --    0.13939   0.15246   0.15425   0.16335   0.16881
  Beta virt. eigenvalues --    0.18323   0.19445   0.20619   0.21104   0.21180
  Beta virt. eigenvalues --    0.21716   0.23386   0.24123   0.25215   0.26139
  Beta virt. eigenvalues --    0.26317   0.27003   0.28803   0.28900   0.29271
  Beta virt. eigenvalues --    0.29885   0.30572   0.30817   0.31816   0.32595
  Beta virt. eigenvalues --    0.32872   0.34479   0.34685   0.35385   0.35510
  Beta virt. eigenvalues --    0.36668   0.36996   0.37662   0.38347   0.38856
  Beta virt. eigenvalues --    0.39549   0.41766   0.42743   0.43873   0.44356
  Beta virt. eigenvalues --    0.45699   0.47815   0.48371   0.49685   0.50545
  Beta virt. eigenvalues --    0.52148   0.52808   0.53473   0.54424   0.55953
  Beta virt. eigenvalues --    0.56368   0.56735   0.58045   0.59400   0.60349
  Beta virt. eigenvalues --    0.61785   0.63177   0.65314   0.66832   0.67192
  Beta virt. eigenvalues --    0.67659   0.68981   0.71645   0.73153   0.73560
  Beta virt. eigenvalues --    0.74214   0.75552   0.76841   0.78764   0.80186
  Beta virt. eigenvalues --    0.81036   0.81423   0.84728   0.85965   0.86947
  Beta virt. eigenvalues --    0.88817   0.91212   0.92043   0.92526   0.93501
  Beta virt. eigenvalues --    0.94808   0.96039   0.96973   0.99149   0.99760
  Beta virt. eigenvalues --    1.00439   1.02790   1.04973   1.06179   1.08110
  Beta virt. eigenvalues --    1.08358   1.09695   1.10464   1.12283   1.12609
  Beta virt. eigenvalues --    1.13663   1.14687   1.17286   1.18349   1.19926
  Beta virt. eigenvalues --    1.23841   1.25332   1.26247   1.29364   1.29440
  Beta virt. eigenvalues --    1.30213   1.32632   1.33476   1.35506   1.35969
  Beta virt. eigenvalues --    1.37899   1.38806   1.40042   1.42516   1.43825
  Beta virt. eigenvalues --    1.45078   1.45643   1.46612   1.48230   1.48584
  Beta virt. eigenvalues --    1.49314   1.49764   1.51534   1.52112   1.53041
  Beta virt. eigenvalues --    1.53813   1.54593   1.55523   1.56187   1.56797
  Beta virt. eigenvalues --    1.57631   1.59306   1.60852   1.62127   1.65646
  Beta virt. eigenvalues --    1.67638   1.70094   1.71131   1.74361   1.75938
  Beta virt. eigenvalues --    1.77252   1.78641   1.79534   1.81592   1.82025
  Beta virt. eigenvalues --    1.84086   1.85897   1.88817   1.89931   1.90695
  Beta virt. eigenvalues --    1.93353   1.93995   1.95468   1.97459   1.97948
  Beta virt. eigenvalues --    2.00439   2.01131   2.02438   2.04568   2.05533
  Beta virt. eigenvalues --    2.06611   2.07783   2.09044   2.11590   2.15100
  Beta virt. eigenvalues --    2.15509   2.17681   2.19918   2.20249   2.20928
  Beta virt. eigenvalues --    2.21649   2.23182   2.24551   2.26555   2.28857
  Beta virt. eigenvalues --    2.29335   2.30236   2.32439   2.33068   2.35375
  Beta virt. eigenvalues --    2.36202   2.37308   2.39972   2.40469   2.41828
  Beta virt. eigenvalues --    2.44497   2.45472   2.46918   2.47127   2.48136
  Beta virt. eigenvalues --    2.49488   2.49948   2.50614   2.51405   2.51936
  Beta virt. eigenvalues --    2.52550   2.53318   2.55256   2.56401   2.58474
  Beta virt. eigenvalues --    2.59548   2.60506   2.62180   2.63271   2.63699
  Beta virt. eigenvalues --    2.65315   2.66106   2.66770   2.67392   2.68419
  Beta virt. eigenvalues --    2.69731   2.72716   2.73613   2.74927   2.76124
  Beta virt. eigenvalues --    2.76847   2.80310   2.81970   2.83843   2.84971
  Beta virt. eigenvalues --    2.85934   2.86794   2.88120   2.90466   2.91761
  Beta virt. eigenvalues --    2.92146   2.93600   2.95421   2.95841   2.97021
  Beta virt. eigenvalues --    2.99436   3.00841   3.01460   3.02860   3.03949
  Beta virt. eigenvalues --    3.04700   3.05705   3.06669   3.07216   3.08724
  Beta virt. eigenvalues --    3.09370   3.10251   3.11618   3.13127   3.13646
  Beta virt. eigenvalues --    3.14974   3.15224   3.17034   3.18690   3.19529
  Beta virt. eigenvalues --    3.19879   3.21003   3.22030   3.24115   3.25030
  Beta virt. eigenvalues --    3.25874   3.28369   3.29073   3.29881   3.30565
  Beta virt. eigenvalues --    3.30976   3.32340   3.33627   3.35419   3.35901
  Beta virt. eigenvalues --    3.36771   3.39338   3.40074   3.42394   3.45172
  Beta virt. eigenvalues --    3.46310   3.47270   3.50318   3.51101   3.52519
  Beta virt. eigenvalues --    3.54978   3.56321   3.60285   3.63113   3.63451
  Beta virt. eigenvalues --    3.68160   3.73028   3.74660   3.75221   3.76901
  Beta virt. eigenvalues --    3.79039   3.85092   3.85547   3.86597   3.87819
  Beta virt. eigenvalues --    3.88143   3.93088   3.94161   3.96255   3.97059
  Beta virt. eigenvalues --    3.99401   3.99607   4.00844   4.02049   4.02325
  Beta virt. eigenvalues --    4.03136   4.07504   4.09109   4.10870   4.12544
  Beta virt. eigenvalues --    4.15173   4.18966   4.19874   4.21313   4.24294
  Beta virt. eigenvalues --    4.26516   4.31457   4.34776   4.35069   4.36453
  Beta virt. eigenvalues --    4.42050   4.44081   4.47564   4.49440   4.54545
  Beta virt. eigenvalues --    4.56031   4.61487   4.67071   4.67958   4.71595
  Beta virt. eigenvalues --    4.72338   4.77003   4.85523   4.89802   5.00693
  Beta virt. eigenvalues --    5.00866   5.03293   5.08134   5.09727   5.14394
  Beta virt. eigenvalues --    5.18147   5.25556   5.28119   5.29696   5.39700
  Beta virt. eigenvalues --    5.42266   5.48833   5.62612   5.75144   5.77086
  Beta virt. eigenvalues --    6.06846   6.10910   6.21781   6.24985   6.34283
  Beta virt. eigenvalues --    6.37056   6.54973   6.57363   6.64241   6.71444
  Beta virt. eigenvalues --    6.78297   6.96456   7.00312   7.17733  22.02799
  Beta virt. eigenvalues --   22.41251  22.45238  22.47702  22.54109  22.69454
  Beta virt. eigenvalues --   22.73625  22.77316  23.12242  23.30245  43.93899
  Beta virt. eigenvalues --   43.96003
          Condensed to atoms (all electrons):
               1          2          3          4          5          6
     1  C    5.324717   0.250183  -0.094254  -0.070164   0.001655  -0.008523
     2  C    0.250183   5.722002   0.275151   0.121023  -0.056376  -0.092032
     3  C   -0.094254   0.275151   5.145769  -0.097397   0.007323   0.005371
     4  C   -0.070164   0.121023  -0.097397   4.797156   0.632509   0.367960
     5  O    0.001655  -0.056376   0.007323   0.632509   7.756096  -0.083668
     6  O   -0.008523  -0.092032   0.005371   0.367960  -0.083668   7.899606
     7  C   -0.108819   0.010402  -0.061186   0.019378  -0.022359  -0.011643
     8  C    0.023573   0.008377  -0.001434  -0.051853   0.001502   0.009952
     9  C   -0.000208   0.013180   0.001385   0.001953   0.001429  -0.003132
    10  C    0.000173  -0.002569   0.000296  -0.001690  -0.000072   0.000804
    11  C    0.000970   0.008225  -0.001629   0.000531   0.000074  -0.001340
    12  C   -0.021389  -0.028866  -0.003266   0.002097  -0.001839   0.004192
    13  H    0.419452  -0.032527   0.011729  -0.019777   0.000203   0.003138
    14  H    0.411612  -0.035018  -0.009528  -0.006913   0.000617   0.000092
    15  H    0.405508  -0.017246  -0.016755   0.014496  -0.000330   0.000419
    16  H   -0.014615  -0.053432   0.420913   0.020047   0.000584  -0.000114
    17  H    0.009560   0.033411   0.393812  -0.028701   0.001970   0.000093
    18  H   -0.007936  -0.025640   0.408780  -0.012889   0.001072   0.000012
    19  H   -0.000594   0.009070  -0.000807  -0.018856   0.004074   0.301149
    20  H    0.000829   0.015510  -0.004928  -0.003309   0.008341   0.000139
    21  H   -0.000007  -0.000081  -0.000045   0.000117  -0.000001  -0.000020
    22  H   -0.000005  -0.000002   0.000002  -0.000010  -0.000000   0.000002
    23  H    0.000140  -0.000185  -0.000009   0.000002  -0.000000  -0.000009
    24  H   -0.003926  -0.008697  -0.000340   0.000185  -0.000024   0.000156
               7          8          9         10         11         12
     1  C   -0.108819   0.023573  -0.000208   0.000173   0.000970  -0.021389
     2  C    0.010402   0.008377   0.013180  -0.002569   0.008225  -0.028866
     3  C   -0.061186  -0.001434   0.001385   0.000296  -0.001629  -0.003266
     4  C    0.019378  -0.051853   0.001953  -0.001690   0.000531   0.002097
     5  O   -0.022359   0.001502   0.001429  -0.000072   0.000074  -0.001839
     6  O   -0.011643   0.009952  -0.003132   0.000804  -0.001340   0.004192
     7  C    5.571919   0.300102  -0.048892  -0.045495  -0.029963   0.332845
     8  C    0.300102   5.103630   0.500537  -0.009723  -0.041792  -0.082603
     9  C   -0.048892   0.500537   4.934717   0.418851  -0.030002  -0.047781
    10  C   -0.045495  -0.009723   0.418851   4.886594   0.417579  -0.015574
    11  C   -0.029963  -0.041792  -0.030002   0.417579   4.879287   0.524681
    12  C    0.332845  -0.082603  -0.047781  -0.015574   0.524681   5.069091
    13  H    0.006866   0.000090  -0.000091   0.000001  -0.000624  -0.008695
    14  H    0.018181  -0.000483   0.000025  -0.000005   0.000003  -0.000377
    15  H   -0.023066  -0.002273   0.000058  -0.000056   0.000901   0.006214
    16  H    0.007683  -0.011284  -0.000042  -0.000219   0.000091   0.001282
    17  H   -0.051540   0.016730   0.001512   0.000187  -0.000055   0.001290
    18  H    0.016448   0.000302  -0.000038   0.000004   0.000021  -0.000550
    19  H    0.001377  -0.001042  -0.000032  -0.000008  -0.000013   0.000403
    20  H   -0.044320   0.391089  -0.006565   0.002747  -0.000784   0.002288
    21  H    0.005869  -0.017431   0.403216  -0.028152   0.002842  -0.000291
    22  H   -0.000204   0.003692  -0.026695   0.409109  -0.027756   0.003310
    23  H    0.005773  -0.000579   0.003070  -0.028149   0.401889  -0.016974
    24  H   -0.020548   0.002114  -0.000424   0.002116  -0.011152   0.399302
              13         14         15         16         17         18
     1  C    0.419452   0.411612   0.405508  -0.014615   0.009560  -0.007936
     2  C   -0.032527  -0.035018  -0.017246  -0.053432   0.033411  -0.025640
     3  C    0.011729  -0.009528  -0.016755   0.420913   0.393812   0.408780
     4  C   -0.019777  -0.006913   0.014496   0.020047  -0.028701  -0.012889
     5  O    0.000203   0.000617  -0.000330   0.000584   0.001970   0.001072
     6  O    0.003138   0.000092   0.000419  -0.000114   0.000093   0.000012
     7  C    0.006866   0.018181  -0.023066   0.007683  -0.051540   0.016448
     8  C    0.000090  -0.000483  -0.002273  -0.011284   0.016730   0.000302
     9  C   -0.000091   0.000025   0.000058  -0.000042   0.001512  -0.000038
    10  C    0.000001  -0.000005  -0.000056  -0.000219   0.000187   0.000004
    11  C   -0.000624   0.000003   0.000901   0.000091  -0.000055   0.000021
    12  C   -0.008695  -0.000377   0.006214   0.001282   0.001290  -0.000550
    13  H    0.458727  -0.010497  -0.028867  -0.000169  -0.000257   0.000028
    14  H   -0.010497   0.441143  -0.013291   0.000229  -0.000022   0.002158
    15  H   -0.028867  -0.013291   0.489325   0.001958  -0.000009  -0.000367
    16  H   -0.000169   0.000229   0.001958   0.486656  -0.021571  -0.017786
    17  H   -0.000257  -0.000022  -0.000009  -0.021571   0.474810  -0.012610
    18  H    0.000028   0.002158  -0.000367  -0.017786  -0.012610   0.448371
    19  H   -0.000293  -0.000161   0.000073   0.000025  -0.000029  -0.000033
    20  H   -0.000023  -0.000010  -0.000040  -0.000024  -0.000306  -0.000002
    21  H   -0.000000   0.000000   0.000000   0.000010  -0.000028  -0.000001
    22  H    0.000001   0.000000   0.000000  -0.000001  -0.000000   0.000000
    23  H    0.000012  -0.000000   0.000007   0.000004  -0.000002  -0.000000
    24  H   -0.004308   0.000560  -0.002576   0.000268  -0.000009  -0.000030
              19         20         21         22         23         24
     1  C   -0.000594   0.000829  -0.000007  -0.000005   0.000140  -0.003926
     2  C    0.009070   0.015510  -0.000081  -0.000002  -0.000185  -0.008697
     3  C   -0.000807  -0.004928  -0.000045   0.000002  -0.000009  -0.000340
     4  C   -0.018856  -0.003309   0.000117  -0.000010   0.000002   0.000185
     5  O    0.004074   0.008341  -0.000001  -0.000000  -0.000000  -0.000024
     6  O    0.301149   0.000139  -0.000020   0.000002  -0.000009   0.000156
     7  C    0.001377  -0.044320   0.005869  -0.000204   0.005773  -0.020548
     8  C   -0.001042   0.391089  -0.017431   0.003692  -0.000579   0.002114
     9  C   -0.000032  -0.006565   0.403216  -0.026695   0.003070  -0.000424
    10  C   -0.000008   0.002747  -0.028152   0.409109  -0.028149   0.002116
    11  C   -0.000013  -0.000784   0.002842  -0.027756   0.401889  -0.011152
    12  C    0.000403   0.002288  -0.000291   0.003310  -0.016974   0.399302
    13  H   -0.000293  -0.000023  -0.000000   0.000001   0.000012  -0.004308
    14  H   -0.000161  -0.000010   0.000000   0.000000  -0.000000   0.000560
    15  H    0.000073  -0.000040   0.000000   0.000000   0.000007  -0.002576
    16  H    0.000025  -0.000024   0.000010  -0.000001   0.000004   0.000268
    17  H   -0.000029  -0.000306  -0.000028  -0.000000  -0.000002  -0.000009
    18  H   -0.000033  -0.000002  -0.000001   0.000000  -0.000000  -0.000030
    19  H    0.340946  -0.000141   0.000002  -0.000000   0.000000   0.000012
    20  H   -0.000141   0.397112  -0.002024  -0.000082   0.000017  -0.000025
    21  H    0.000002  -0.002024   0.429498  -0.002077  -0.000084   0.000027
    22  H   -0.000000  -0.000082  -0.002077   0.422913  -0.002011  -0.000092
    23  H    0.000000   0.000017  -0.000084  -0.002011   0.431410  -0.002048
    24  H    0.000012  -0.000025   0.000027  -0.000092  -0.002048   0.425008
          Atomic-Atomic Spin Densities.
               1          2          3          4          5          6
     1  C   -0.001616   0.004489  -0.000669  -0.000924  -0.000148  -0.001186
     2  C    0.004489  -0.021163   0.012158   0.010510  -0.000170   0.004837
     3  C   -0.000669   0.012158   0.046668  -0.010055   0.002455   0.000533
     4  C   -0.000924   0.010510  -0.010055   0.026093  -0.006807  -0.002117
     5  O   -0.000148  -0.000170   0.002455  -0.006807   0.028892   0.000064
     6  O   -0.001186   0.004837   0.000533  -0.002117   0.000064   0.008415
     7  C   -0.000512  -0.022118  -0.016632  -0.006813   0.000476  -0.002317
     8  C   -0.000694   0.000446  -0.002853  -0.000145  -0.000499  -0.000531
     9  C    0.000107   0.000716   0.000261  -0.000084  -0.000006  -0.000041
    10  C   -0.000070  -0.000248   0.000163   0.000098  -0.000000   0.000043
    11  C    0.000270   0.000347  -0.000018  -0.000011   0.000000  -0.000016
    12  C   -0.000718   0.003117  -0.001302   0.000479   0.000001   0.000533
    13  H   -0.001069   0.001432   0.000591  -0.000808   0.000019  -0.000091
    14  H   -0.000530   0.000365   0.000257  -0.000097   0.000011   0.000055
    15  H    0.000610  -0.000292  -0.001927   0.000424  -0.000017  -0.000002
    16  H   -0.000243   0.003275  -0.001887  -0.000254  -0.000013   0.000002
    17  H    0.000002   0.000343  -0.000301  -0.000189   0.000172   0.000009
    18  H   -0.000449   0.000494  -0.000445   0.000476  -0.000852  -0.000077
    19  H    0.000132  -0.000421  -0.000137   0.000610   0.000358  -0.000311
    20  H   -0.000039  -0.000629   0.000122   0.000083  -0.000029  -0.000039
    21  H    0.000001   0.000017   0.000002  -0.000003   0.000000   0.000000
    22  H   -0.000000   0.000000  -0.000000   0.000000   0.000000   0.000000
    23  H    0.000007   0.000002   0.000000  -0.000000   0.000000  -0.000000
    24  H   -0.000027   0.000360  -0.000006   0.000073  -0.000000   0.000034
               7          8          9         10         11         12
     1  C   -0.000512  -0.000694   0.000107  -0.000070   0.000270  -0.000718
     2  C   -0.022118   0.000446   0.000716  -0.000248   0.000347   0.003117
     3  C   -0.016632  -0.002853   0.000261   0.000163  -0.000018  -0.001302
     4  C   -0.006813  -0.000145  -0.000084   0.000098  -0.000011   0.000479
     5  O    0.000476  -0.000499  -0.000006  -0.000000   0.000000   0.000001
     6  O   -0.002317  -0.000531  -0.000041   0.000043  -0.000016   0.000533
     7  C    0.406588   0.057648  -0.005633  -0.017215  -0.005635   0.053580
     8  C    0.057648   0.047563  -0.022289  -0.007927  -0.002755   0.014660
     9  C   -0.005633  -0.022289  -0.070737   0.038341  -0.003508  -0.000835
    10  C   -0.017215  -0.007927   0.038341   0.406285   0.053074  -0.006974
    11  C   -0.005635  -0.002755  -0.003508   0.053074  -0.002859  -0.029525
    12  C    0.053580   0.014660  -0.000835  -0.006974  -0.029525  -0.012922
    13  H    0.000319   0.000055  -0.000001  -0.000011  -0.000015  -0.000045
    14  H   -0.000072  -0.000018  -0.000000  -0.000000  -0.000001   0.000035
    15  H    0.001385   0.000175  -0.000008  -0.000004  -0.000009  -0.000007
    16  H   -0.001452   0.000399  -0.000063   0.000025  -0.000037   0.000250
    17  H    0.000383  -0.001016   0.000046  -0.000006   0.000014   0.000043
    18  H    0.001058   0.000115  -0.000004  -0.000002  -0.000003   0.000058
    19  H   -0.000492  -0.000052   0.000016   0.000009   0.000005  -0.000062
    20  H    0.001673  -0.002987   0.000275   0.000233  -0.000136   0.000370
    21  H    0.000182  -0.001171   0.001207  -0.001006   0.000026  -0.000073
    22  H    0.000260  -0.000457   0.003523  -0.007026   0.003702  -0.000316
    23  H    0.000194  -0.000044  -0.000005  -0.000496   0.001214  -0.001332
    24  H    0.000967   0.000315  -0.000149   0.000236  -0.000025  -0.002715
              13         14         15         16         17         18
     1  C   -0.001069  -0.000530   0.000610  -0.000243   0.000002  -0.000449
     2  C    0.001432   0.000365  -0.000292   0.003275   0.000343   0.000494
     3  C    0.000591   0.000257  -0.001927  -0.001887  -0.000301  -0.000445
     4  C   -0.000808  -0.000097   0.000424  -0.000254  -0.000189   0.000476
     5  O    0.000019   0.000011  -0.000017  -0.000013   0.000172  -0.000852
     6  O   -0.000091   0.000055  -0.000002   0.000002   0.000009  -0.000077
     7  C    0.000319  -0.000072   0.001385  -0.001452   0.000383   0.001058
     8  C    0.000055  -0.000018   0.000175   0.000399  -0.001016   0.000115
     9  C   -0.000001  -0.000000  -0.000008  -0.000063   0.000046  -0.000004
    10  C   -0.000011  -0.000000  -0.000004   0.000025  -0.000006  -0.000002
    11  C   -0.000015  -0.000001  -0.000009  -0.000037   0.000014  -0.000003
    12  C   -0.000045   0.000035  -0.000007   0.000250   0.000043   0.000058
    13  H   -0.000644   0.000278  -0.000348  -0.000004   0.000003  -0.000028
    14  H    0.000278  -0.000352  -0.000067   0.000006   0.000005  -0.000183
    15  H   -0.000348  -0.000067   0.000523   0.000010  -0.000007   0.000235
    16  H   -0.000004   0.000006   0.000010  -0.002269   0.000074   0.000062
    17  H    0.000003   0.000005  -0.000007   0.000074  -0.000836  -0.000199
    18  H   -0.000028  -0.000183   0.000235   0.000062  -0.000199   0.007479
    19  H   -0.000043  -0.000008   0.000005  -0.000000  -0.000003   0.000014
    20  H    0.000001   0.000000   0.000002   0.000026  -0.000031  -0.000010
    21  H    0.000000  -0.000000  -0.000000  -0.000000   0.000002   0.000000
    22  H   -0.000000   0.000000   0.000000   0.000000  -0.000000   0.000000
    23  H   -0.000000  -0.000000  -0.000000  -0.000000   0.000000  -0.000000
    24  H   -0.000014  -0.000002  -0.000025   0.000025  -0.000001   0.000001
              19         20         21         22         23         24
     1  C    0.000132  -0.000039   0.000001  -0.000000   0.000007  -0.000027
     2  C   -0.000421  -0.000629   0.000017   0.000000   0.000002   0.000360
     3  C   -0.000137   0.000122   0.000002  -0.000000   0.000000  -0.000006
     4  C    0.000610   0.000083  -0.000003   0.000000  -0.000000   0.000073
     5  O    0.000358  -0.000029   0.000000   0.000000   0.000000  -0.000000
     6  O   -0.000311  -0.000039   0.000000   0.000000  -0.000000   0.000034
     7  C   -0.000492   0.001673   0.000182   0.000260   0.000194   0.000967
     8  C   -0.000052  -0.002987  -0.001171  -0.000457  -0.000044   0.000315
     9  C    0.000016   0.000275   0.001207   0.003523  -0.000005  -0.000149
    10  C    0.000009   0.000233  -0.001006  -0.007026  -0.000496   0.000236
    11  C    0.000005  -0.000136   0.000026   0.003702   0.001214  -0.000025
    12  C   -0.000062   0.000370  -0.000073  -0.000316  -0.001332  -0.002715
    13  H   -0.000043   0.000001   0.000000  -0.000000  -0.000000  -0.000014
    14  H   -0.000008   0.000000  -0.000000   0.000000  -0.000000  -0.000002
    15  H    0.000005   0.000002  -0.000000   0.000000  -0.000000  -0.000025
    16  H   -0.000000   0.000026  -0.000000   0.000000  -0.000000   0.000025
    17  H   -0.000003  -0.000031   0.000002  -0.000000   0.000000  -0.000001
    18  H    0.000014  -0.000010   0.000000   0.000000  -0.000000   0.000001
    19  H    0.000695   0.000002  -0.000000   0.000000  -0.000000   0.000000
    20  H    0.000002  -0.005635   0.000104  -0.000006  -0.000000  -0.000001
    21  H   -0.000000   0.000104   0.000459  -0.000046  -0.000000  -0.000001
    22  H    0.000000  -0.000006  -0.000046  -0.007609  -0.000128  -0.000006
    23  H   -0.000000  -0.000000  -0.000000  -0.000128  -0.000720   0.000125
    24  H    0.000000  -0.000001  -0.000001  -0.000006   0.000125  -0.003952
 Mulliken charges and spin densities:
               1          2
     1  C   -0.517931  -0.003277
     2  C   -0.113864  -0.002133
     3  C   -0.378954   0.026979
     4  C    0.334107   0.010539
     5  O   -0.252780   0.023907
     6  O   -0.392604   0.007797
     7  C    0.171192   0.445821
     8  C   -0.141195   0.077938
     9  C   -0.116032  -0.058870
    10  C   -0.006746   0.457523
    11  C   -0.091982   0.014100
    12  C   -0.118788   0.016299
    13  H    0.205882  -0.000422
    14  H    0.201688  -0.000318
    15  H    0.185918   0.000656
    16  H    0.179507  -0.002069
    17  H    0.181766  -0.001494
    18  H    0.200687   0.007739
    19  H    0.364878   0.000316
    20  H    0.244512  -0.006649
    21  H    0.208659  -0.000300
    22  H    0.219907  -0.008110
    23  H    0.207724  -0.001183
    24  H    0.224450  -0.004788
 Sum of Mulliken charges =   1.00000   1.00000
 Mulliken charges and spin densities with hydrogens summed into heavy atoms:
               1          2
     1  C    0.075557  -0.003362
     2  C   -0.113864  -0.002133
     3  C    0.183006   0.031156
     4  C    0.334107   0.010539
     5  O   -0.252780   0.023907
     6  O   -0.027726   0.008113
     7  C    0.171192   0.445821
     8  C    0.103318   0.071288
     9  C    0.092627  -0.059170
    10  C    0.213161   0.449413
    11  C    0.115741   0.012917
    12  C    0.105662   0.011511
 Electronic spatial extent (au):  <R**2>=           1964.0816
 Charge=              1.0000 electrons
 Dipole moment (field-independent basis, Debye):
    X=             -6.3027    Y=              1.0024    Z=             -0.4242  Tot=              6.3960
 Quadrupole moment (field-independent basis, Debye-Ang):
   XX=            -37.3152   YY=            -57.7033   ZZ=            -63.5872
   XY=              5.3066   XZ=             -0.7677   YZ=              1.5189
 Traceless Quadrupole moment (field-independent basis, Debye-Ang):
   XX=             15.5534   YY=             -4.8348   ZZ=            -10.7187
   XY=              5.3066   XZ=             -0.7677   YZ=              1.5189
 Octapole moment (field-independent basis, Debye-Ang**2):
  XXX=            -78.9894  YYY=             -1.6551  ZZZ=            -10.4686  XYY=            -14.5024
  XXY=              1.1251  XXZ=            -20.3351  XZZ=             20.9186  YZZ=             -8.9969
  YYZ=             -6.5278  XYZ=             15.8578
 Hexadecapole moment (field-independent basis, Debye-Ang**3):
 XXXX=          -1176.4159 YYYY=           -523.5349 ZZZZ=           -352.6702 XXXY=             38.2480
 XXXZ=             -0.5697 YYYX=              9.9645 YYYZ=             -5.5226 ZZZX=            -29.4720
 ZZZY=             26.0795 XXYY=           -312.9375 XXZZ=           -294.7875 YYZZ=           -143.2256
 XXYZ=             11.8949 YYXZ=            -14.7982 ZZXY=            -25.9537
 N-N= 7.027708860726D+02 E-N=-2.645106211943D+03  KE= 5.360370381562D+02
                          Isotropic Fermi Contact Couplings
        Atom                 a.u.       MegaHertz       Gauss      10(-4) cm-1
     1  C(13)             -0.00051      -0.56932      -0.20315      -0.18991
     2  C(13)             -0.01209     -13.59607      -4.85141      -4.53516
     3  C(13)              0.01913      21.50595       7.67386       7.17361
     4  C(13)              0.02444      27.47367       9.80329       9.16423
     5  O(17)              0.00320      -1.94169      -0.69284      -0.64768
     6  O(17)              0.00010      -0.05983      -0.02135      -0.01996
     7  C(13)              0.05312      59.71463      21.30767      19.91866
     8  C(13)              0.00079       0.89122       0.31801       0.29728
     9  C(13)             -0.01893     -21.27816      -7.59258      -7.09763
    10  C(13)              0.06022      67.69494      24.15524      22.58060
    11  C(13)             -0.01064     -11.96162      -4.26821      -3.98997
    12  C(13)             -0.00807      -9.07307      -3.23750      -3.02645
    13  H(1)              -0.00015      -0.65377      -0.23328      -0.21807
    14  H(1)              -0.00016      -0.70162      -0.25036      -0.23403
    15  H(1)               0.00029       1.27654       0.45550       0.42581
    16  H(1)              -0.00057      -2.52668      -0.90158      -0.84281
    17  H(1)              -0.00035      -1.56037      -0.55678      -0.52048
    18  H(1)               0.00413      18.45332       6.58460       6.15536
    19  H(1)              -0.00002      -0.10769      -0.03843      -0.03592
    20  H(1)              -0.00260     -11.64160      -4.15401      -3.88322
    21  H(1)              -0.00026      -1.15736      -0.41297      -0.38605
    22  H(1)              -0.00743     -33.20106     -11.84697     -11.07468
    23  H(1)              -0.00124      -5.56197      -1.98465      -1.85527
    24  H(1)              -0.00161      -7.19886      -2.56873      -2.40128
 --------------------------------------------------------
       Center         ----  Spin Dipole Couplings  ----
                      3XX-RR        3YY-RR        3ZZ-RR
 --------------------------------------------------------
     1   Atom        0.002726      0.001379     -0.004105
     2   Atom       -0.018732     -0.012712      0.031445
     3   Atom        0.000263     -0.026203      0.025939
     4   Atom        0.004515      0.005056     -0.009571
     5   Atom       -0.055846     -0.000574      0.056419
     6   Atom        0.011267     -0.030696      0.019429
     7   Atom       -0.199444     -0.176167      0.375611
     8   Atom       -0.066580     -0.045090      0.111669
     9   Atom        0.008325      0.011480     -0.019805
    10   Atom       -0.216687     -0.193398      0.410085
    11   Atom       -0.026975     -0.011882      0.038857
    12   Atom       -0.032727     -0.020642      0.053369
    13   Atom        0.000898      0.001111     -0.002009
    14   Atom        0.001736      0.000052     -0.001788
    15   Atom       -0.000069      0.003043     -0.002975
    16   Atom       -0.000625     -0.002924      0.003548
    17   Atom       -0.000454     -0.001151      0.001605
    18   Atom        0.005994     -0.004082     -0.001912
    19   Atom        0.000847     -0.001012      0.000165
    20   Atom       -0.006858      0.011337     -0.004479
    21   Atom       -0.003448      0.007819     -0.004371
    22   Atom        0.034034     -0.026057     -0.007977
    23   Atom       -0.006076      0.010393     -0.004316
    24   Atom       -0.008203      0.012665     -0.004462
 --------------------------------------------------------
                        XY            XZ            YZ
 --------------------------------------------------------
     1   Atom        0.004610     -0.000340     -0.001200
     2   Atom       -0.001799     -0.011391      0.021124
     3   Atom        0.001175      0.036952      0.001684
     4   Atom       -0.022207     -0.013091      0.014993
     5   Atom       -0.013639     -0.005592      0.084811
     6   Atom        0.002325      0.039098      0.010983
     7   Atom       -0.027538     -0.106106      0.160871
     8   Atom       -0.006868     -0.027807      0.042213
     9   Atom       -0.002761      0.007156     -0.010099
    10   Atom       -0.026307     -0.106638      0.174139
    11   Atom       -0.001023     -0.009493      0.014499
    12   Atom       -0.008147     -0.010708      0.017056
    13   Atom        0.003917     -0.002292     -0.002506
    14   Atom        0.002681     -0.000452     -0.000382
    15   Atom        0.004027      0.000476      0.000277
    16   Atom        0.000233      0.003042      0.005276
    17   Atom       -0.000853      0.004435     -0.004522
    18   Atom        0.001639      0.001830      0.000522
    19   Atom       -0.002509     -0.002214      0.001945
    20   Atom       -0.010324      0.002263     -0.006099
    21   Atom       -0.002713      0.001091     -0.003926
    22   Atom        0.014272      0.002920      0.007585
    23   Atom       -0.005725      0.001469     -0.005145
    24   Atom       -0.000997      0.000028     -0.004984
 --------------------------------------------------------


 ---------------------------------------------------------------------------------
              Anisotropic Spin Dipole Couplings in Principal Axis System
 ---------------------------------------------------------------------------------

       Atom             a.u.   MegaHertz   Gauss  10(-4) cm-1        Axes

              Baa    -0.0045    -0.598    -0.213    -0.199 -0.1604  0.3188  0.9342
     1 C(13)  Bbb    -0.0024    -0.316    -0.113    -0.105 -0.6435  0.6839 -0.3439
              Bcc     0.0068     0.914     0.326     0.305  0.7485  0.6562 -0.0955
 
              Baa    -0.0235    -3.159    -1.127    -1.054  0.6697 -0.6361  0.3831
     2 C(13)  Bbb    -0.0185    -2.478    -0.884    -0.827  0.7199  0.6828 -0.1247
              Bcc     0.0420     5.637     2.011     1.880 -0.1823  0.3593  0.9152
 
              Baa    -0.0263    -3.524    -1.257    -1.175  0.0490  0.9966 -0.0668
     3 C(13)  Bbb    -0.0260    -3.491    -1.246    -1.164  0.8136 -0.0786 -0.5761
              Bcc     0.0523     7.015     2.503     2.340  0.5794  0.0262  0.8146
 
              Baa    -0.0191    -2.557    -0.913    -0.853 -0.1737 -0.6304  0.7566
     4 C(13)  Bbb    -0.0167    -2.235    -0.798    -0.746  0.7511  0.4120  0.5158
              Bcc     0.0357     4.792     1.710     1.599 -0.6369  0.6579  0.4019
 
              Baa    -0.0673     4.870     1.738     1.624  0.5925  0.6767 -0.4371
     5 O(17)  Bbb    -0.0510     3.690     1.317     1.231  0.8024 -0.4474  0.3950
              Bcc     0.1183    -8.560    -3.054    -2.855 -0.0717  0.5848  0.8080
 
              Baa    -0.0347     2.511     0.896     0.838  0.2790  0.8817 -0.3804
     6 O(17)  Bbb    -0.0211     1.524     0.544     0.508  0.6982 -0.4583 -0.5500
              Bcc     0.0558    -4.034    -1.440    -1.346  0.6593  0.1122  0.7435
 
              Baa    -0.2202   -29.555   -10.546    -9.858 -0.4786  0.8225 -0.3073
     7 C(13)  Bbb    -0.2177   -29.212   -10.424    -9.744  0.8615  0.5075  0.0165
              Bcc     0.4379    58.767    20.970    19.603 -0.1695  0.2568  0.9515
 
              Baa    -0.0708    -9.504    -3.391    -3.170  0.9891  0.0270  0.1445
     8 C(13)  Bbb    -0.0557    -7.479    -2.669    -2.495  0.0090  0.9700 -0.2431
              Bcc     0.1266    16.983     6.060     5.665 -0.1467  0.2418  0.9592
 
              Baa    -0.0239    -3.214    -1.147    -1.072 -0.1884  0.2556  0.9482
     9 C(13)  Bbb     0.0067     0.905     0.323     0.302  0.8423  0.5386  0.0221
              Bcc     0.0172     2.308     0.824     0.770 -0.5051  0.8029 -0.3168
 
              Baa    -0.2407   -32.306   -11.527   -10.776 -0.3062  0.9059 -0.2926
    10 C(13)  Bbb    -0.2334   -31.325   -11.178   -10.449  0.9389  0.3381  0.0641
              Bcc     0.4742    63.631    22.705    21.225 -0.1570  0.2551  0.9541
 
              Baa    -0.0284    -3.810    -1.360    -1.271  0.9850 -0.0753  0.1553
    11 C(13)  Bbb    -0.0156    -2.089    -0.746    -0.697  0.1113  0.9650 -0.2377
              Bcc     0.0440     5.900     2.105     1.968 -0.1319  0.2514  0.9589
 
              Baa    -0.0369    -4.949    -1.766    -1.651  0.9045  0.4256  0.0269
    12 C(13)  Bbb    -0.0219    -2.934    -1.047    -0.979 -0.4052  0.8775 -0.2566
              Bcc     0.0587     7.883     2.813     2.630 -0.1328  0.2212  0.9661
 
              Baa    -0.0034    -1.821    -0.650    -0.607  0.1204  0.3992  0.9089
    13 H(1)   Bbb    -0.0029    -1.545    -0.551    -0.515  0.7567 -0.6296  0.1763
              Bcc     0.0063     3.366     1.201     1.123  0.6426  0.6665 -0.3779
 
              Baa    -0.0019    -1.033    -0.368    -0.344 -0.4990  0.7549  0.4255
    14 H(1)   Bbb    -0.0018    -0.977    -0.349    -0.326  0.3305 -0.2882  0.8987
              Bcc     0.0038     2.010     0.717     0.670  0.8011  0.5891 -0.1057
 
              Baa    -0.0032    -1.690    -0.603    -0.564 -0.4977  0.2862  0.8188
    15 H(1)   Bbb    -0.0027    -1.422    -0.507    -0.474  0.6573 -0.4914  0.5714
              Bcc     0.0058     3.112     1.110     1.038  0.5659  0.8226  0.0564
 
              Baa    -0.0062    -3.312    -1.182    -1.105  0.2491  0.8173 -0.5197
    16 H(1)   Bbb    -0.0013    -0.670    -0.239    -0.224  0.9112 -0.3796 -0.1602
              Bcc     0.0075     3.982     1.421     1.328  0.3281  0.4336  0.8392
 
              Baa    -0.0056    -2.975    -1.062    -0.992 -0.4742  0.5829  0.6598
    17 H(1)   Bbb    -0.0016    -0.873    -0.312    -0.291  0.7358  0.6739 -0.0665
              Bcc     0.0072     3.849     1.373     1.284  0.4835 -0.4540  0.7485
 
              Baa    -0.0044    -2.330    -0.831    -0.777 -0.1369  0.9848 -0.1072
    18 H(1)   Bbb    -0.0023    -1.229    -0.439    -0.410 -0.2287  0.0739  0.9707
              Bcc     0.0067     3.559     1.270     1.187  0.9638  0.1574  0.2151
 
              Baa    -0.0028    -1.513    -0.540    -0.505  0.4520  0.8629 -0.2259
    19 H(1)   Bbb    -0.0017    -0.917    -0.327    -0.306  0.5918 -0.1006  0.7998
              Bcc     0.0046     2.430     0.867     0.810  0.6674 -0.4952 -0.5562
 
              Baa    -0.0116    -6.166    -2.200    -2.057  0.9004  0.4275  0.0804
    20 H(1)   Bbb    -0.0063    -3.376    -1.204    -1.126 -0.1897  0.2196  0.9570
              Bcc     0.0179     9.542     3.405     3.183 -0.3914  0.8770 -0.2788
 
              Baa    -0.0056    -2.975    -1.062    -0.992 -0.1785  0.2433  0.9534
    21 H(1)   Bbb    -0.0040    -2.159    -0.770    -0.720  0.9596  0.2571  0.1141
              Bcc     0.0096     5.134     1.832     1.713 -0.2174  0.9353 -0.2793
 
              Baa    -0.0313   -16.679    -5.952    -5.564 -0.1928  0.9398 -0.2820
    22 H(1)   Bbb    -0.0064    -3.438    -1.227    -1.147 -0.1583  0.2538  0.9542
              Bcc     0.0377    20.117     7.178     6.710  0.9684  0.2286  0.0999
 
              Baa    -0.0079    -4.204    -1.500    -1.402  0.9470  0.3148  0.0643
    23 H(1)   Bbb    -0.0059    -3.142    -1.121    -1.048 -0.1481  0.2503  0.9568
              Bcc     0.0138     7.347     2.622     2.451 -0.2851  0.9156 -0.2836
 
              Baa    -0.0083    -4.411    -1.574    -1.471  0.9946  0.0664  0.0797
    24 H(1)   Bbb    -0.0058    -3.086    -1.101    -1.030 -0.0941  0.2549  0.9624
              Bcc     0.0141     7.497     2.675     2.501 -0.0436  0.9647 -0.2598
 

 ---------------------------------------------------------------------------------

 Unable to Open any file for archive entry.
 1\1\GINC-NODE12\SP\UM062X\def2TZVP\C10H12O2(1+,2)\SVSS\29-Jan-2024\0\\
 # m062x/def2tzvp\\Ac5_rdkit_conf_1_SP_IE\\1,2\C,0,1.445774,1.868346,-0
 .147332\C,0,1.018036,0.488372,0.359351\C,0,1.359114,0.357563,1.846028\
 C,0,1.7872,-0.57543,-0.414733\O,0,2.393442,-1.490001,0.070178\O,0,1.70
 8298,-0.395033,-1.745249\C,0,-0.471014,0.20573,0.149105\C,0,-0.957725,
 -1.075979,0.40982\C,0,-2.303265,-1.370148,0.264857\C,0,-3.192664,-0.38
 2782,-0.140127\C,0,-2.720142,0.892569,-0.402395\C,0,-1.3679,1.184106,-
 0.26285\H,0,1.181444,2.014928,-1.192931\H,0,2.526307,1.978824,-0.04686
 4\H,0,0.974189,2.64689,0.453035\H,0,0.784292,1.091806,2.410968\H,0,1.1
 22069,-0.636552,2.219158\H,0,2.422554,0.53426,2.010116\H,0,2.190992,-1
 .123889,-2.160395\H,0,-0.270226,-1.853425,0.725102\H,0,-2.659058,-2.37
 1998,0.467975\H,0,-4.244851,-0.609119,-0.252538\H,0,-3.403114,1.669227
 ,-0.721878\H,0,-1.023002,2.185234,-0.481523\\Version=AS64L-G16RevC.01\
 State=2-A\HF=-538.4062922\S2=0.767516\S2-1=0.\S2A=0.750096\RMSD=7.328e
 -09\Dipole=-2.4796732,0.3943755,-0.1668973\Quadrupole=11.5635846,-3.59
 45304,-7.9690543,3.9453289,-0.5707615,1.1292299\PG=C01 [X(C10H12O2)]\\
 @
 The archive entry for this job was punched.


 I CLAIM NOT TO HAVE CONTROLLED EVENTS,
 BUT CONFESS PLAINLY THAT EVENTS HAVE CONTROLLED ME.

                                         A. LINCOLN
 Job cpu time:       0 days  0 hours 56 minutes  9.3 seconds.
 Elapsed time:       0 days  0 hours  7 minutes 10.5 seconds.
 File lengths (MBytes):  RWF=    191 Int=      0 D2E=      0 Chk=     15 Scr=      1
 Normal termination of Gaussian 16 at Mon Jan 29 13:01:07 2024.
